 vasp.5.4.4.18Apr17-6-g9f103f2a35 (build May 12 2020 05:39:39) gamma-only       
  
 MD_VERSION_INFO: Compiled 2020-05-12T12:39:39-UTC in devlin.sd.materialsdesign.
 com:/home/medea2/data/build/wwolf/vasp-gpu5.4.4/13047/x86_64/src/src/build/gam 
 from svn 13047
 
 This VASP executable licensed from Materials Design, Inc.
 
 executed on                        Lin64 date 2023.04.01  04:04:37
 running on   16 total cores
 distrk:  each k-point on   16 cores,    1 groups
 distr:  one band on NCORES_PER_BAND=   1 cores,   16 groups


--------------------------------------------------------------------------------------------------------


 INCAR:
 POTCAR:    PAW_PBE Ta_pv 07Sep2000               
 POTCAR:    PAW_PBE Ni 02Aug2007                  
 POTCAR:    PAW_PBE Li_sv 10Sep2004               
 POTCAR:    PAW_PBE O 08Apr2002                   

 ----------------------------------------------------------------------------- 
|                                                                             |
|           W    W    AA    RRRRR   N    N  II  N    N   GGGG   !!!           |
|           W    W   A  A   R    R  NN   N  II  NN   N  G    G  !!!           |
|           W    W  A    A  R    R  N N  N  II  N N  N  G       !!!           |
|           W WW W  AAAAAA  RRRRR   N  N N  II  N  N N  G  GGG   !            |
|           WW  WW  A    A  R   R   N   NN  II  N   NN  G    G                |
|           W    W  A    A  R    R  N    N  II  N    N   GGGG   !!!           |
|                                                                             |
|      For optimal performance we recommend to set                            |
|        NCORE= 4 - approx SQRT( number of cores)                             |
|      NCORE specifies how many cores store one orbital (NPAR=cpu/NCORE).     |
|      This setting can  greatly improve the performance of VASP for DFT.     |
|      The default,   NCORE=1            might be grossly inefficient         |
|      on modern multi-core architectures or massively parallel machines.     |
|      Do your own testing !!!!                                               |
|      Unfortunately you need to use the default for GW and RPA calculations. |
|      (for HF NCORE is supported but not extensively tested yet)             |
|                                                                             |
 ----------------------------------------------------------------------------- 

 POTCAR:    PAW_PBE Ta_pv 07Sep2000               
  local pseudopotential read in
  partial core-charges read in
  partial kinetic energy density read in
  atomic valenz-charges read in
  non local Contribution for L=           1  read in
    real space projection operators read in
  non local Contribution for L=           1  read in
    real space projection operators read in
  non local Contribution for L=           2  read in
    real space projection operators read in
  non local Contribution for L=           2  read in
    real space projection operators read in
  non local Contribution for L=           0  read in
    real space projection operators read in
  non local Contribution for L=           0  read in
    real space projection operators read in
    PAW grid and wavefunctions read in
 
   number of l-projection  operators is LMAX  =           6
   number of lm-projection operators is LMMAX =          18
 
 POTCAR:    PAW_PBE Ni 02Aug2007                  
  local pseudopotential read in
  partial core-charges read in
  partial kinetic energy density read in
  atomic valenz-charges read in
  non local Contribution for L=           2  read in
    real space projection operators read in
  non local Contribution for L=           2  read in
    real space projection operators read in
  non local Contribution for L=           0  read in
    real space projection operators read in
  non local Contribution for L=           0  read in
    real space projection operators read in
  non local Contribution for L=           1  read in
    real space projection operators read in
  non local Contribution for L=           1  read in
    real space projection operators read in
    PAW grid and wavefunctions read in
 
   number of l-projection  operators is LMAX  =           6
   number of lm-projection operators is LMMAX =          18
 
 POTCAR:    PAW_PBE Li_sv 10Sep2004               
  local pseudopotential read in
  atomic valenz-charges read in
  non local Contribution for L=           0  read in
    real space projection operators read in
  non local Contribution for L=           0  read in
    real space projection operators read in
  non local Contribution for L=           1  read in
    real space projection operators read in
    PAW grid and wavefunctions read in
 
   number of l-projection  operators is LMAX  =           3
   number of lm-projection operators is LMMAX =           5
 
 POTCAR:    PAW_PBE O 08Apr2002                   
  local pseudopotential read in
  partial core-charges read in
  partial kinetic energy density read in
  kinetic energy density of atom read in
  atomic valenz-charges read in
  non local Contribution for L=           0  read in
    real space projection operators read in
  non local Contribution for L=           0  read in
    real space projection operators read in
  non local Contribution for L=           1  read in
    real space projection operators read in
  non local Contribution for L=           1  read in
    real space projection operators read in
    PAW grid and wavefunctions read in
 
   number of l-projection  operators is LMAX  =           4
   number of lm-projection operators is LMMAX =           8
 
 Optimization of the real space projectors (new method)

 maximal supplied QI-value         = 15.12
 optimisation between [QCUT,QGAM] = [ 11.34, 22.83] = [ 36.00,145.93] Ry 
 Optimized for a Real-space Cutoff    1.61 Angstroem

   l    n(q)    QCUT    max X(q) W(low)/X(q) W(high)/X(q)  e(spline) 
   1     11    11.338     4.092    0.40E-05    0.64E-05    0.47E-07
   1     11    11.338     4.834    0.13E-04    0.44E-04    0.21E-06
   2     10    11.338    62.294    0.15E-03    0.31E-03    0.77E-06
   2     10    11.338    50.966    0.15E-03    0.31E-03    0.77E-06
   0     11    11.338   103.792    0.33E-04    0.19E-04    0.90E-07
   0     11    11.338    56.335    0.26E-04    0.17E-04    0.79E-07
 Optimization of the real space projectors (new method)

 maximal supplied QI-value         = 16.25
 optimisation between [QCUT,QGAM] = [ 11.38, 22.75] = [ 36.24,144.96] Ry 
 Optimized for a Real-space Cutoff    1.47 Angstroem

   l    n(q)    QCUT    max X(q) W(low)/X(q) W(high)/X(q)  e(spline) 
   2      9    11.376    60.317    0.17E-03    0.16E-04    0.16E-06
   2      9    11.376    55.921    0.17E-03    0.16E-04    0.17E-06
   0     10    11.376    51.690    0.45E-04    0.60E-04    0.21E-06
   0     10    11.376    30.015    0.37E-04    0.55E-04    0.19E-06
   1     10    11.376    18.849    0.83E-04    0.11E-03    0.92E-07
   1     10    11.376    14.624    0.69E-04    0.92E-04    0.82E-07
 Optimization of the real space projectors (new method)

 maximal supplied QI-value         = 22.11
 optimisation between [QCUT,QGAM] = [ 11.28, 22.77] = [ 35.61,145.23] Ry 
 Optimized for a Real-space Cutoff    1.10 Angstroem

   l    n(q)    QCUT    max X(q) W(low)/X(q) W(high)/X(q)  e(spline) 
   0      7    11.276    10.506    0.54E-04    0.58E-04    0.16E-07
   0      7    11.276     8.367    0.11E-03    0.14E-03    0.35E-07
   1      7    11.276     8.983    0.23E-03    0.43E-03    0.86E-07
 Optimization of the real space projectors (new method)

 maximal supplied QI-value         = 24.76
 optimisation between [QCUT,QGAM] = [ 11.39, 22.77] = [ 36.31,145.25] Ry 
 Optimized for a Real-space Cutoff    1.10 Angstroem

   l    n(q)    QCUT    max X(q) W(low)/X(q) W(high)/X(q)  e(spline) 
   0      7    11.387    20.381    0.22E-03    0.48E-03    0.18E-06
   0      7    11.387    15.268    0.22E-03    0.52E-03    0.19E-06
   1      7    11.387     5.964    0.22E-03    0.73E-03    0.24E-06
   1      7    11.387     5.382    0.19E-03    0.60E-03    0.21E-06

 ----------------------------------------------------------------------------- 
|                                                                             |
|  ADVICE TO THIS USER RUNNING 'VASP/VAMP'   (HEAR YOUR MASTER'S VOICE ...):  |
|                                                                             |
|      You enforced a specific xc-type in the INCAR file,                     |
|      a different type was found on the POTCAR file                          |
|          I HOPE YOU KNOW, WHAT YOU ARE  DOING                               |
|                                                                             |
 ----------------------------------------------------------------------------- 

  PAW_PBE Ta_pv 07Sep2000               :
 energy of atom  1       EATOM=-1047.1984
 kinetic energy error for atom=    0.0019 (will be added to EATOM!!)
  PAW_PBE Ni 02Aug2007                  :
 energy of atom  2       EATOM=-1077.6739
 kinetic energy error for atom=    0.0030 (will be added to EATOM!!)
  PAW_PBE Li_sv 10Sep2004               :
 energy of atom  3       EATOM= -202.7858
 kinetic energy error for atom=    0.0143 (will be added to EATOM!!)
  PAW_PBE O 08Apr2002                   :
 energy of atom  4       EATOM= -432.3788
 kinetic energy error for atom=    0.0224 (will be added to EATOM!!)
 
 
 POSCAR: ce255507_1                              
  positions in direct lattice
  No initial velocities read in
 exchange correlation table for  LEXCH =       14
   RHO(1)=    0.500       N(1)  =     2000
   RHO(2)=  100.500       N(2)  =     4000
 


--------------------------------------------------------------------------------------------------------


 ion  position               nearest neighbor table
   1  0.991  0.997  0.017-  72 2.10 105 2.11  60 2.11 108 2.13  57 2.16  93 2.17   7 2.72   9 2.76
                             6 2.91   4 2.92  54 3.05  29 3.06  25 3.06  12 3.07  30 3.07
   2  0.887  0.339  0.203-  71 1.92  56 1.95  74 1.98  59 2.00  80 2.10  77 2.11  14 2.81  26 2.82
                            20 2.86  36 2.95  30 2.99  28 3.02  17 3.10   5 3.12   8 3.18
   3  0.110  0.664  0.114-  58 1.99  64 1.99  55 2.01  61 2.01  79 2.01  94 2.01  47 2.87  29 2.88
                            32 2.88  40 2.89  28 2.92  31 2.92  15 2.94  13 2.94  16 2.95  18 2.95
   4  0.325  0.997  0.017-  66 2.10  99 2.11  60 2.11  96 2.13  63 2.16  93 2.17  10 2.72   9 2.76
                             6 2.91   1 2.92  48 3.05  32 3.06  22 3.06  12 3.07  30 3.07
   5  0.244  0.339  0.203-  65 1.92  62 1.95  86 1.98  59 2.00  80 2.10  83 2.11  14 2.81  23 2.82
                            20 2.86  33 2.95  30 2.99  31 3.02  17 3.10   2 3.12  11 3.18
   6  0.662  0.996  0.010- 102 2.02 105 2.10  99 2.10  66 2.13  72 2.13  69 2.21  10 2.77   7 2.77
                             1 2.91   4 2.91  25 3.00  22 3.00  33 3.04  36 3.04
   7  0.676  0.999  0.317-  78 2.09  57 2.11  75 2.14  69 2.15  72 2.15  90 2.16   1 2.72   6 2.77
                             9 2.90  10 2.93  12 3.04  22 3.06  36 3.06  45 3.07  29 3.08  39 3.08
   8  0.551  0.336  0.582-  95 1.92  98 1.95  77 1.99  92 2.03  89 2.05  74 2.17  23 2.74  20 2.82
                            17 2.84  48 2.94  39 3.06  11 3.06  14 3.16   2 3.18
   9  0.005  0.998  0.323-  81 2.06  78 2.08  84 2.08  63 2.16  57 2.16  60 2.19   1 2.76   4 2.76
                             7 2.90  10 2.90  22 3.01  25 3.01  39 3.02  42 3.02  30 3.03
  10  0.341  0.999  0.317-  84 2.09  63 2.11  87 2.14  69 2.15  66 2.15  90 2.16   4 2.72   6 2.77
                             9 2.90   7 2.93  12 3.04  25 3.06  33 3.06  45 3.07  32 3.08  42 3.08
  11  0.200  0.336  0.582- 107 1.92 104 1.95  83 1.99  92 2.03  89 2.05  86 2.17  26 2.74  20 2.82
                            17 2.84  54 2.94  42 3.06   8 3.06  14 3.16   5 3.18
  12  0.334  0.996  0.665- 108 2.01  96 2.01  90 2.03  87 2.04  75 2.04  93 2.09  25 2.93  22 2.93
                            10 3.04   7 3.04   1 3.07   4 3.07  47 3.09  54 3.10  48 3.10
  13  0.449  0.665  0.109-  67 2.00  70 2.01 100 2.02  85 2.04  61 2.08  64 2.10  35 2.69  43 2.73
                            50 2.79  32 2.82  31 2.83  15 2.85  24 2.92  19 2.94   3 2.94  21 2.96
  14  0.556  0.336  0.222-  68 1.98  89 2.08  74 2.14  86 2.14  71 2.14  65 2.14   2 2.81   5 2.81
                            26 2.92  23 2.92   8 3.16  11 3.16
  15  0.775  0.665  0.109-  67 2.00  70 2.01 106 2.02  73 2.04  55 2.08  58 2.10  35 2.69  37 2.73
                            53 2.79  29 2.82  28 2.83  13 2.85  24 2.92  19 2.94   3 2.94  27 2.96
  16  0.776  0.666  0.448-  82 2.00  73 2.00  76 2.01  97 2.03  79 2.09  58 2.12  38 2.69  37 2.76
                            49 2.81  29 2.82  40 2.83  21 2.89  19 2.91  24 2.91  18 2.91   3 2.95
  17  0.890  0.341  0.553- 101 1.93  80 2.11  77 2.11  83 2.11  98 2.25 104 2.25   8 2.84  11 2.84
                            23 2.90  26 2.90   2 3.10   5 3.10
  18  0.109  0.666  0.448-  82 2.00  85 2.00  88 2.01 103 2.03  79 2.09  64 2.12  44 2.69  43 2.76
                            52 2.81  32 2.82  40 2.83  27 2.89  19 2.91  24 2.91  16 2.91   3 2.95
  19  0.444  0.665  0.445-  88 1.91  76 1.91  70 1.92  85 1.93  73 1.93  91 1.94  35 2.73  46 2.74
                            43 2.74  37 2.74  44 2.77  38 2.77  18 2.91  16 2.91  27 2.93  21 2.93
  20  0.221  0.344  0.890- 107 2.01  95 2.01  56 2.10  62 2.10  59 2.31  92 2.48  11 2.82   8 2.82
                             2 2.86   5 2.86  26 2.99  23 2.99
  21  0.447  0.666  0.775-  91 2.01 100 2.01  97 2.02  76 2.02  61 2.08  94 2.11  46 2.71  38 2.73
                            31 2.78  50 2.79  49 2.80  47 2.83  16 2.89  24 2.90  19 2.93  27 2.93
  22  0.668  0.997  0.667- 102 2.01  81 2.06  78 2.07  96 2.09  99 2.10  75 2.11  25 2.88  12 2.93
                             6 3.00   9 3.01   4 3.06   7 3.06
  23  0.566  0.338  0.885- 101 1.97  68 1.99  95 2.09  65 2.12  62 2.15  98 2.16   8 2.74  26 2.75
                             5 2.82  17 2.90  14 2.92  20 2.99
  24  0.778  0.667  0.777-  67 1.90 103 1.91  97 1.91 106 1.93 100 1.93  82 1.94  52 2.73  49 2.73
                            53 2.77  50 2.77  41 2.81  27 2.90  21 2.90  16 2.91  18 2.91  13 2.92
  25  0.998  0.997  0.667- 102 2.01  81 2.06  84 2.07 108 2.09 105 2.10  87 2.11  22 2.88  12 2.93
                             6 3.00   9 3.01   1 3.06  10 3.06
  26  0.881  0.338  0.885- 101 1.97  68 1.99 107 2.09  71 2.12  56 2.15 104 2.16  11 2.74  23 2.75
                             2 2.82  17 2.90  14 2.92  20 2.99
  27  0.111  0.666  0.775-  91 2.01 106 2.01 103 2.02  88 2.02  55 2.08  94 2.11  46 2.71  44 2.73
                            28 2.78  53 2.79  52 2.80  47 2.83  18 2.89  24 2.90  19 2.93  21 2.93
  28  0.996  0.511  0.986-  94 2.00 106 2.03  71 2.07  58 2.12 107 2.13  27 2.78  15 2.83   3 2.92
                             2 3.02
  29  0.880  0.819  0.224-  79 2.02  55 2.06  72 2.06  73 2.08  60 2.17  78 2.26  16 2.82  15 2.82
                             3 2.88   1 3.06   7 3.08
  30  0.111  0.173  0.111-  62 2.07  56 2.07  63 2.08  57 2.08  80 2.12  93 2.23   2 2.99   5 2.99
                             9 3.03   1 3.07   4 3.07
  31  0.352  0.511  0.986-  94 2.00 100 2.03  65 2.07  64 2.12  95 2.13  21 2.78  13 2.83   3 2.92
                             5 3.02
  32  0.229  0.819  0.224-  79 2.02  61 2.06  66 2.06  85 2.08  60 2.17  84 2.26  18 2.82  13 2.82
                             3 2.88   4 3.06  10 3.08
  33  0.462  0.174  0.100-  68 2.01  69 2.03  62 2.13  99 2.15  63 2.17  86 2.26   5 2.95   6 3.04
                            10 3.06
  34  0.668  0.508  0.997- 106 2.08 100 2.08  65 2.14  71 2.14  70 2.24
  35  0.558  0.809  0.217-  85 1.99  73 1.99  67 2.08  66 2.19  72 2.19  13 2.69  15 2.69  19 2.73

  36  0.771  0.174  0.100-  68 2.01  69 2.03  56 2.13 105 2.15  57 2.17  74 2.26   2 2.95   6 3.04
                             7 3.06
  37  0.668  0.519  0.332-  70 1.97  58 1.98  76 2.02  77 2.19  71 2.26  15 2.73  19 2.74  16 2.76

  38  0.564  0.811  0.553-  73 2.01  91 2.03  97 2.03  78 2.27  16 2.69  21 2.73  19 2.77
  39  0.779  0.166  0.455-  98 2.04  81 2.05  57 2.06  74 2.14  75 2.16  80 2.27   9 3.02   8 3.06
                             7 3.08
  40  0.992  0.510  0.350-  59 2.03  58 2.05  64 2.05  82 2.08  77 2.26  83 2.26  16 2.83  18 2.83
                             3 2.89
  41  0.886  0.822  0.562-  97 2.03 103 2.03  79 2.16  78 2.24  84 2.24  24 2.81
  42  0.100  0.166  0.455- 104 2.04  81 2.05  63 2.06  86 2.14  87 2.16  80 2.27   9 3.02  11 3.06
                            10 3.08
  43  0.334  0.519  0.332-  70 1.97  64 1.98  88 2.02  83 2.19  65 2.26  13 2.73  19 2.74  18 2.76

  44  0.217  0.811  0.553-  85 2.01  91 2.03 103 2.03  84 2.27  18 2.69  27 2.73  19 2.77
  45  0.453  0.171  0.427-  92 1.91  69 1.93  74 2.16  86 2.16  75 2.19  87 2.19   7 3.07  10 3.07

  46  0.330  0.521  0.673-  76 1.98  88 1.98  94 1.99  95 2.26 107 2.26  21 2.71  27 2.71  19 2.74

  47  0.224  0.819  0.885-  55 2.01  61 2.01  60 2.10  91 2.15 108 2.19  96 2.19  21 2.83  27 2.83
                             3 2.87  12 3.09
  48  0.447  0.167  0.788-  98 1.98  99 2.06  93 2.10  62 2.14  75 2.27   8 2.94   4 3.05  12 3.10

  49  0.671  0.516  0.677- 100 1.98  82 1.99 101 2.17  76 2.20  95 2.25  24 2.73  21 2.80  16 2.81

  50  0.558  0.816  0.887-  67 2.01  97 2.02  61 2.06  66 2.13 102 2.28  24 2.77  21 2.79  13 2.79

  51  0.781  0.170  0.771- 104 2.07  98 2.07  99 2.19 105 2.19  81 2.24  68 2.27
  52  0.985  0.516  0.677- 106 1.98  82 1.99 101 2.17  88 2.20 107 2.25  24 2.73  27 2.80  18 2.81

  53  0.889  0.816  0.887-  67 2.01 103 2.02  55 2.06  72 2.13 102 2.28  24 2.77  27 2.79  15 2.79

  54  0.098  0.167  0.788- 104 1.98 105 2.06  93 2.10  56 2.14  87 2.27  11 2.94   1 3.05  12 3.10

  55  0.005  0.742  0.001-   3 2.01  47 2.01  29 2.06  53 2.06  27 2.08  15 2.08
  56  0.000  0.258  0.004-   2 1.95  30 2.07  20 2.10  36 2.13  54 2.14  26 2.15
  57  0.884  0.093  0.227-  39 2.06  30 2.08   7 2.11   9 2.16   1 2.16  36 2.17
  58  0.895  0.586  0.220-  37 1.98   3 1.99  40 2.05  15 2.10  16 2.12  28 2.12
  59  0.090  0.420  0.152-   5 2.00   2 2.00  40 2.03  20 2.31
  60  0.114  0.904  0.105-  47 2.10   4 2.11   1 2.11  32 2.17  29 2.17   9 2.19
  61  0.327  0.742  0.001-   3 2.01  47 2.01  32 2.06  50 2.06  21 2.08  13 2.08
  62  0.329  0.258  0.004-   5 1.95  30 2.07  20 2.10  33 2.13  48 2.14  23 2.15
  63  0.222  0.093  0.227-  42 2.06  30 2.08  10 2.11   9 2.16   4 2.16  33 2.17
  64  0.218  0.586  0.220-  43 1.98   3 1.99  40 2.05  13 2.10  18 2.12  31 2.12
  65  0.441  0.422  0.108-   5 1.92  31 2.07  23 2.12  34 2.14  14 2.14  43 2.26
  66  0.446  0.903  0.106-  32 2.06   4 2.10  50 2.13   6 2.13  10 2.15  35 2.19
  67  0.674  0.736  0.985-  24 1.90  15 2.00  13 2.00  53 2.01  50 2.01  35 2.08
  68  0.663  0.263  0.006-  14 1.98  26 1.99  23 1.99  33 2.01  36 2.01  51 2.27
  69  0.554  0.094  0.226-  45 1.93  36 2.03  33 2.03  10 2.15   7 2.15   6 2.21
  70  0.549  0.594  0.236-  19 1.92  37 1.97  43 1.97  15 2.01  13 2.01  34 2.24
  71  0.785  0.422  0.108-   2 1.92  28 2.07  26 2.12  34 2.14  14 2.14  37 2.26
  72  0.782  0.903  0.106-  29 2.06   1 2.10  53 2.13   6 2.13   7 2.15  35 2.19
  73  0.659  0.735  0.337-  19 1.93  35 1.99  16 2.00  38 2.01  15 2.04  29 2.08
  74  0.678  0.260  0.341-   2 1.98  39 2.14  14 2.14  45 2.16   8 2.17  36 2.26
  75  0.553  0.077  0.550-  12 2.04  22 2.11   7 2.14  39 2.16  45 2.19  48 2.27
  76  0.549  0.594  0.552-  19 1.91  46 1.98  16 2.01  37 2.02  21 2.02  49 2.20
  77  0.763  0.412  0.438-   8 1.99   2 2.11  17 2.11  37 2.19  40 2.26
  78  0.777  0.920  0.444-  22 2.07   9 2.08   7 2.09  41 2.24  29 2.26  38 2.27
  79  0.005  0.744  0.323-   3 2.01  29 2.02  32 2.02  16 2.09  18 2.09  41 2.16
  80  0.006  0.265  0.321-   5 2.10   2 2.10  17 2.11  30 2.12  39 2.27  42 2.27
  81  0.894  0.075  0.544-  39 2.05  42 2.05   9 2.06  22 2.06  25 2.06  51 2.24
  82  0.884  0.595  0.565-  24 1.94  49 1.99  52 1.99  16 2.00  18 2.00  40 2.08
  83  0.132  0.412  0.438-  11 1.99   5 2.11  17 2.11  43 2.19  40 2.26
  84  0.112  0.920  0.444-  25 2.07   9 2.08  10 2.09  41 2.24  32 2.26  44 2.27
  85  0.337  0.735  0.337-  19 1.93  35 1.99  18 2.00  44 2.01  13 2.04  32 2.08
  86  0.315  0.260  0.341-   5 1.98  42 2.14  14 2.14  45 2.16  11 2.17  33 2.26
  87  0.230  0.077  0.550-  12 2.04  25 2.11  10 2.14  42 2.16  45 2.19  54 2.27
  88  0.232  0.594  0.552-  19 1.91  46 1.98  18 2.01  43 2.02  27 2.02  52 2.20
  89  0.437  0.404  0.459-  11 2.05   8 2.05  14 2.08
  90  0.441  0.916  0.451-  12 2.03  10 2.16   7 2.16
  91  0.338  0.736  0.657-  19 1.94  27 2.01  21 2.01  44 2.03  38 2.03  47 2.15
  92  0.353  0.248  0.626-  45 1.91  11 2.03   8 2.03  20 2.48
  93  0.226  0.081  0.881-  12 2.09  54 2.10  48 2.10   1 2.17   4 2.17  30 2.23
  94  0.216  0.585  0.901-  46 1.99  28 2.00  31 2.00   3 2.01  27 2.11  21 2.11
  95  0.445  0.417  0.777-   8 1.92  20 2.01  23 2.09  31 2.13  49 2.25  46 2.26
  96  0.437  0.920  0.782-  12 2.01  22 2.09   4 2.13  47 2.19
  97  0.672  0.738  0.672-  24 1.91  21 2.02  50 2.02  16 2.03  41 2.03  38 2.03
  98  0.656  0.247  0.667-   8 1.95  48 1.98  39 2.04  51 2.07  23 2.16  17 2.25
  99  0.554  0.078  0.891-  48 2.06   6 2.10  22 2.10   4 2.11  33 2.15  51 2.19
 100  0.565  0.595  0.884-  24 1.93  49 1.98  21 2.01  13 2.02  31 2.03  34 2.08
 101  0.784  0.411  0.765-  17 1.93  26 1.97  23 1.97  52 2.17  49 2.17
 102  0.773  0.924  0.787-  25 2.01  22 2.01   6 2.02  53 2.28  50 2.28
 103  0.989  0.738  0.672-  24 1.91  27 2.02  53 2.02  18 2.03  41 2.03  44 2.03
 104  0.010  0.247  0.667-  11 1.95  54 1.98  42 2.04  51 2.07  26 2.16  17 2.25
 105  0.888  0.078  0.891-  54 2.06   6 2.10  25 2.10   1 2.11  36 2.15  51 2.19
 106  0.884  0.595  0.884-  24 1.93  52 1.98  27 2.01  15 2.02  28 2.03  34 2.08
 107  0.111  0.417  0.777-  11 1.92  20 2.01  26 2.09  28 2.13  52 2.25  46 2.26
 108  0.114  0.920  0.782-  12 2.01  25 2.09   1 2.13  47 2.19
 
  LATTYP: Found a base centered monoclinic cell.
 ALAT       =    15.3331806145
 B/A-ratio  =     0.5695948786
 C/A-ratio  =     1.3941367539
 COS(beta)  =    -0.6291814780
  
  Lattice vectors:
  
 A1 = (   4.3668505751,   0.0371688481,   7.6665002065)
 A2 = (  -4.3668505751,   0.0371688481,   7.6665002065)
 A3 = (   0.0000000000, -14.8184216179, -15.4068588108)


Analysis of symmetry for initial positions (statically):
=====================================================================
 Subroutine PRICEL returns:
 Original cell was already a primitive cell.
 

 Routine SETGRP: Setting up the symmetry group for a 
 base centered monoclinic supercell.


 Subroutine GETGRP returns: Found  2 space group operations
 (whereof  1 operations were pure point group operations)
 out of a pool of  4 trial point group operations.


The static configuration has the point symmetry C_1 .
 The point group associated with its full space group is C_1h.


Analysis of symmetry for dynamics (positions and initial velocities):
=====================================================================
 Subroutine PRICEL returns:
 Original cell was already a primitive cell.
 

 Routine SETGRP: Setting up the symmetry group for a 
 base centered monoclinic supercell.


 Subroutine GETGRP returns: Found  2 space group operations
 (whereof  1 operations were pure point group operations)
 out of a pool of  4 trial point group operations.


The dynamic configuration has the point symmetry C_1 .
 The point group associated with its full space group is C_1h.


Analysis of structural, dynamic, and magnetic symmetry:
=====================================================================
 Subroutine PRICEL returns:
 Original cell was already a primitive cell.
 

 Routine SETGRP: Setting up the symmetry group for a 
 base centered monoclinic supercell.


 Subroutine GETGRP returns: Found  2 space group operations
 (whereof  1 operations were pure point group operations)
 out of a pool of  4 trial point group operations.


The magnetic configuration has the point symmetry C_1 .
 The point group associated with its full space group is C_1h.


 Subroutine INISYM returns: Found  2 space group operations
 (whereof  1 operations are pure point group operations),
 and found     1 'primitive' translations

 
 
 KPOINTS: Automatic mesh                          

Automatic generation of k-mesh.
Space group operators:
 irot       det(A)        alpha          n_x          n_y          n_z        tau_x        tau_y        tau_z
    1     1.000000     0.000000     1.000000     0.000000     0.000000     0.000000     0.000000     0.000000
    2    -1.000000   179.999999     1.000000     0.000000     0.000000    -0.666667    -0.000000     1.000000
 
 Subroutine IBZKPT returns following result:
 ===========================================
 
 Found      1 irreducible k-points:
 
 Following reciprocal coordinates:
            Coordinates               Weight
  0.000000  0.000000  0.000000      1.000000
 
 Following cartesian coordinates:
            Coordinates               Weight
  0.000000  0.000000  0.000000      1.000000
 


--------------------------------------------------------------------------------------------------------




 Dimension of arrays:
   k-points           NKPTS =      1   k-points in BZ     NKDIM =      1   number of bands    NBANDS=    432
   number of dos      NEDOS =    301   number of ions     NIONS =    108
   non local maximal  LDIM  =      6   non local SUM 2l+1 LMDIM =     18
   total plane-waves  NPLWV = 442368
   max r-space proj   IRMAX =   7899   max aug-charges    IRDMAX=  25371
   dimension x,y,z NGX =    64 NGY =  108 NGZ =   64
   dimension x,y,z NGXF=   128 NGYF=  216 NGZF=  128
   support grid    NGXF=   128 NGYF=  216 NGZF=  128
   ions per type =              12  15  27  54
   NGX,Y,Z   is equivalent  to a cutoff of  12.18, 12.18, 12.06 a.u.
   NGXF,Y,Z  is equivalent  to a cutoff of  24.36, 24.35, 24.12 a.u.

 SYSTEM =  unknown system                          
 POSCAR =  ce255507_1                              

 Startparameter for this run:
   NWRITE =      1    write-flag & timer
   PREC   = accura    normal or accurate (medium, high low for compatibility)
   ISTART =      0    job   : 0-new  1-cont  2-samecut
   ICHARG =      2    charge: 1-file 2-atom 10-const
   ISPIN  =      2    spin polarized calculation?
   LNONCOLLINEAR =      F non collinear calculations
   LSORBIT =      F    spin-orbit coupling
   INIWAV =      1    electr: 0-lowe 1-rand  2-diag
   LASPH  =      F    aspherical Exc in radial PAW
   METAGGA=      F    non-selfconsistent MetaGGA calc.

 Electronic Relaxation 1
   ENCUT  =  500.0 eV  36.75 Ry    6.06 a.u.  15.92 26.88 16.09*2*pi/ulx,y,z
   ENINI  =  500.0     initial cutoff
   ENAUG  =  628.9 eV  augmentation charge cutoff
   NELM   =     80;   NELMIN=  2; NELMDL= -5     # of ELM steps 
   EDIFF  = 0.1E-04   stopping-criterion for ELM
   LREAL  =      T    real-space projection
   NLSPLINE    = F    spline interpolate recip. space projectors
   LCOMPAT=      F    compatible to vasp.4.4
   GGA_COMPAT  = T    GGA compatible to vasp.4.4-vasp.4.6
   LMAXPAW     = -100 max onsite density
   LMAXMIX     =    2 max onsite mixed and CHGCAR
   VOSKOWN=      1    Vosko Wilk Nusair interpolation
   ROPT   =   -0.00025  -0.00025  -0.00025  -0.00025
 Ionic relaxation
   EDIFFG = -.2E-01   stopping-criterion for IOM
   NSW    =     20    number of steps for IOM
   NBLOCK =      1;   KBLOCK =     20    inner block; outer block 
   IBRION =      1    ionic relax: 0-MD 1-quasi-New 2-CG
   NFREE  =      0    steps in history (QN), initial steepest desc. (CG)
   ISIF   =      3    stress and relaxation
   IWAVPR =     11    prediction:  0-non 1-charg 2-wave 3-comb
   ISYM   =      2    0-nonsym 1-usesym 2-fastsym
   LCORR  =      T    Harris-Foulkes like correction to forces

   POTIM  = 0.5000    time-step for ionic-motion
   TEIN   =    0.0    initial temperature
   TEBEG  =    0.0;   TEEND  =   0.0 temperature during run
   SMASS  =  -3.00    Nose mass-parameter (am)
   estimated Nose-frequenzy (Omega)   =  0.10E-29 period in steps =****** mass=  -0.174E-26a.u.
   SCALEE = 1.0000    scale energy and forces
   NPACO  =    256;   APACO  = 16.0  distance and # of slots for P.C.
   PSTRESS=    0.0 pullay stress

  Mass of Ions in am
   POMASS = 180.95 58.69  7.01 16.00
  Ionic Valenz
   ZVAL   =  11.00 10.00  3.00  6.00
  Atomic Wigner-Seitz radii
   RWIGS  =   1.34  1.15  1.23  0.73
  virtual crystal weights 
   VCA    =   1.00  1.00  1.00  1.00
   NELECT =     687.0000    total number of electrons
   NUPDOWN=      -1.0000    fix difference up-down

 DOS related values:
   EMIN   =  10.00;   EMAX   =-10.00  energy-range for DOS
   EFERMI =   0.00
   ISMEAR =     0;   SIGMA  =   0.05  broadening in eV -4-tet -1-fermi 0-gaus

 Electronic relaxation 2 (details)
   IALGO  =     38    algorithm
   LDIAG  =      T    sub-space diagonalisation (order eigenvalues)
   LSUBROT=      F    optimize rotation matrix (better conditioning)
   TURBO    =      0    0=normal 1=particle mesh
   IRESTART =      0    0=no restart 2=restart with 2 vectors
   NREBOOT  =      0    no. of reboots
   NMIN     =      0    reboot dimension
   EREF     =   0.00    reference energy to select bands
   IMIX   =      4    mixing-type and parameters
     AMIX     =   0.40;   BMIX     =  1.00
     AMIX_MAG =   1.60;   BMIX_MAG =  1.00
     AMIN     =   0.10
     WC   =   100.;   INIMIX=   1;  MIXPRE=   1;  MAXMIX= -45

 Intra band minimization:
   WEIMIN = 0.0010     energy-eigenvalue tresh-hold
   EBREAK =  0.58E-08  absolut break condition
   DEPER  =   0.30     relativ break condition  

   TIME   =   0.40     timestep for ELM

  volume/ion in A,a.u.               =       9.14        61.68
  Fermi-wavevector in a.u.,A,eV,Ry     =   1.450751  2.741522 28.635883  2.104678
  Thomas-Fermi vector in A             =   2.568327
 
 Write flags
   LWAVE        =      F    write WAVECAR
   LDOWNSAMPLE  =      F    k-point downsampling of WAVECAR
   LCHARG       =      T    write CHGCAR
   LVTOT        =      F    write LOCPOT, total local potential
   LVHAR        =      F    write LOCPOT, Hartree potential only
   LELF         =      F    write electronic localiz. function (ELF)
   LORBIT       =      0    0 simple, 1 ext, 2 COOP (PROOUT), +10 PAW based schemes


 Dipole corrections
   LMONO  =      F    monopole corrections only (constant potential shift)
   LDIPOL =      F    correct potential (dipole corrections)
   IDIPOL =      0    1-x, 2-y, 3-z, 4-all directions 
   EPSILON=  1.0000000 bulk dielectric constant

 Exchange correlation treatment:
   GGA     =    PS    GGA type
   LEXCH   =    14    internal setting for exchange type
   VOSKOWN=      1    Vosko Wilk Nusair interpolation
   LHFCALC =     F    Hartree Fock is set to
   LHFONE  =     F    Hartree Fock one center treatment
   AEXX    =    0.0000 exact exchange contribution

 Linear response parameters
   LEPSILON=     F    determine dielectric tensor
   LRPA    =     F    only Hartree local field effects (RPA)
   LNABLA  =     F    use nabla operator in PAW spheres
   LVEL    =     F    velocity operator in full k-point grid
   LINTERFAST=   F  fast interpolation
   KINTER  =     0    interpolate to denser k-point grid
   CSHIFT  =0.1000    complex shift for real part using Kramers Kronig
   OMEGAMAX=  -1.0    maximum frequency
   DEG_THRESHOLD= 0.2000000E-02 threshold for treating states as degnerate
   RTIME   =   -0.100 relaxation time in fs
  (WPLASMAI=    0.000 imaginary part of plasma frequency in eV, 0.658/RTIME)
   DFIELD  = 0.0000000 0.0000000 0.0000000 field for delta impulse in time
 
 Orbital magnetization related:
   ORBITALMAG=     F  switch on orbital magnetization
   LCHIMAG   =     F  perturbation theory with respect to B field
   DQ        =  0.001000  dq finite difference perturbation B field
   LLRAUG    =     F  two centre corrections for induced B field



--------------------------------------------------------------------------------------------------------


 quasi-Newton-method for relaxation of ions
 charge density and potential will be updated during run
 spin polarized calculation
 Variant of blocked Davidson
 Davidson routine will perform the subspace rotation
 perform sub-space diagonalisation
    after iterative eigenvector-optimisation
 modified Broyden-mixing scheme, WC =      100.0
 initial mixing is a Kerker type mixing with AMIX =  0.4000 and BMIX =      1.0000
 Hartree-type preconditioning will be used
 using additional bands           88
 real space projection scheme for non local part
 use partial core corrections
 calculate Harris-corrections to forces 
   (improved forces if not selfconsistent)
 use gradient corrections 
 use of overlap-Matrix (Vanderbilt PP)
 Gauss-broadening in eV      SIGMA  =   0.05


--------------------------------------------------------------------------------------------------------


  energy-cutoff  :      500.00
  volume of cell :      987.19
      direct lattice vectors                 reciprocal lattice vectors
     8.733701150  0.000000000  0.000000000     0.114498995  0.000326712 -0.065220391
     0.000000000 14.744083922  0.073858398     0.000000000  0.067825461 -0.000328832
     4.366850575  0.037168848  7.666500206     0.000000000 -0.000653425  0.130440783

  length of vectors
     8.733701150 14.744268912  8.823037509     0.131771871  0.067826258  0.130442419


 
 k-points in units of 2pi/SCALE and weight: Automatic mesh                          
   0.00000000  0.00000000  0.00000000       1.000
 
 k-points in reciprocal lattice and weights: Automatic mesh                          
   0.00000000  0.00000000  0.00000000       1.000
 
 position of ions in fractional coordinates (direct lattice) 
   0.99115752  0.99677811  0.01672276
   0.88660003  0.33885961  0.20300008
   0.10983302  0.66405283  0.11366728
   0.32545305  0.99677811  0.01672276
   0.24373322  0.33885961  0.20300008
   0.66158539  0.99599101  0.01016256
   0.67583480  0.99854256  0.31667021
   0.55093834  0.33600392  0.58227632
   0.00534245  0.99814299  0.32264843
   0.34082834  0.99854256  0.31667021
   0.20011868  0.33600392  0.58227632
   0.33434961  0.99611377  0.66463411
   0.44903075  0.66490660  0.10917682
   0.55564800  0.33603772  0.22203735
   0.77512577  0.66490660  0.10917682
   0.77563269  0.66596530  0.44841924
   0.89013261  0.34078457  0.55306809
   0.10928141  0.66596530  0.44841924
   0.44430138  0.66481915  0.44473057
   0.22146567  0.34363209  0.89040198
   0.44670834  0.66566660  0.77523664
   0.66837745  0.99726498  0.66692675
   0.56636985  0.33758712  0.88547603
   0.77801177  0.66666941  0.77730980
   0.99802913  0.99726498  0.66692675
   0.88148745  0.33758712  0.88547603
   0.11138835  0.66566660  0.77523664
   0.99580424  0.51110845  0.98581405
   0.88032925  0.81864436  0.22379461
   0.11100848  0.17272876  0.11131637
   0.35171504  0.51110845  0.98581405
   0.22920947  0.81864436  0.22379461
   0.46169955  0.17403808  0.10045239
   0.66801603  0.50795872  0.99730128
   0.55830367  0.80850038  0.21672599
   0.77118140  0.17403808  0.10045239
   0.66781180  0.51945982  0.33192330
   0.56350856  0.81125459  0.55264125
   0.77862377  0.16563814  0.45457639
   0.99154847  0.51019624  0.35023639
   0.88577890  0.82170421  0.56177551
   0.10013318  0.16563814  0.45457639
   0.33359824  0.51945982  0.33192330
   0.21718352  0.81125459  0.55264125
   0.45296071  0.17135243  0.42741193
   0.33009770  0.52095771  0.67313793
   0.22411958  0.81926423  0.88509417
   0.44699530  0.16704613  0.78828673
   0.67139745  0.51596542  0.67718809
   0.55761811  0.81599728  0.88663159
   0.78102627  0.17025563  0.77128079
   0.98474779  0.51596542  0.67718809
   0.88908363  0.81599728  0.88663159
   0.09805130  0.16704613  0.78828673
   0.00540605  0.74235274  0.00134957
   0.00026577  0.25757401  0.00444802
   0.88423002  0.09310579  0.22721747
   0.89521389  0.58565867  0.22048351
   0.09045332  0.41982616  0.15242670
   0.11440541  0.90372117  0.10452251
   0.32657771  0.74235274  0.00134957
   0.32861954  0.25757401  0.00444802
   0.22188583  0.09310579  0.22721747
   0.21763593  0.58565867  0.22048351
   0.44066870  0.42162343  0.10776345
   0.44574142  0.90329763  0.10582849
   0.67399710  0.73586369  0.98533914
   0.66342420  0.26284977  0.00648494
   0.55379278  0.09436195  0.22574778
   0.54880567  0.59448571  0.23572201
   0.78490119  0.42162343  0.10776345
   0.78176344  0.90329763  0.10582849
   0.65907403  0.73503170  0.33694563
   0.67783102  0.26013424  0.34094152
   0.55309713  0.07657310  0.55023296
   0.54948672  0.59403380  0.55160903
   0.76307794  0.41219015  0.43789321
   0.77730257  0.91987156  0.44370791
   0.00499828  0.74448414  0.32333677
   0.00606692  0.26492820  0.32119950
   0.89442900  0.07532484  0.54447532
   0.88397852  0.59533555  0.56537628
   0.13236219  0.41219015  0.43789321
   0.11232286  0.91987156  0.44370791
   0.33731368  0.73503170  0.33694563
   0.31456080  0.26013424  0.34094152
   0.23000325  0.07657310  0.55023296
   0.23223758  0.59403380  0.55160903
   0.43706754  0.40377852  0.45919825
   0.44103567  0.91624639  0.45126201
   0.33825140  0.73608178  0.65683053
   0.35347596  0.24789833  0.62638140
   0.22603347  0.08102986  0.88126639
   0.21620590  0.58507443  0.90092153
   0.44533589  0.41690918  0.77745707
   0.43715369  0.92001679  0.78220455
   0.67238567  0.73812289  0.67171493
   0.65571373  0.24703560  0.66736244
   0.55399515  0.07804352  0.89124650
   0.56512907  0.59500110  0.88386776
   0.78418334  0.41051590  0.76496666
   0.77335305  0.92442589  0.78662724
   0.98923273  0.73812289  0.67171493
   0.01025715  0.24703560  0.66736244
   0.88809168  0.07804352  0.89124650
   0.88433650  0.59500110  0.88386776
   0.11054037  0.41690918  0.77745707
   0.11397510  0.92001679  0.78220455
 
 position of ions in cartesian coordinates  (Angst):
   8.72949937 14.69720167  0.20182548
   8.62977072  5.00371981  1.58132778
   1.45561680  9.79507554  0.92047610
   2.91543547 14.69720167  0.20182548
   3.01516412  5.00371981  1.58132778
   5.82246746 14.68535277  0.15147357
   7.28539066 14.73436557  2.50150298
   7.35444450  4.97571253  4.48883824
   1.45561684 14.72869648  2.54730550
   4.35954435 14.73436557  2.50150298
   4.29049043  4.97571253  4.48883824
   5.82246742 14.71148870  5.16898891
   4.39845924  9.80749669  0.88611305
   5.82246751  4.96282122  1.72706860
   7.24647569  9.80749669  0.88611305
   8.73232393  9.83571550  3.48699333
  10.18931791  5.04511320  4.26526643
   2.91261099  9.83571550  3.48699333
   5.82246742  9.81867946  3.45862948
   5.82246738  5.09963559  6.85164708
   7.28675971  9.84345887  5.99251693
   8.74977837 14.72854746  5.18665046
   8.81324652  5.01032495  6.81343581
  10.18931804  9.85832144  6.00848488
  11.62885762 14.72854746  5.18665046
  11.56538947  5.01032495  6.81343581
   4.35817513  9.84345887  5.99251693
  13.00195929  7.57246745  7.59549327
   8.66581020 12.07847933  1.77618518
   1.45561684  2.55086483  0.86616444
   7.37667670  7.57246745  7.59549327
   2.97912463 12.07847933  1.77618518
   4.47100647  2.56976576  0.78297244
  10.18931804  7.52645454  7.68332749
   5.82246742 11.92865291  1.72124439
   7.17392846  2.56976576  0.78297244
   7.28192814  7.67129639  2.58305652
   7.33481712 11.98174680  4.29674222
   8.78533449  2.45907872  3.49724376
  10.18931799  7.53539406  2.72276963
  10.18931791 12.13615638  4.36754182
   2.85960044  2.45907872  3.49724376
   4.36300679  7.67129639  2.58305652
   4.31011772 11.98174680  4.29674222
   5.82246751  2.54232102  3.28940947
   5.82246742  7.70606396  5.19908918
   5.82246742 12.11219849  6.84608418
   7.34625373  2.49224187  6.05573814
   8.82096388  7.63260775  5.22977101
   8.74185760 12.06408745  6.85762952
  10.18931799  2.53893092  5.92559914
  11.55767211  7.63260775  5.22977101
  11.63677839 12.06408745  6.85762952
   4.29868111  2.49224187  6.05573814
   0.05310820 10.94536126  0.06517546
   0.02174499  3.79785815  0.05312475
   8.71482548  1.38120499  1.74883943
   8.78134912  8.64319570  1.73359269
   1.45561689  6.19561766  1.19958701
   1.45561684 13.32842575  0.86806924
   2.85812549 10.94536126  0.06517546
   2.88948869  3.79785815  0.05312475
   2.93010927  1.38120499  1.74883943
   2.86358571  8.64319570  1.73359269
   4.31925562  6.22045668  0.85730894
   4.35510956 13.32222959  0.87805026
  10.18931804 10.88625992  7.60845243
   5.82246746  3.87572011  0.06913046
   5.82246746  1.39967129  1.73766482
   5.82246751  8.77390871  1.85107060
   7.32567931  6.22045668  0.85730894
   7.28982546 13.32222959  0.87805026
   7.22754683 10.84989295  2.63748201
   7.40881423  3.84811347  2.63304133
   7.23337016  1.14945174  4.22401667
   7.20784701  8.77898687  4.27278513
   8.57670890  6.09364215  3.38755209
   8.72633449 13.57915559  3.46962702
   1.45561684 10.98875469  2.53384782
   1.45561689  3.91806223  2.48204321
  10.18931795  1.13083328  4.17978353
  10.18931795  8.79869170  4.37842790
   3.06822603  6.09364215  3.38755209
   2.91860043 13.57915559  3.46962702
   4.41738809 10.84989295  2.63748201
   4.23612069  3.84811347  2.63304133
   4.41156477  1.14945174  4.22401667
   4.43708783  8.77898687  4.27278513
   5.82246742  5.97041225  3.55026591
   5.82246751 13.52598656  3.52727278
   5.82246742 10.87726517  5.08995721
   5.82246738  3.67831566  4.82046251
   5.82246742  1.22746671  6.76221370
   5.82246742  8.65987271  6.95012776
   7.28446943  6.17584112  5.99116703
   7.23374007 13.59387840  6.06472231
   8.80569423 10.90791270  5.20421922
   8.64107981  3.66711871  5.13457994
   8.73036837  1.18380681  6.83850565
   8.79538684  8.80559850  6.82011819
  10.18931804  6.08111381  5.89493710
  10.18931804 13.65905093  6.09895451
  11.57294176 10.90791270  5.20421922
   3.00385494  3.66711871  5.13457994
  11.64826762  1.18380681  6.83850565
  11.58324914  8.80559850  6.82011819
   4.36046541  6.17584112  5.99116703
   4.41119485 13.59387840  6.06472231
 


--------------------------------------------------------------------------------------------------------


 use serial FFT for orbitals x direction half grid
 k-point  1 :   0.0000 0.0000 0.0000  plane waves:   12514

 maximum and minimum number of plane-waves per node :     12514    12514

 maximum number of plane-waves:     12514
 maximum index in each direction: 
   IXMAX=   15   IYMAX=   26   IZMAX=   16
   IXMIN=    0   IYMIN=  -26   IZMIN=  -13

 The following grids will avoid any aliasing or wrap around errors in the Hartre
 e energy
  - symmetry arguments have not been applied
  - exchange correlation energies might require even more grid points
  - we recommend to set PREC=Normal or Accurate and rely on VASP defaults
 NGX is ok and might be reduce to    64
 NGY is ok and might be reduce to   108
 NGZ is ok and might be reduce to    60

 serial   3D FFT for wavefunctions
 parallel 3D FFT for charge:
    minimum data exchange during FFTs selected (reduces bandwidth)


 total amount of memory used by VASP MPI-rank0   149790. kBytes
=======================================================================

   base      :      30000. kBytes
   nonlr-proj:      40351. kBytes
   fftplans  :       9349. kBytes
   grid      :      57131. kBytes
   one-center:       1679. kBytes
   wavefun   :      11280. kBytes
 
     INWAV:  cpu time    0.0000: real time    0.0000
 Broyden mixing: mesh for mixing (old mesh)
   NGX = 31   NGY = 53   NGZ = 33
  (NGX  =128   NGY  =216   NGZ  =128)
  gives a total of  54219 points

 initial charge density was supplied:
 charge density of overlapping atoms calculated
 number of electron     687.0000000 magnetization      37.5000000
 keeping initial charge density in first step


--------------------------------------------------------------------------------------------------------


 Maximum index for non-local projection operator         7641
 Maximum index for augmentation-charges         1567 (set IRDMAX)


--------------------------------------------------------------------------------------------------------


 First call to EWALD:  gamma=   0.178
 Maximum number of real-space cells 3x 2x 3
 Maximum number of reciprocal cells 2x 4x 2

    FEWALD:  cpu time    0.0040: real time    0.0040


--------------------------------------- Iteration      1(   1)  ---------------------------------------


    POTLOK:  cpu time    0.2344: real time    0.2363
    SETDIJ:  cpu time    0.0320: real time    0.0321
     EDDAV:  cpu time    3.8850: real time    4.1837
    --------------------------------------------
      LOOP:  cpu time    4.1519: real time    4.4526

 eigenvalue-minimisations  :  1728
 total energy-change (2. order) : 0.1181014E+05  (-0.3413860E+05)
 number of electron     687.0000000 magnetization      37.5000000
 augmentation part      687.0000000 magnetization      37.5000000

 Free energy of the ion-electron system (eV)
  ---------------------------------------------------
  alpha Z        PSCENC =      3287.27715466
  Ewald energy   TEWEN  =    -43924.39845924
  -Hartree energ DENC   =    -14025.07788964
  -exchange      EXHF   =         0.00000000
  -V(xc)+E(xc)   XCENC  =      2654.42786535
  PAW double counting   =     45116.95700157   -46413.98586228
  entropy T*S    EENTRO =        -0.00813518
  eigenvalues    EBANDS =      7702.05606281
  atomic energy  EATOM  =     57412.89542408
  Solvation  Ediel_sol  =         0.00000000
  ---------------------------------------------------
  free energy    TOTEN  =     11810.14316213 eV

  energy without entropy =    11810.15129731  energy(sigma->0) =    11810.14722972


--------------------------------------------------------------------------------------------------------




--------------------------------------- Iteration      1(   2)  ---------------------------------------


     EDDAV:  cpu time    4.0048: real time    4.0143
    --------------------------------------------
      LOOP:  cpu time    4.0047: real time    4.0142

 eigenvalue-minimisations  :  1792
 total energy-change (2. order) :-0.1016294E+05  (-0.9482187E+04)
 number of electron     687.0000000 magnetization      37.5000000
 augmentation part      687.0000000 magnetization      37.5000000

 Free energy of the ion-electron system (eV)
  ---------------------------------------------------
  alpha Z        PSCENC =      3287.27715466
  Ewald energy   TEWEN  =    -43924.39845924
  -Hartree energ DENC   =    -14025.07788964
  -exchange      EXHF   =         0.00000000
  -V(xc)+E(xc)   XCENC  =      2654.42786535
  PAW double counting   =     45116.95700157   -46413.98586228
  entropy T*S    EENTRO =        -0.02669441
  eigenvalues    EBANDS =     -2460.86985702
  atomic energy  EATOM  =     57412.89542408
  Solvation  Ediel_sol  =         0.00000000
  ---------------------------------------------------
  free energy    TOTEN  =      1647.19868308 eV

  energy without entropy =     1647.22537749  energy(sigma->0) =     1647.21203028


--------------------------------------------------------------------------------------------------------




--------------------------------------- Iteration      1(   3)  ---------------------------------------


     EDDAV:  cpu time    4.4208: real time    4.4314
    --------------------------------------------
      LOOP:  cpu time    4.4208: real time    4.4313

 eigenvalue-minimisations  :  1984
 total energy-change (2. order) :-0.2222657E+04  (-0.1969914E+04)
 number of electron     687.0000000 magnetization      37.5000000
 augmentation part      687.0000000 magnetization      37.5000000

 Free energy of the ion-electron system (eV)
  ---------------------------------------------------
  alpha Z        PSCENC =      3287.27715466
  Ewald energy   TEWEN  =    -43924.39845924
  -Hartree energ DENC   =    -14025.07788964
  -exchange      EXHF   =         0.00000000
  -V(xc)+E(xc)   XCENC  =      2654.42786535
  PAW double counting   =     45116.95700157   -46413.98586228
  entropy T*S    EENTRO =        -0.04910459
  eigenvalues    EBANDS =     -4683.50403464
  atomic energy  EATOM  =     57412.89542408
  Solvation  Ediel_sol  =         0.00000000
  ---------------------------------------------------
  free energy    TOTEN  =      -575.45790472 eV

  energy without entropy =     -575.40880013  energy(sigma->0) =     -575.43335243


--------------------------------------------------------------------------------------------------------




--------------------------------------- Iteration      1(   4)  ---------------------------------------


     EDDAV:  cpu time    4.7226: real time    4.7339
    --------------------------------------------
      LOOP:  cpu time    4.7226: real time    4.7340

 eigenvalue-minimisations  :  2128
 total energy-change (2. order) :-0.3215346E+03  (-0.3106299E+03)
 number of electron     687.0000000 magnetization      37.5000000
 augmentation part      687.0000000 magnetization      37.5000000

 Free energy of the ion-electron system (eV)
  ---------------------------------------------------
  alpha Z        PSCENC =      3287.27715466
  Ewald energy   TEWEN  =    -43924.39845924
  -Hartree energ DENC   =    -14025.07788964
  -exchange      EXHF   =         0.00000000
  -V(xc)+E(xc)   XCENC  =      2654.42786535
  PAW double counting   =     45116.95700157   -46413.98586228
  entropy T*S    EENTRO =        -0.05977252
  eigenvalues    EBANDS =     -5005.02796424
  atomic energy  EATOM  =     57412.89542408
  Solvation  Ediel_sol  =         0.00000000
  ---------------------------------------------------
  free energy    TOTEN  =      -896.99250226 eV

  energy without entropy =     -896.93272974  energy(sigma->0) =     -896.96261600


--------------------------------------------------------------------------------------------------------




--------------------------------------- Iteration      1(   5)  ---------------------------------------


     EDDAV:  cpu time    6.5213: real time    6.5368
    CHARGE:  cpu time    0.2990: real time    0.2997
    MIXING:  cpu time    0.0043: real time    0.0043
    --------------------------------------------
      LOOP:  cpu time    6.8242: real time    6.8405

 eigenvalue-minimisations  :  3184
 total energy-change (2. order) :-0.2771523E+02  (-0.2735211E+02)
 number of electron     687.0000002 magnetization      37.2530111
 augmentation part      186.0475400 magnetization      29.6288187

 Broyden mixing:
  rms(total) = 0.13370E+02    rms(broyden)= 0.13369E+02
  rms(prec ) = 0.14479E+02
  weight for this iteration     100.00

 Free energy of the ion-electron system (eV)
  ---------------------------------------------------
  alpha Z        PSCENC =      3287.27715466
  Ewald energy   TEWEN  =    -43924.39845924
  -Hartree energ DENC   =    -14025.07788964
  -exchange      EXHF   =         0.00000000
  -V(xc)+E(xc)   XCENC  =      2654.42786535
  PAW double counting   =     45116.95700157   -46413.98586228
  entropy T*S    EENTRO =        -0.04460794
  eigenvalues    EBANDS =     -5032.75836090
  atomic energy  EATOM  =     57412.89542408
  Solvation  Ediel_sol  =         0.00000000
  ---------------------------------------------------
  free energy    TOTEN  =      -924.70773434 eV

  energy without entropy =     -924.66312640  energy(sigma->0) =     -924.68543037


--------------------------------------------------------------------------------------------------------




--------------------------------------- Iteration      1(   6)  ---------------------------------------


    POTLOK:  cpu time    0.2061: real time    0.2066
    SETDIJ:  cpu time    0.0335: real time    0.0336
     EDDAV:  cpu time    5.3745: real time    5.3873
    CHARGE:  cpu time    0.2907: real time    0.2914
    MIXING:  cpu time    0.0079: real time    0.0409
    --------------------------------------------
      LOOP:  cpu time    5.9127: real time    5.9597

 eigenvalue-minimisations  :  2560
 total energy-change (2. order) :-0.2638481E+01  (-0.1486659E+03)
 number of electron     686.9999998 magnetization      34.8226787
 augmentation part      209.7833197 magnetization      30.8255450

 Broyden mixing:
  rms(total) = 0.17932E+02    rms(broyden)= 0.17932E+02
  rms(prec ) = 0.18916E+02
  weight for this iteration     100.00

 eigenvalues of (default mixing * dielectric matrix)
  average eigenvalue GAMMA=   0.2874
  0.2874

 Free energy of the ion-electron system (eV)
  ---------------------------------------------------
  alpha Z        PSCENC =      3287.27715466
  Ewald energy   TEWEN  =    -43924.39845924
  -Hartree energ DENC   =    -13836.81568292
  -exchange      EXHF   =         0.00000000
  -V(xc)+E(xc)   XCENC  =      2685.07847720
  PAW double counting   =     55598.77286095   -56768.99512233
  entropy T*S    EENTRO =        -0.02294912
  eigenvalues    EBANDS =     -5381.13791908
  atomic energy  EATOM  =     57412.89542408
  Solvation  Ediel_sol  =         0.00000000
  ---------------------------------------------------
  free energy    TOTEN  =      -927.34621580 eV

  energy without entropy =     -927.32326669  energy(sigma->0) =     -927.33474124


--------------------------------------------------------------------------------------------------------




--------------------------------------- Iteration      1(   7)  ---------------------------------------


    POTLOK:  cpu time    0.2236: real time    0.2241
    SETDIJ:  cpu time    0.0376: real time    0.0376
     EDDAV:  cpu time    5.5011: real time    5.5161
    CHARGE:  cpu time    0.3113: real time    0.3120
    MIXING:  cpu time    0.0054: real time    0.0088
    --------------------------------------------
      LOOP:  cpu time    6.0789: real time    6.0988

 eigenvalue-minimisations  :  2448
 total energy-change (2. order) : 0.1270235E+03  (-0.3567988E+02)
 number of electron     686.9999999 magnetization      30.7016657
 augmentation part      199.9255825 magnetization      27.8696910

 Broyden mixing:
  rms(total) = 0.84691E+01    rms(broyden)= 0.84686E+01
  rms(prec ) = 0.92288E+01
  weight for this iteration     100.00

 eigenvalues of (default mixing * dielectric matrix)
  average eigenvalue GAMMA=   0.5235
  0.5235  0.5235

 Free energy of the ion-electron system (eV)
  ---------------------------------------------------
  alpha Z        PSCENC =      3287.27715466
  Ewald energy   TEWEN  =    -43924.39845924
  -Hartree energ DENC   =    -14008.22080637
  -exchange      EXHF   =         0.00000000
  -V(xc)+E(xc)   XCENC  =      2677.52850085
  PAW double counting   =     58945.52928712   -60235.92980982
  entropy T*S    EENTRO =        -0.04716857
  eigenvalues    EBANDS =     -4954.95684657
  atomic energy  EATOM  =     57412.89542408
  Solvation  Ediel_sol  =         0.00000000
  ---------------------------------------------------
  free energy    TOTEN  =      -800.32272387 eV

  energy without entropy =     -800.27555530  energy(sigma->0) =     -800.29913958


--------------------------------------------------------------------------------------------------------




--------------------------------------- Iteration      1(   8)  ---------------------------------------


    POTLOK:  cpu time    0.2259: real time    0.2265
    SETDIJ:  cpu time    0.0380: real time    0.0381
     EDDAV:  cpu time    6.4894: real time    6.5050
    CHARGE:  cpu time    0.4128: real time    0.4138
    MIXING:  cpu time    0.0062: real time    0.0063
    --------------------------------------------
      LOOP:  cpu time    7.1724: real time    7.1896

 eigenvalue-minimisations  :  2208
 total energy-change (2. order) :-0.1270832E+03  (-0.4595666E+02)
 number of electron     686.9999998 magnetization      27.6046288
 augmentation part      177.9844280 magnetization      25.5123288

 Broyden mixing:
  rms(total) = 0.16531E+02    rms(broyden)= 0.16530E+02
  rms(prec ) = 0.20940E+02
  weight for this iteration     100.00

 eigenvalues of (default mixing * dielectric matrix)
  average eigenvalue GAMMA=   0.4915
  0.6297  0.6297  0.2150

 Free energy of the ion-electron system (eV)
  ---------------------------------------------------
  alpha Z        PSCENC =      3287.27715466
  Ewald energy   TEWEN  =    -43924.39845924
  -Hartree energ DENC   =    -14010.10987316
  -exchange      EXHF   =         0.00000000
  -V(xc)+E(xc)   XCENC  =      2668.53999650
  PAW double counting   =     63502.41383611   -64862.50681100
  entropy T*S    EENTRO =        -0.04616711
  eigenvalues    EBANDS =     -5001.47103855
  atomic energy  EATOM  =     57412.89542408
  Solvation  Ediel_sol  =         0.00000000
  ---------------------------------------------------
  free energy    TOTEN  =      -927.40593771 eV

  energy without entropy =     -927.35977060  energy(sigma->0) =     -927.38285416


--------------------------------------------------------------------------------------------------------




--------------------------------------- Iteration      1(   9)  ---------------------------------------


    POTLOK:  cpu time    0.2749: real time    0.2755
    SETDIJ:  cpu time    0.0403: real time    0.0404
     EDDAV:  cpu time    7.3047: real time    7.3221
    CHARGE:  cpu time    0.4330: real time    0.4341
    MIXING:  cpu time    0.0064: real time    0.0064
    --------------------------------------------
      LOOP:  cpu time    8.0593: real time    8.0785

 eigenvalue-minimisations  :  2320
 total energy-change (2. order) : 0.2946604E+02  (-0.7060510E+02)
 number of electron     687.0000017 magnetization      25.9586958
 augmentation part      195.7031354 magnetization      23.6776265

 Broyden mixing:
  rms(total) = 0.13282E+02    rms(broyden)= 0.13281E+02
  rms(prec ) = 0.17437E+02
  weight for this iteration     100.00

 eigenvalues of (default mixing * dielectric matrix)
  average eigenvalue GAMMA=   0.4443
  0.8461  0.5550  0.2528  0.1235

 Free energy of the ion-electron system (eV)
  ---------------------------------------------------
  alpha Z        PSCENC =      3287.27715466
  Ewald energy   TEWEN  =    -43924.39845924
  -Hartree energ DENC   =    -13868.16253233
  -exchange      EXHF   =         0.00000000
  -V(xc)+E(xc)   XCENC  =      2660.25981567
  PAW double counting   =     66760.35428876   -68118.06400019
  entropy T*S    EENTRO =        -0.03514668
  eigenvalues    EBANDS =     -5108.06644321
  atomic energy  EATOM  =     57412.89542408
  Solvation  Ediel_sol  =         0.00000000
  ---------------------------------------------------
  free energy    TOTEN  =      -897.93989848 eV

  energy without entropy =     -897.90475180  energy(sigma->0) =     -897.92232514


--------------------------------------------------------------------------------------------------------




--------------------------------------- Iteration      1(  10)  ---------------------------------------


    POTLOK:  cpu time    0.2756: real time    0.2762
    SETDIJ:  cpu time    0.0407: real time    0.0408
     EDDAV:  cpu time    7.2667: real time    7.2841
    CHARGE:  cpu time    0.4329: real time    0.4339
    MIXING:  cpu time    0.0070: real time    0.0070
    --------------------------------------------
      LOOP:  cpu time    8.0227: real time    8.0419

 eigenvalue-minimisations  :  2304
 total energy-change (2. order) : 0.1076097E+03  (-0.2998531E+02)
 number of electron     686.9999999 magnetization      19.3718953
 augmentation part      196.9852889 magnetization      17.2042551

 Broyden mixing:
  rms(total) = 0.55918E+01    rms(broyden)= 0.55902E+01
  rms(prec ) = 0.70256E+01
  weight for this iteration     100.00

 eigenvalues of (default mixing * dielectric matrix)
  average eigenvalue GAMMA=   0.5506
  1.5090  0.5774  0.3862  0.1402  0.1402

 Free energy of the ion-electron system (eV)
  ---------------------------------------------------
  alpha Z        PSCENC =      3287.27715466
  Ewald energy   TEWEN  =    -43924.39845924
  -Hartree energ DENC   =    -13870.75104543
  -exchange      EXHF   =         0.00000000
  -V(xc)+E(xc)   XCENC  =      2660.11975243
  PAW double counting   =     68256.00577072   -69626.62907315
  entropy T*S    EENTRO =        -0.06709268
  eigenvalues    EBANDS =     -4984.78259628
  atomic energy  EATOM  =     57412.89542408
  Solvation  Ediel_sol  =         0.00000000
  ---------------------------------------------------
  free energy    TOTEN  =      -790.33016489 eV

  energy without entropy =     -790.26307221  energy(sigma->0) =     -790.29661855


--------------------------------------------------------------------------------------------------------




--------------------------------------- Iteration      1(  11)  ---------------------------------------


    POTLOK:  cpu time    0.2733: real time    0.2739
    SETDIJ:  cpu time    0.0404: real time    0.0405
     EDDAV:  cpu time    7.5041: real time    7.5219
    CHARGE:  cpu time    0.4342: real time    0.4352
    MIXING:  cpu time    0.0067: real time    0.0067
    --------------------------------------------
      LOOP:  cpu time    8.2587: real time    8.2782

 eigenvalue-minimisations  :  2400
 total energy-change (2. order) :-0.5049430E+02  (-0.3144539E+02)
 number of electron     686.9999996 magnetization      17.9489142
 augmentation part      193.6816915 magnetization      16.7842739

 Broyden mixing:
  rms(total) = 0.10832E+02    rms(broyden)= 0.10832E+02
  rms(prec ) = 0.14758E+02
  weight for this iteration     100.00

 eigenvalues of (default mixing * dielectric matrix)
  average eigenvalue GAMMA=   0.5181
  1.6580  0.5455  0.3875  0.2892  0.1144  0.1144

 Free energy of the ion-electron system (eV)
  ---------------------------------------------------
  alpha Z        PSCENC =      3287.27715466
  Ewald energy   TEWEN  =    -43924.39845924
  -Hartree energ DENC   =    -13832.78962151
  -exchange      EXHF   =         0.00000000
  -V(xc)+E(xc)   XCENC  =      2659.78315891
  PAW double counting   =     73517.24285236   -74912.10990269
  entropy T*S    EENTRO =        -0.05103494
  eigenvalues    EBANDS =     -5048.67403561
  atomic energy  EATOM  =     57412.89542408
  Solvation  Ediel_sol  =         0.00000000
  ---------------------------------------------------
  free energy    TOTEN  =      -840.82446397 eV

  energy without entropy =     -840.77342903  energy(sigma->0) =     -840.79894650


--------------------------------------------------------------------------------------------------------




--------------------------------------- Iteration      1(  12)  ---------------------------------------


    POTLOK:  cpu time    0.2746: real time    0.2753
    SETDIJ:  cpu time    0.0409: real time    0.0410
     EDDAV:  cpu time    6.9728: real time    6.9893
    CHARGE:  cpu time    0.3892: real time    0.3901
    MIXING:  cpu time    0.0082: real time    0.0082
    --------------------------------------------
      LOOP:  cpu time    7.6857: real time    7.7039

 eigenvalue-minimisations  :  2176
 total energy-change (2. order) : 0.5032162E+02  (-0.1686905E+02)
 number of electron     687.0000001 magnetization      17.1774781
 augmentation part      194.1661422 magnetization      14.9532467

 Broyden mixing:
  rms(total) = 0.58202E+01    rms(broyden)= 0.58187E+01
  rms(prec ) = 0.70270E+01
  weight for this iteration     100.00

 eigenvalues of (default mixing * dielectric matrix)
  average eigenvalue GAMMA=   0.4998
  1.7249  0.4948  0.4948  0.4336  0.1399  0.1053  0.1053

 Free energy of the ion-electron system (eV)
  ---------------------------------------------------
  alpha Z        PSCENC =      3287.27715466
  Ewald energy   TEWEN  =    -43924.39845924
  -Hartree energ DENC   =    -13871.97130822
  -exchange      EXHF   =         0.00000000
  -V(xc)+E(xc)   XCENC  =      2661.57739720
  PAW double counting   =     74408.47678800   -75816.38956707
  entropy T*S    EENTRO =        -0.06499989
  eigenvalues    EBANDS =     -4947.90526975
  atomic energy  EATOM  =     57412.89542408
  Solvation  Ediel_sol  =         0.00000000
  ---------------------------------------------------
  free energy    TOTEN  =      -790.50284022 eV

  energy without entropy =     -790.43784033  energy(sigma->0) =     -790.47034028


--------------------------------------------------------------------------------------------------------




--------------------------------------- Iteration      1(  13)  ---------------------------------------


    POTLOK:  cpu time    0.2703: real time    0.2710
    SETDIJ:  cpu time    0.0414: real time    0.0415
     EDDAV:  cpu time    7.2844: real time    7.3017
    CHARGE:  cpu time    0.4359: real time    0.4369
    MIXING:  cpu time    0.0074: real time    0.0074
    --------------------------------------------
      LOOP:  cpu time    8.0394: real time    8.0585

 eigenvalue-minimisations  :  2352
 total energy-change (2. order) : 0.2463577E+01  (-0.1086673E+02)
 number of electron     686.9999992 magnetization      16.3043996
 augmentation part      192.9792153 magnetization      15.8584501

 Broyden mixing:
  rms(total) = 0.65708E+01    rms(broyden)= 0.65693E+01
  rms(prec ) = 0.84964E+01
  weight for this iteration     100.00

 eigenvalues of (default mixing * dielectric matrix)
  average eigenvalue GAMMA=   0.4657
  1.7275  0.5317  0.5317  0.4712  0.1206  0.1206  0.1243  0.0983

 Free energy of the ion-electron system (eV)
  ---------------------------------------------------
  alpha Z        PSCENC =      3287.27715466
  Ewald energy   TEWEN  =    -43924.39845924
  -Hartree energ DENC   =    -13890.24030943
  -exchange      EXHF   =         0.00000000
  -V(xc)+E(xc)   XCENC  =      2661.95465542
  PAW double counting   =     74565.45102813   -75978.04996204
  entropy T*S    EENTRO =        -0.06176429
  eigenvalues    EBANDS =     -4922.86703011
  atomic energy  EATOM  =     57412.89542408
  Solvation  Ediel_sol  =         0.00000000
  ---------------------------------------------------
  free energy    TOTEN  =      -788.03926282 eV

  energy without entropy =     -787.97749852  energy(sigma->0) =     -788.00838067


--------------------------------------------------------------------------------------------------------




--------------------------------------- Iteration      1(  14)  ---------------------------------------


    POTLOK:  cpu time    0.2741: real time    0.2747
    SETDIJ:  cpu time    0.0408: real time    0.0409
     EDDAV:  cpu time    7.3832: real time    7.4007
    CHARGE:  cpu time    0.4237: real time    0.4247
    MIXING:  cpu time    0.0080: real time    0.0080
    --------------------------------------------
      LOOP:  cpu time    8.1297: real time    8.1490

 eigenvalue-minimisations  :  2336
 total energy-change (2. order) : 0.4072422E+01  (-0.1114708E+02)
 number of electron     687.0000002 magnetization      15.6876110
 augmentation part      193.1368524 magnetization      14.8491885

 Broyden mixing:
  rms(total) = 0.54124E+01    rms(broyden)= 0.54110E+01
  rms(prec ) = 0.66211E+01
  weight for this iteration     100.00

 eigenvalues of (default mixing * dielectric matrix)
  average eigenvalue GAMMA=   0.4326
  1.7232  0.5635  0.5635  0.4620  0.1351  0.1351  0.1186  0.1186  0.0740

 Free energy of the ion-electron system (eV)
  ---------------------------------------------------
  alpha Z        PSCENC =      3287.27715466
  Ewald energy   TEWEN  =    -43924.39845924
  -Hartree energ DENC   =    -13905.44882170
  -exchange      EXHF   =         0.00000000
  -V(xc)+E(xc)   XCENC  =      2662.28018688
  PAW double counting   =     74597.27626599   -76009.34015409
  entropy T*S    EENTRO =        -0.06548237
  eigenvalues    EBANDS =     -4904.44295490
  atomic energy  EATOM  =     57412.89542408
  Solvation  Ediel_sol  =         0.00000000
  ---------------------------------------------------
  free energy    TOTEN  =      -783.96684069 eV

  energy without entropy =     -783.90135832  energy(sigma->0) =     -783.93409951


--------------------------------------------------------------------------------------------------------




--------------------------------------- Iteration      1(  15)  ---------------------------------------


    POTLOK:  cpu time    0.2460: real time    0.2466
    SETDIJ:  cpu time    0.0390: real time    0.0391
     EDDAV:  cpu time    7.6070: real time    7.6252
    CHARGE:  cpu time    0.4432: real time    0.4443
    MIXING:  cpu time    0.0084: real time    0.0084
    --------------------------------------------
      LOOP:  cpu time    8.3437: real time    8.3636

 eigenvalue-minimisations  :  2432
 total energy-change (2. order) : 0.6017482E+01  (-0.4879676E+01)
 number of electron     686.9999998 magnetization      15.0908220
 augmentation part      193.0353714 magnetization      13.1966319

 Broyden mixing:
  rms(total) = 0.41780E+01    rms(broyden)= 0.41756E+01
  rms(prec ) = 0.49931E+01
  weight for this iteration     100.00

 eigenvalues of (default mixing * dielectric matrix)
  average eigenvalue GAMMA=   0.4044
  1.7069  0.5841  0.5841  0.4301  0.1870  0.1870  0.1148  0.1148  0.0674  0.0674

 Free energy of the ion-electron system (eV)
  ---------------------------------------------------
  alpha Z        PSCENC =      3287.27715466
  Ewald energy   TEWEN  =    -43924.39845924
  -Hartree energ DENC   =    -13912.01680101
  -exchange      EXHF   =         0.00000000
  -V(xc)+E(xc)   XCENC  =      2662.35184158
  PAW double counting   =     74564.64179580   -75976.02281706
  entropy T*S    EENTRO =        -0.06885027
  eigenvalues    EBANDS =     -4892.60864746
  atomic energy  EATOM  =     57412.89542408
  Solvation  Ediel_sol  =         0.00000000
  ---------------------------------------------------
  free energy    TOTEN  =      -777.94935892 eV

  energy without entropy =     -777.88050865  energy(sigma->0) =     -777.91493379


--------------------------------------------------------------------------------------------------------




--------------------------------------- Iteration      1(  16)  ---------------------------------------


    POTLOK:  cpu time    0.2717: real time    0.2723
    SETDIJ:  cpu time    0.0403: real time    0.0404
     EDDAV:  cpu time    7.5798: real time    7.5977
    CHARGE:  cpu time    0.4394: real time    0.4404
    MIXING:  cpu time    0.0093: real time    0.0203
    --------------------------------------------
      LOOP:  cpu time    8.3405: real time    8.3712

 eigenvalue-minimisations  :  2480
 total energy-change (2. order) : 0.1921215E-01  (-0.2890033E+01)
 number of electron     686.9999999 magnetization      12.8880658
 augmentation part      193.4256324 magnetization      12.6087615

 Broyden mixing:
  rms(total) = 0.44079E+01    rms(broyden)= 0.44056E+01
  rms(prec ) = 0.53917E+01
  weight for this iteration     100.00

 eigenvalues of (default mixing * dielectric matrix)
  average eigenvalue GAMMA=   0.4004
  1.6729  0.6545  0.6545  0.3755  0.3755  0.2005  0.1226  0.1226  0.0834  0.0834
  0.0592

 Free energy of the ion-electron system (eV)
  ---------------------------------------------------
  alpha Z        PSCENC =      3287.27715466
  Ewald energy   TEWEN  =    -43924.39845924
  -Hartree energ DENC   =    -13912.52228060
  -exchange      EXHF   =         0.00000000
  -V(xc)+E(xc)   XCENC  =      2662.28943612
  PAW double counting   =     74607.54508118   -76015.74131211
  entropy T*S    EENTRO =        -0.05785150
  eigenvalues    EBANDS =     -4895.21733938
  atomic energy  EATOM  =     57412.89542408
  Solvation  Ediel_sol  =         0.00000000
  ---------------------------------------------------
  free energy    TOTEN  =      -777.93014678 eV

  energy without entropy =     -777.87229528  energy(sigma->0) =     -777.90122103


--------------------------------------------------------------------------------------------------------




--------------------------------------- Iteration      1(  17)  ---------------------------------------


    POTLOK:  cpu time    0.2741: real time    0.2747
    SETDIJ:  cpu time    0.0401: real time    0.0402
     EDDAV:  cpu time    7.3706: real time    7.3881
    CHARGE:  cpu time    0.3958: real time    0.3968
    MIXING:  cpu time    0.0085: real time    0.0085
    --------------------------------------------
      LOOP:  cpu time    8.0891: real time    8.1082

 eigenvalue-minimisations  :  2384
 total energy-change (2. order) : 0.4226684E-02  (-0.5573484E+01)
 number of electron     686.9999998 magnetization      11.8379284
 augmentation part      194.9569524 magnetization      12.5634538

 Broyden mixing:
  rms(total) = 0.34846E+01    rms(broyden)= 0.34828E+01
  rms(prec ) = 0.42357E+01
  weight for this iteration     100.00

 eigenvalues of (default mixing * dielectric matrix)
  average eigenvalue GAMMA=   0.3893
  1.6718  0.7047  0.5124  0.5124  0.3359  0.3359  0.1427  0.1132  0.1132  0.0889
  0.0889  0.0513

 Free energy of the ion-electron system (eV)
  ---------------------------------------------------
  alpha Z        PSCENC =      3287.27715466
  Ewald energy   TEWEN  =    -43924.39845924
  -Hartree energ DENC   =    -13911.66274670
  -exchange      EXHF   =         0.00000000
  -V(xc)+E(xc)   XCENC  =      2662.41990771
  PAW double counting   =     74979.28682998   -76381.19009160
  entropy T*S    EENTRO =        -0.09502404
  eigenvalues    EBANDS =     -4902.45891495
  atomic energy  EATOM  =     57412.89542408
  Solvation  Ediel_sol  =         0.00000000
  ---------------------------------------------------
  free energy    TOTEN  =      -777.92592009 eV

  energy without entropy =     -777.83089605  energy(sigma->0) =     -777.87840807


--------------------------------------------------------------------------------------------------------




--------------------------------------- Iteration      1(  18)  ---------------------------------------


    POTLOK:  cpu time    0.2742: real time    0.2748
    SETDIJ:  cpu time    0.0400: real time    0.0401
     EDDAV:  cpu time    7.2427: real time    7.2599
    CHARGE:  cpu time    0.4347: real time    0.4358
    MIXING:  cpu time    0.0098: real time    0.0099
    --------------------------------------------
      LOOP:  cpu time    8.0015: real time    8.0204

 eigenvalue-minimisations  :  2320
 total energy-change (2. order) : 0.1750057E+01  (-0.2753863E+01)
 number of electron     686.9999999 magnetization      11.5637282
 augmentation part      194.8754010 magnetization      12.2441481

 Broyden mixing:
  rms(total) = 0.29240E+01    rms(broyden)= 0.29228E+01
  rms(prec ) = 0.34793E+01
  weight for this iteration     100.00

 eigenvalues of (default mixing * dielectric matrix)
  average eigenvalue GAMMA=   0.3601
  1.6736  0.6891  0.5196  0.5196  0.3326  0.3326  0.1436  0.1131  0.1131  0.0883
  0.0883  0.0515  0.0159

 Free energy of the ion-electron system (eV)
  ---------------------------------------------------
  alpha Z        PSCENC =      3287.27715466
  Ewald energy   TEWEN  =    -43924.39845924
  -Hartree energ DENC   =    -13918.87848077
  -exchange      EXHF   =         0.00000000
  -V(xc)+E(xc)   XCENC  =      2662.87753179
  PAW double counting   =     75118.03144461   -76519.51537287
  entropy T*S    EENTRO =        -0.06366542
  eigenvalues    EBANDS =     -4894.40144025
  atomic energy  EATOM  =     57412.89542408
  Solvation  Ediel_sol  =         0.00000000
  ---------------------------------------------------
  free energy    TOTEN  =      -776.17586342 eV

  energy without entropy =     -776.11219799  energy(sigma->0) =     -776.14403071


--------------------------------------------------------------------------------------------------------




--------------------------------------- Iteration      1(  19)  ---------------------------------------


    POTLOK:  cpu time    0.2733: real time    0.2739
    SETDIJ:  cpu time    0.0407: real time    0.0408
     EDDAV:  cpu time    7.6528: real time    7.6709
    CHARGE:  cpu time    0.4398: real time    0.4408
    MIXING:  cpu time    0.0096: real time    0.0097
    --------------------------------------------
      LOOP:  cpu time    8.4162: real time    8.4362

 eigenvalue-minimisations  :  2512
 total energy-change (2. order) : 0.1376396E+01  (-0.9463370E+00)
 number of electron     687.0000000 magnetization      11.4992782
 augmentation part      194.5153019 magnetization      10.3910081

 Broyden mixing:
  rms(total) = 0.24938E+01    rms(broyden)= 0.24933E+01
  rms(prec ) = 0.28288E+01
  weight for this iteration     100.00

 eigenvalues of (default mixing * dielectric matrix)
  average eigenvalue GAMMA=   0.3453
  1.6692  0.7442  0.5058  0.5058  0.3308  0.3308  0.1117  0.1430  0.1142  0.1142
  0.0883  0.0883  0.0516  0.0364

 Free energy of the ion-electron system (eV)
  ---------------------------------------------------
  alpha Z        PSCENC =      3287.27715466
  Ewald energy   TEWEN  =    -43924.39845924
  -Hartree energ DENC   =    -13919.56875563
  -exchange      EXHF   =         0.00000000
  -V(xc)+E(xc)   XCENC  =      2662.96012321
  PAW double counting   =     75134.00819927   -76534.77936073
  entropy T*S    EENTRO =        -0.09415771
  eigenvalues    EBANDS =     -4893.09963531
  atomic energy  EATOM  =     57412.89542408
  Solvation  Ediel_sol  =         0.00000000
  ---------------------------------------------------
  free energy    TOTEN  =      -774.79946740 eV

  energy without entropy =     -774.70530969  energy(sigma->0) =     -774.75238854


--------------------------------------------------------------------------------------------------------




--------------------------------------- Iteration      1(  20)  ---------------------------------------


    POTLOK:  cpu time    0.2765: real time    0.2772
    SETDIJ:  cpu time    0.0409: real time    0.0410
     EDDAV:  cpu time    7.5793: real time    7.5973
    CHARGE:  cpu time    0.3645: real time    0.3654
    MIXING:  cpu time    0.0094: real time    0.0094
    --------------------------------------------
      LOOP:  cpu time    8.2706: real time    8.2902

 eigenvalue-minimisations  :  2432
 total energy-change (2. order) :-0.1649258E+00  (-0.2180354E+00)
 number of electron     686.9999999 magnetization      11.4992743
 augmentation part      194.7105931 magnetization      10.4370803

 Broyden mixing:
  rms(total) = 0.24874E+01    rms(broyden)= 0.24872E+01
  rms(prec ) = 0.27420E+01
  weight for this iteration     100.00

 eigenvalues of (default mixing * dielectric matrix)
  average eigenvalue GAMMA=   0.3253
  1.6701  0.7463  0.5055  0.5055  0.3315  0.3315  0.1298  0.1430  0.1138  0.1138
  0.0884  0.0884  0.0516  0.0301  0.0301

 Free energy of the ion-electron system (eV)
  ---------------------------------------------------
  alpha Z        PSCENC =      3287.27715466
  Ewald energy   TEWEN  =    -43924.39845924
  -Hartree energ DENC   =    -13919.23252644
  -exchange      EXHF   =         0.00000000
  -V(xc)+E(xc)   XCENC  =      2662.98673462
  PAW double counting   =     75146.25486311   -76546.58243104
  entropy T*S    EENTRO =        -0.10500815
  eigenvalues    EBANDS =     -4894.06014480
  atomic energy  EATOM  =     57412.89542408
  Solvation  Ediel_sol  =         0.00000000
  ---------------------------------------------------
  free energy    TOTEN  =      -774.96439319 eV

  energy without entropy =     -774.85938504  energy(sigma->0) =     -774.91188912


--------------------------------------------------------------------------------------------------------




--------------------------------------- Iteration      1(  21)  ---------------------------------------


    POTLOK:  cpu time    0.2643: real time    0.2649
    SETDIJ:  cpu time    0.0405: real time    0.0406
     EDDAV:  cpu time    7.8252: real time    7.8438
[...]
      5.82105      9.84217      3.46486        -0.000000      0.001759     -0.002492
      5.82105      5.19998      6.86447         0.000000      0.017415     -0.014645
      7.28475      9.86841      6.00102        -0.000370      0.000699     -0.002445
      8.74697     14.76438      5.19553        -0.000467     -0.002263     -0.003016
      8.80957      5.02878      6.82284         0.002823     -0.002821      0.000068
     10.18683      9.88427      6.01322        -0.000000      0.000370     -0.002549
     11.62669     14.76438      5.19553         0.000467     -0.002263     -0.003016
     11.56409      5.02878      6.82284        -0.002823     -0.002821      0.000068
      4.35735      9.86841      6.00102         0.000370      0.000699     -0.002445
     12.98358      7.60904      7.60666        -0.006004      0.003175     -0.000246
      8.66796     12.10844      1.77527         0.000632     -0.000799     -0.002257
      1.45526      2.57721      0.89607        -0.000000      0.013263      0.001208
      7.39008      7.60904      7.60666         0.006004      0.003175     -0.000246
      2.97413     12.10844      1.77527        -0.000632     -0.000799     -0.002257
      4.46925      2.58376      0.78572         0.005389      0.004045     -0.003459
     10.18683      7.56227      7.71439        -0.000000      0.001375      0.017120
      5.82105     11.95861      1.70568        -0.000000     -0.000754     -0.006138
      7.17285      2.58376      0.78572        -0.005389      0.004045     -0.003459
      7.27566      7.68761      2.61645         0.001677     -0.001671      0.004447
      7.32684     12.02001      4.29054         0.001669     -0.002401     -0.000001
      8.77337      2.45711      3.50826        -0.004778     -0.001448      0.006342
     10.18683      7.57303      2.73162        -0.000000      0.006337     -0.005838
     10.18683     12.17035      4.37094        -0.000000     -0.004091     -0.001398
      2.86872      2.45711      3.50826         0.004778     -0.001448      0.006342
      4.36643      7.68761      2.61645        -0.001677     -0.001671      0.004447
      4.31525     12.02001      4.29054        -0.001669     -0.002401     -0.000001
      5.82105      2.55459      3.29087        -0.000000      0.002829      0.004477
      5.82105      7.72741      5.20177         0.000000     -0.001256     -0.001567
      5.82105     12.14959      6.84770        -0.000000     -0.005273     -0.005929
      7.32353      2.50670      6.06999        -0.008914      0.004569      0.008961
      8.82420      7.63350      5.24084         0.003228     -0.004117      0.000969
      8.73625     12.10175      6.85595         0.001615     -0.004155     -0.002634
     10.18683      2.54654      5.91178        -0.000000     -0.002793     -0.009039
     11.54946      7.63350      5.24084        -0.003228     -0.004117      0.000969
     11.63741     12.10175      6.85595        -0.001615     -0.004155     -0.002634
      4.31856      2.50670      6.06999         0.008914      0.004569      0.008961
      0.05059     10.96775      0.07058         0.000515     -0.000573     -0.002614
      0.01318      3.82326      0.06609         0.002694      0.004680      0.009617
      8.71261      1.38197      1.74835         0.000617      0.004736     -0.002953
      8.78002      8.66168      1.74420         0.000044     -0.000460     -0.002834
      1.45526      6.19926      1.17551         0.000000     -0.002792      0.001542
      1.45526     13.36073      0.87345         0.000000      0.004115     -0.002390
      2.85994     10.96775      0.07058        -0.000515     -0.000573     -0.002614
      2.89735      3.82326      0.06609        -0.002694      0.004680      0.009617
      2.92948      1.38197      1.74835        -0.000617      0.004736     -0.002953
      2.86207      8.66168      1.74420        -0.000044     -0.000460     -0.002834
      4.31648      6.23550      0.84349         0.000011     -0.013162      0.000841
      4.35173     13.35784      0.88011        -0.000517      0.000136     -0.003171
     10.18683     10.91279      7.61429        -0.000000      0.001772     -0.004026
      5.82105      3.89994      0.09034         0.000000     -0.002503      0.005712
      5.82105      1.40300      1.73425        -0.000000      0.000590     -0.001501
      5.82105      8.78495      1.86146        -0.000000     -0.000517     -0.000853
      7.32561      6.23550      0.84349        -0.000011     -0.013162      0.000841
      7.29036     13.35784      0.88011         0.000517      0.000136     -0.003171
      7.22545     10.87704      2.63873         0.000813      0.001122     -0.002859
      7.41771      3.85488      2.65254         0.000921     -0.000799      0.010975
      7.23267      1.14407      4.21915        -0.000512     -0.002131     -0.004122
      7.20627      8.80334      4.28429        -0.000434      0.002604     -0.000118
      8.54837      6.11688      3.39418        -0.009903      0.007766      0.001353
      8.72307     13.61505      3.47438         0.000241      0.002615     -0.004339
      1.45526     11.01066      2.54083        -0.000000     -0.001076     -0.002516
      1.45526      3.93521      2.48359        -0.000000     -0.003636      0.004762
     10.18683      1.12599      4.17497         0.000000      0.002510     -0.002326
     10.18683      8.81386      4.38919        -0.000000      0.001147      0.000607
      3.09372      6.11688      3.39418         0.009903      0.007766      0.001353
      2.91902     13.61505      3.47438        -0.000241      0.002615     -0.004339
      4.41664     10.87704      2.63873        -0.000813      0.001122     -0.002859
      4.22439      3.85488      2.65254        -0.000921     -0.000799      0.010975
      4.40942      1.14407      4.21915         0.000512     -0.002131     -0.004122
      4.43582      8.80334      4.28429         0.000434      0.002604     -0.000118
      5.82105      5.97456      3.56556        -0.000000     -0.006873      0.009434
      5.82105     13.55571      3.53765        -0.000000      0.006147     -0.002991
      5.82105     10.90356      5.09870         0.000000      0.002862     -0.002434
      5.82105      3.67069      4.83241        -0.000000     -0.003963      0.012338
      5.82105      1.23565      6.75787         0.000000     -0.002684     -0.002767
      5.82105      8.68288      6.95389        -0.000000      0.000481     -0.001090
      7.29958      6.21505      5.99720         0.012428      0.002494      0.003506
      7.23146     13.63242      6.07470        -0.001466      0.000190     -0.001960
      8.80325     10.93682      5.20664         0.000806      0.001045     -0.003151
      8.62843      3.67874      5.17341        -0.008770     -0.013376      0.016906
      8.72507      1.18510      6.83635        -0.000456     -0.003064     -0.003185
      8.79228      8.82998      6.82622         0.001980      0.003276     -0.002145
     10.18683      6.07214      5.87264        -0.000000     -0.007437     -0.009644
     10.18683     13.70033      6.11020         0.000000     -0.002302     -0.002816
     11.57041     10.93682      5.20664        -0.000806      0.001045     -0.003151
      3.01366      3.67874      5.17341         0.008770     -0.013376      0.016906
     11.64859      1.18510      6.83635         0.000456     -0.003064     -0.003185
     11.58138      8.82998      6.82622        -0.001980      0.003276     -0.002145
      4.34251      6.21505      5.99720        -0.012428      0.002494      0.003506
      4.41063     13.63242      6.07470         0.001466      0.000190     -0.001960
 -----------------------------------------------------------------------------------
    total drift:                                0.004898     -0.013106      0.017100


--------------------------------------------------------------------------------------------------------



  FREE ENERGIE OF THE ION-ELECTRON SYSTEM (eV)
  ---------------------------------------------------
  free  energy   TOTEN  =      -779.6177296333 eV

  energy  without entropy=     -779.5904915900  energy(sigma->0) =     -779.60411061
 
 d Force = 0.1855007E-03[ 0.148E-03, 0.223E-03]  d Energy = 0.1873358E-03-0.184E-05
 d Force = 0.1341035E+00[ 0.134E+00, 0.135E+00]  d Ewald  =-0.8625312E+00 0.997E+00


--------------------------------------------------------------------------------------------------------


    POTLOK:  cpu time    0.2303: real time    0.2308


--------------------------------------------------------------------------------------------------------


 Quasi-Newton relaxation of ions (Broydens 2nd method)
  g(Force)  = 0.423E-03   g(Stress)= 0.299E-05

 retain information from N=  1 steps
 eigenvalues of (default step * inverse Hessian matrix)
  average eigenvalue of G=   0.3784
 eigenvalue spectrum of G is  0.3784


--------------------------------------------------------------------------------------------------------


     LOOP+:  cpu time   58.2345: real time   58.4255
    4ORBIT:  cpu time    0.0000: real time    0.0000

volume of typ            1:    12.2 %

volume of typ            2:     9.7 %

volume of typ            3:    21.3 %

volume of typ            4:     8.9 %
 
total charge     
 
# of ion       s       p       d       tot
------------------------------------------
    1        0.230   6.086   2.222   8.538
    2        0.287   6.177   1.969   8.434
    3        0.292   6.188   1.906   8.386
    4        0.230   6.086   2.222   8.538
    5        0.287   6.177   1.969   8.434
    6        0.242   6.098   2.153   8.493
    7        0.229   6.086   2.222   8.537
    8        0.283   6.168   1.979   8.430
    9        0.242   6.097   2.153   8.492
   10        0.229   6.086   2.222   8.537
   11        0.283   6.168   1.979   8.430
   12        0.277   6.161   1.948   8.385
   13        0.219   0.250   7.895   8.363
   14        0.196   0.215   7.982   8.393
   15        0.219   0.250   7.895   8.363
   16        0.219   0.251   7.893   8.363
   17        0.196   0.212   8.010   8.418
   18        0.219   0.251   7.893   8.363
   19        0.267   0.351   7.831   8.450
   20        0.197   0.206   8.064   8.467
   21        0.219   0.252   7.894   8.366
   22        0.206   0.230   7.930   8.366
   23        0.214   0.242   7.919   8.375
   24        0.268   0.354   7.826   8.448
   25        0.206   0.230   7.930   8.366
   26        0.214   0.242   7.919   8.375
   27        0.219   0.252   7.894   8.366
   28        2.085   0.282   0.109   2.477
   29        2.084   0.281   0.111   2.476
   30        2.079   0.273   0.108   2.461
   31        2.085   0.282   0.109   2.477
   32        2.084   0.281   0.111   2.476
   33        2.081   0.270   0.105   2.455
   34        2.070   0.233   0.086   2.390
   35        2.082   0.270   0.104   2.456
   36        2.081   0.270   0.105   2.455
   37        2.086   0.283   0.110   2.480
   38        2.076   0.251   0.093   2.420
   39        2.077   0.261   0.102   2.441
   40        2.080   0.271   0.103   2.454
   41        2.071   0.236   0.088   2.394
   42        2.077   0.261   0.102   2.441
   43        2.086   0.283   0.110   2.480
   44        2.076   0.251   0.093   2.420
   45        2.094   0.307   0.127   2.528
   46        2.088   0.287   0.112   2.487
   47        2.082   0.279   0.109   2.470
   48        2.078   0.260   0.101   2.439
   49        2.081   0.262   0.097   2.440
   50        2.080   0.264   0.102   2.446
   51        2.064   0.220   0.082   2.366
   52        2.081   0.262   0.097   2.440
   53        2.080   0.264   0.102   2.446
   54        2.078   0.260   0.101   2.439
   55        1.247   2.842   0.005   4.094
   56        1.252   2.826   0.005   4.084
   57        1.245   2.838   0.007   4.090
   58        1.249   2.840   0.005   4.093
   59        1.256   2.851   0.006   4.113
   60        1.249   2.835   0.007   4.091
   61        1.247   2.842   0.005   4.094
   62        1.252   2.826   0.005   4.084
   63        1.245   2.838   0.007   4.090
   64        1.249   2.840   0.005   4.093
   65        1.257   2.822   0.006   4.084
   66        1.248   2.836   0.007   4.090
   67        1.251   2.804   0.005   4.060
   68        1.244   2.812   0.004   4.060
   69        1.242   2.851   0.006   4.099
   70        1.251   2.802   0.005   4.057
   71        1.257   2.822   0.006   4.084
   72        1.248   2.836   0.007   4.090
   73        1.250   2.804   0.004   4.059
   74        1.249   2.850   0.005   4.104
   75        1.247   2.840   0.005   4.092
   76        1.253   2.800   0.004   4.057
   77        1.251   2.848   0.006   4.105
   78        1.247   2.830   0.006   4.083
   79        1.248   2.836   0.005   4.089
   80        1.244   2.850   0.005   4.099
   81        1.243   2.829   0.004   4.076
   82        1.248   2.807   0.004   4.060
   83        1.251   2.848   0.006   4.105
   84        1.247   2.830   0.006   4.083
   85        1.250   2.804   0.004   4.059
   86        1.249   2.850   0.005   4.104
   87        1.247   2.840   0.005   4.092
   88        1.253   2.800   0.004   4.057
   89        1.249   2.849   0.005   4.103
   90        1.250   2.839   0.007   4.095
   91        1.251   2.796   0.004   4.051
   92        1.250   2.857   0.005   4.112
   93        1.243   2.849   0.006   4.098
   94        1.246   2.844   0.004   4.094
   95        1.255   2.825   0.007   4.087
   96        1.249   2.836   0.006   4.091
   97        1.251   2.803   0.004   4.058
   98        1.254   2.832   0.005   4.090
   99        1.244   2.838   0.005   4.088
  100        1.249   2.805   0.004   4.059
  101        1.248   2.796   0.005   4.050
  102        1.248   2.819   0.005   4.072
  103        1.251   2.803   0.004   4.058
  104        1.254   2.832   0.005   4.090
  105        1.244   2.838   0.005   4.088
  106        1.249   2.805   0.004   4.059
  107        1.255   2.825   0.007   4.087
  108        1.249   2.836   0.006   4.091
--------------------------------------------------
tot         130.01  237.33  146.79  514.12
 
magnetization (x)
 
# of ion       s       p       d       tot
------------------------------------------
    1       -0.001  -0.001  -0.124  -0.126
    2       -0.000  -0.000  -0.016  -0.017
    3        0.000   0.000   0.003   0.004
    4       -0.001  -0.001  -0.124  -0.126
    5       -0.000  -0.000  -0.016  -0.017
    6        0.000  -0.001  -0.068  -0.069
    7       -0.001  -0.001  -0.111  -0.114
    8       -0.000   0.000  -0.005  -0.005
    9       -0.000  -0.001  -0.068  -0.069
   10       -0.001  -0.001  -0.111  -0.114
   11       -0.000   0.000  -0.005  -0.005
   12        0.000   0.001  -0.009  -0.009
   13       -0.001  -0.000  -1.460  -1.461
   14        0.007   0.002   1.255   1.264
   15       -0.001  -0.000  -1.460  -1.461
   16        0.003   0.001   1.457   1.461
   17        0.011   0.004   1.093   1.107
   18        0.003   0.001   1.457   1.461
   19        0.001   0.001  -0.061  -0.059
   20        0.000   0.002   0.870   0.872
   21       -0.002  -0.001  -1.422  -1.425
   22       -0.001  -0.001  -1.470  -1.473
   23       -0.004  -0.004  -1.430  -1.438
   24        0.001   0.001  -0.079  -0.077
   25       -0.001  -0.001  -1.470  -1.473
   26       -0.004  -0.004  -1.430  -1.438
   27       -0.002  -0.001  -1.422  -1.425
   28       -0.000   0.001   0.001   0.001
   29       -0.001  -0.001  -0.000  -0.002
   30       -0.001  -0.002  -0.001  -0.004
   31       -0.000   0.001   0.001   0.001
   32       -0.001  -0.001  -0.000  -0.002
   33       -0.003  -0.004  -0.001  -0.008
   34       -0.002  -0.004  -0.000  -0.006
   35        0.004   0.007   0.002   0.012
   36       -0.003  -0.004  -0.001  -0.008
   37       -0.004  -0.010  -0.002  -0.016
   38       -0.004  -0.006  -0.001  -0.012
   39       -0.002  -0.004  -0.001  -0.007
   40       -0.003  -0.005  -0.001  -0.009
   41       -0.004  -0.009  -0.002  -0.015
   42       -0.002  -0.004  -0.001  -0.007
   43       -0.004  -0.010  -0.002  -0.016
   44       -0.004  -0.006  -0.001  -0.012
   45       -0.002  -0.004  -0.001  -0.008
   46        0.004   0.010   0.002   0.015
   47       -0.004  -0.009  -0.002  -0.015
   48        0.000   0.002   0.000   0.002
   49       -0.001  -0.002  -0.001  -0.003
   50       -0.000  -0.000  -0.000  -0.000
   51        0.001   0.003   0.001   0.005
   52       -0.001  -0.002  -0.001  -0.003
   53       -0.000  -0.000  -0.000  -0.000
   54        0.000   0.002   0.000   0.002
   55       -0.009  -0.088  -0.000  -0.098
   56       -0.001  -0.015  -0.000  -0.016
   57       -0.000  -0.018  -0.000  -0.019
   58       -0.000  -0.003  -0.000  -0.003
   59       -0.000   0.004  -0.000   0.004
   60       -0.000  -0.025  -0.000  -0.026
   61       -0.009  -0.088  -0.000  -0.098
   62       -0.001  -0.015  -0.000  -0.016
   63       -0.000  -0.018  -0.000  -0.019
   64       -0.000  -0.003  -0.000  -0.003
   65       -0.002  -0.020  -0.000  -0.022
   66       -0.000  -0.020  -0.000  -0.021
   67       -0.015  -0.171  -0.000  -0.186
   68       -0.007  -0.097  -0.000  -0.104
   69       -0.000  -0.016  -0.000  -0.017
   70       -0.014  -0.158  -0.000  -0.173
   71       -0.002  -0.020  -0.000  -0.022
   72       -0.000  -0.020  -0.000  -0.021
   73       -0.000   0.004   0.000   0.004
   74        0.004   0.036   0.000   0.040
   75       -0.004  -0.044  -0.000  -0.048
   76        0.000   0.006   0.000   0.006
   77        0.003   0.026  -0.000   0.029
   78       -0.005  -0.071  -0.000  -0.076
   79        0.009   0.081   0.000   0.090
   80        0.003   0.027   0.000   0.030
   81       -0.009  -0.118  -0.000  -0.128
   82        0.012   0.130   0.000   0.142
   83        0.003   0.026  -0.000   0.029
   84       -0.005  -0.071  -0.000  -0.076
   85       -0.000   0.004   0.000   0.004
   86        0.004   0.036   0.000   0.040
   87       -0.004  -0.044  -0.000  -0.048
   88        0.000   0.006   0.000   0.006
   89        0.003   0.026   0.000   0.029
   90       -0.000  -0.009  -0.000  -0.009
   91       -0.012  -0.110  -0.000  -0.122
   92       -0.001  -0.008  -0.000  -0.009
   93       -0.000  -0.007  -0.000  -0.007
   94       -0.009  -0.086  -0.000  -0.095
   95       -0.001  -0.015   0.000  -0.016
   96       -0.004  -0.041  -0.000  -0.045
   97       -0.001   0.005  -0.000   0.004
   98       -0.002  -0.029  -0.000  -0.031
   99       -0.005  -0.066  -0.000  -0.071
  100       -0.012  -0.121  -0.000  -0.133
  101       -0.007  -0.126  -0.000  -0.133
  102       -0.009  -0.131  -0.000  -0.140
  103       -0.001   0.005  -0.000   0.004
  104       -0.002  -0.029  -0.000  -0.031
  105       -0.005  -0.066  -0.000  -0.071
  106       -0.012  -0.121  -0.000  -0.133
  107       -0.001  -0.015   0.000  -0.016
  108       -0.004  -0.041  -0.000  -0.045
--------------------------------------------------
tot          -0.16   -1.81   -6.25   -8.23
 

 total amount of memory used by VASP MPI-rank0   149790. kBytes
=======================================================================

   base      :      30000. kBytes
   nonlr-proj:      40351. kBytes
   fftplans  :       9349. kBytes
   grid      :      57131. kBytes
   one-center:       1679. kBytes
   wavefun   :      11280. kBytes
 
  
  
 General timing and accounting informations for this job:
 ========================================================
  
                  Total CPU time used (sec):     4469.480
                            User time (sec):     4452.233
                          System time (sec):       17.247
                         Elapsed time (sec):     4486.061
  
                   Maximum memory used (kb):      225008.
                   Average memory used (kb):           0.
  
                          Minor page faults:        41311
                          Major page faults:           70
                 Voluntary context switches:         1409
