 vasp.5.4.4.18Apr17-6-g9f103f2a35 (build May 12 2020 05:39:39) gamma-only       
  
 MD_VERSION_INFO: Compiled 2020-05-12T12:39:39-UTC in devlin.sd.materialsdesign.
 com:/home/medea2/data/build/wwolf/vasp-gpu5.4.4/13047/x86_64/src/src/build/gam 
 from svn 13047
 
 This VASP executable licensed from Materials Design, Inc.
 
 executed on                        Lin64 date 2023.04.01  04:05:16
 running on   16 total cores
 distrk:  each k-point on   16 cores,    1 groups
 distr:  one band on NCORES_PER_BAND=   1 cores,   16 groups


--------------------------------------------------------------------------------------------------------


 INCAR:
 POTCAR:    PAW_PBE Ta_pv 07Sep2000               
 POTCAR:    PAW_PBE Ni 02Aug2007                  
 POTCAR:    PAW_PBE Li_sv 10Sep2004               
 POTCAR:    PAW_PBE O 08Apr2002                   

 ----------------------------------------------------------------------------- 
|                                                                             |
|           W    W    AA    RRRRR   N    N  II  N    N   GGGG   !!!           |
|           W    W   A  A   R    R  NN   N  II  NN   N  G    G  !!!           |
|           W    W  A    A  R    R  N N  N  II  N N  N  G       !!!           |
|           W WW W  AAAAAA  RRRRR   N  N N  II  N  N N  G  GGG   !            |
|           WW  WW  A    A  R   R   N   NN  II  N   NN  G    G                |
|           W    W  A    A  R    R  N    N  II  N    N   GGGG   !!!           |
|                                                                             |
|      For optimal performance we recommend to set                            |
|        NCORE= 4 - approx SQRT( number of cores)                             |
|      NCORE specifies how many cores store one orbital (NPAR=cpu/NCORE).     |
|      This setting can  greatly improve the performance of VASP for DFT.     |
|      The default,   NCORE=1            might be grossly inefficient         |
|      on modern multi-core architectures or massively parallel machines.     |
|      Do your own testing !!!!                                               |
|      Unfortunately you need to use the default for GW and RPA calculations. |
|      (for HF NCORE is supported but not extensively tested yet)             |
|                                                                             |
 ----------------------------------------------------------------------------- 

 POTCAR:    PAW_PBE Ta_pv 07Sep2000               
  local pseudopotential read in
  partial core-charges read in
  partial kinetic energy density read in
  atomic valenz-charges read in
  non local Contribution for L=           1  read in
    real space projection operators read in
  non local Contribution for L=           1  read in
    real space projection operators read in
  non local Contribution for L=           2  read in
    real space projection operators read in
  non local Contribution for L=           2  read in
    real space projection operators read in
  non local Contribution for L=           0  read in
    real space projection operators read in
  non local Contribution for L=           0  read in
    real space projection operators read in
    PAW grid and wavefunctions read in
 
   number of l-projection  operators is LMAX  =           6
   number of lm-projection operators is LMMAX =          18
 
 POTCAR:    PAW_PBE Ni 02Aug2007                  
  local pseudopotential read in
  partial core-charges read in
  partial kinetic energy density read in
  atomic valenz-charges read in
  non local Contribution for L=           2  read in
    real space projection operators read in
  non local Contribution for L=           2  read in
    real space projection operators read in
  non local Contribution for L=           0  read in
    real space projection operators read in
  non local Contribution for L=           0  read in
    real space projection operators read in
  non local Contribution for L=           1  read in
    real space projection operators read in
  non local Contribution for L=           1  read in
    real space projection operators read in
    PAW grid and wavefunctions read in
 
   number of l-projection  operators is LMAX  =           6
   number of lm-projection operators is LMMAX =          18
 
 POTCAR:    PAW_PBE Li_sv 10Sep2004               
  local pseudopotential read in
  atomic valenz-charges read in
  non local Contribution for L=           0  read in
    real space projection operators read in
  non local Contribution for L=           0  read in
    real space projection operators read in
  non local Contribution for L=           1  read in
    real space projection operators read in
    PAW grid and wavefunctions read in
 
   number of l-projection  operators is LMAX  =           3
   number of lm-projection operators is LMMAX =           5
 
 POTCAR:    PAW_PBE O 08Apr2002                   
  local pseudopotential read in
  partial core-charges read in
  partial kinetic energy density read in
  kinetic energy density of atom read in
  atomic valenz-charges read in
  non local Contribution for L=           0  read in
    real space projection operators read in
  non local Contribution for L=           0  read in
    real space projection operators read in
  non local Contribution for L=           1  read in
    real space projection operators read in
  non local Contribution for L=           1  read in
    real space projection operators read in
    PAW grid and wavefunctions read in
 
   number of l-projection  operators is LMAX  =           4
   number of lm-projection operators is LMMAX =           8
 
 Optimization of the real space projectors (new method)

 maximal supplied QI-value         = 15.12
 optimisation between [QCUT,QGAM] = [ 11.34, 22.83] = [ 36.00,145.93] Ry 
 Optimized for a Real-space Cutoff    1.61 Angstroem

   l    n(q)    QCUT    max X(q) W(low)/X(q) W(high)/X(q)  e(spline) 
   1     11    11.338     4.092    0.40E-05    0.64E-05    0.47E-07
   1     11    11.338     4.834    0.13E-04    0.44E-04    0.21E-06
   2     10    11.338    62.294    0.15E-03    0.31E-03    0.77E-06
   2     10    11.338    50.966    0.15E-03    0.31E-03    0.77E-06
   0     11    11.338   103.792    0.33E-04    0.19E-04    0.90E-07
   0     11    11.338    56.335    0.26E-04    0.17E-04    0.79E-07
 Optimization of the real space projectors (new method)

 maximal supplied QI-value         = 16.25
 optimisation between [QCUT,QGAM] = [ 11.38, 22.75] = [ 36.24,144.96] Ry 
 Optimized for a Real-space Cutoff    1.47 Angstroem

   l    n(q)    QCUT    max X(q) W(low)/X(q) W(high)/X(q)  e(spline) 
   2      9    11.376    60.317    0.17E-03    0.16E-04    0.16E-06
   2      9    11.376    55.921    0.17E-03    0.16E-04    0.17E-06
   0     10    11.376    51.690    0.45E-04    0.60E-04    0.21E-06
   0     10    11.376    30.015    0.37E-04    0.55E-04    0.19E-06
   1     10    11.376    18.849    0.83E-04    0.11E-03    0.92E-07
   1     10    11.376    14.624    0.69E-04    0.92E-04    0.82E-07
 Optimization of the real space projectors (new method)

 maximal supplied QI-value         = 22.11
 optimisation between [QCUT,QGAM] = [ 11.28, 22.77] = [ 35.61,145.23] Ry 
 Optimized for a Real-space Cutoff    1.10 Angstroem

   l    n(q)    QCUT    max X(q) W(low)/X(q) W(high)/X(q)  e(spline) 
   0      7    11.276    10.506    0.54E-04    0.58E-04    0.16E-07
   0      7    11.276     8.367    0.11E-03    0.14E-03    0.35E-07
   1      7    11.276     8.983    0.23E-03    0.43E-03    0.86E-07
 Optimization of the real space projectors (new method)

 maximal supplied QI-value         = 24.76
 optimisation between [QCUT,QGAM] = [ 11.39, 22.77] = [ 36.31,145.25] Ry 
 Optimized for a Real-space Cutoff    1.10 Angstroem

   l    n(q)    QCUT    max X(q) W(low)/X(q) W(high)/X(q)  e(spline) 
   0      7    11.387    20.381    0.22E-03    0.48E-03    0.18E-06
   0      7    11.387    15.268    0.22E-03    0.52E-03    0.19E-06
   1      7    11.387     5.964    0.22E-03    0.73E-03    0.24E-06
   1      7    11.387     5.382    0.19E-03    0.60E-03    0.21E-06

 ----------------------------------------------------------------------------- 
|                                                                             |
|  ADVICE TO THIS USER RUNNING 'VASP/VAMP'   (HEAR YOUR MASTER'S VOICE ...):  |
|                                                                             |
|      You enforced a specific xc-type in the INCAR file,                     |
|      a different type was found on the POTCAR file                          |
|          I HOPE YOU KNOW, WHAT YOU ARE  DOING                               |
|                                                                             |
 ----------------------------------------------------------------------------- 

  PAW_PBE Ta_pv 07Sep2000               :
 energy of atom  1       EATOM=-1047.1984
 kinetic energy error for atom=    0.0019 (will be added to EATOM!!)
  PAW_PBE Ni 02Aug2007                  :
 energy of atom  2       EATOM=-1077.6739
 kinetic energy error for atom=    0.0030 (will be added to EATOM!!)
  PAW_PBE Li_sv 10Sep2004               :
 energy of atom  3       EATOM= -202.7858
 kinetic energy error for atom=    0.0143 (will be added to EATOM!!)
  PAW_PBE O 08Apr2002                   :
 energy of atom  4       EATOM= -432.3788
 kinetic energy error for atom=    0.0224 (will be added to EATOM!!)
 
 
 POSCAR: ce345471_1                              
  positions in direct lattice
  No initial velocities read in
 exchange correlation table for  LEXCH =       14
   RHO(1)=    0.500       N(1)  =     2000
   RHO(2)=  100.500       N(2)  =     4000
 


--------------------------------------------------------------------------------------------------------


 ion  position               nearest neighbor table
   1  0.989  0.997  0.017-  60 2.01 105 2.04  72 2.06  93 2.06 108 2.07  57 2.09   7 2.69  18 2.82
                            36 3.05  14 3.07   4 3.07  22 3.08  11 3.09
   2  0.900  0.337  0.233-  80 1.92  77 1.93  59 1.94  74 2.08  56 2.09  71 2.13  13 2.81  19 2.82
                            40 2.85  39 2.96  30 2.97  16 2.99  23 3.01  36 3.09   6 3.23  12 3.26
   3  0.102  0.663  0.099-  94 1.92  55 1.93  58 1.94  61 2.07  79 2.12  64 2.13  27 2.81  15 2.82
                            28 2.85  29 2.93  24 2.97  47 3.01  17 3.02  32 3.06   5 3.23   8 3.28
   4  0.337  0.002  0.014-  99 2.04  60 2.04  63 2.05  96 2.08  93 2.08  66 2.08   9 2.69  14 2.79
                            18 2.98  33 2.98  30 3.01  32 3.02  10 3.06   1 3.07  22 3.09
   5  0.466  0.663  0.101-  67 1.92 100 1.93  70 1.94  61 2.08  85 2.09  64 2.13  15 2.81  26 2.82
                            34 2.85  50 2.96  35 2.97  24 2.99  21 3.01  32 3.09   3 3.23   8 3.26
   6  0.534  0.337  0.234-  89 1.92  86 1.93  65 1.94  74 2.07  68 2.12  71 2.13  20 2.81  13 2.82
                            43 2.85  33 2.93  16 2.97  45 3.01  25 3.02  36 3.06   2 3.23  12 3.28
   7  0.685  0.998  0.319-  78 2.04  69 2.04  72 2.05  75 2.08  90 2.08  57 2.08   1 2.69  18 2.79
                            14 2.98  29 2.98  35 3.01  36 3.02  10 3.06   9 3.07  22 3.09
   8  0.099  0.666  0.471- 103 1.91  88 1.93  82 1.94  85 2.07  79 2.10  64 2.15  27 2.77  26 2.79
                            52 2.87  41 2.92  21 2.98  44 3.00  17 3.01  32 3.05  43 3.05  40 3.06
   9  0.339  0.003  0.317-  69 2.01  84 2.04  63 2.06  90 2.06  87 2.07  66 2.09   4 2.69  14 2.82
                            32 3.05  18 3.07   7 3.07  22 3.08  11 3.09
  10  0.679  0.000  0.667-  99 2.04  78 2.04  75 2.05  96 2.05  81 2.06 102 2.06  11 2.77  14 2.90
                            18 2.90  41 3.00  51 3.00  50 3.02  39 3.02  22 3.05   4 3.06   7 3.06
  11  0.992  0.000  0.667- 105 2.01  84 2.01 108 2.03  87 2.03 102 2.08  81 2.08  10 2.77  14 3.02
                            18 3.02  22 3.04   1 3.09   9 3.09
  12  0.903  0.334  0.863- 104 1.91 107 1.93 101 1.94  56 2.07  68 2.10  71 2.15  20 2.77  19 2.79
                            52 2.87  51 2.92  23 2.98  54 3.00  25 3.01  36 3.05  28 3.05  34 3.06
  13  0.223  0.334  0.221-  62 1.99  83 2.01  65 2.11  59 2.12  80 2.13  86 2.15   2 2.81   6 2.82
                            42 2.82  33 2.84  25 2.95  23 2.96  20 2.98  19 2.98
  14  0.653  0.971  0.003-  66 1.93 102 2.03  72 2.08  50 2.73  35 2.75   4 2.79   9 2.82  53 2.84
                            10 2.90   7 2.98  11 3.02   1 3.07
  15  0.777  0.666  0.113-  73 1.99 106 2.01  58 2.11  70 2.12  67 2.13  55 2.15   5 2.81   3 2.82
                            53 2.82  29 2.84  17 2.95  21 2.96  27 2.98  26 2.98
  16  0.552  0.335  0.561-  95 1.99  98 2.01  92 2.03  89 2.12  77 2.13  74 2.15  48 2.71  23 2.86
                            25 2.87  20 2.93  19 2.95   6 2.97   2 2.99
  17  0.771  0.664  0.449-  76 2.00  97 2.02  73 2.02  82 2.12  58 2.12  79 2.18  38 2.69  37 2.73
                            29 2.80  41 2.81  24 2.87  21 2.88  26 2.93  15 2.95   8 3.01   3 3.02
  18  0.989  0.029  0.330-  57 1.93  81 2.03  63 2.08  39 2.73  30 2.75   7 2.79   1 2.82  42 2.84
                            10 2.90   4 2.98  11 3.02   9 3.07
  19  0.887  0.336  0.557-  98 1.99  83 2.00 101 2.12  77 2.14  80 2.16 104 2.18  12 2.79   2 2.82
                            40 2.83  25 2.93  16 2.95  20 2.98  13 2.98
  20  0.223  0.334  0.557-  92 2.00  83 2.01 107 2.13  89 2.14 104 2.16  86 2.16  12 2.77   6 2.81
                            43 2.84  23 2.92  16 2.93  19 2.98  13 2.98
  21  0.445  0.665  0.450-  73 2.01  76 2.01  91 2.03  88 2.12  70 2.14  85 2.16  38 2.70  37 2.75
                            24 2.86  17 2.88  27 2.92  15 2.96   8 2.98   5 3.01
  22  0.335  0.000  0.667-  87 2.07 108 2.07  93 2.08  90 2.08  96 2.08  75 2.08  11 3.04  10 3.05
                             1 3.08   9 3.08   4 3.09   7 3.09
  23  0.229  0.335  0.883-  62 2.01  95 2.01  92 2.03 107 2.12  59 2.14  56 2.16  48 2.70  31 2.75
                            16 2.86  25 2.88  20 2.92  13 2.96  12 2.98   2 3.01
  24  0.446  0.665  0.773-  76 1.99  97 2.01  91 2.03  94 2.12 100 2.13  61 2.15  38 2.71  21 2.86
                            17 2.87  27 2.93  26 2.95   3 2.97   5 2.99
  25  0.553  0.336  0.884-  95 2.00  98 2.02  62 2.02 101 2.12  65 2.12  68 2.18  48 2.69  31 2.73
                            33 2.80  51 2.81  16 2.87  23 2.88  19 2.93  13 2.95  12 3.01   6 3.02
  26  0.777  0.664  0.777-  97 1.99 106 2.00  82 2.12 100 2.14  67 2.16 103 2.18   8 2.79   5 2.82
                            34 2.83  17 2.93  24 2.95  27 2.98  15 2.98
  27  0.113  0.666  0.777-  91 2.00 106 2.01  88 2.13  94 2.14 103 2.16  55 2.16   8 2.77   3 2.81
                            28 2.84  21 2.92  24 2.93  26 2.98  15 2.98
  28  1.000  0.506  0.986-  94 2.04 107 2.05 106 2.06  58 2.14  59 2.22  71 2.26  27 2.84   3 2.85
                            12 3.05
  29  0.870  0.820  0.240-  73 1.98  72 2.08  55 2.09  79 2.12  78 2.21  17 2.80  15 2.84   3 2.93
                             7 2.98
  30  0.127  0.174  0.104-  62 2.04  63 2.07  80 2.08  93 2.18  57 2.20  56 2.23  18 2.75   2 2.97
                             4 3.01
  31  0.342  0.485  0.984-  95 1.94  59 2.11  65 2.11 100 2.14  94 2.16  25 2.73  23 2.75
  32  0.217  0.829  0.224-  66 2.01  79 2.02  61 2.09  85 2.09  60 2.19  84 2.26   4 3.02   8 3.05
                             9 3.05   3 3.06   5 3.09
  33  0.444  0.180  0.093-  62 1.98  63 2.08  86 2.09  68 2.12  99 2.21  25 2.80  13 2.84   6 2.93
                             4 2.98
  34  0.681  0.506  0.986- 101 2.04 100 2.04 106 2.07  70 2.14  65 2.22  71 2.25  26 2.83   5 2.85
                            12 3.06
  35  0.564  0.826  0.229-  73 2.04  72 2.07  67 2.08  90 2.18  66 2.20  85 2.23  14 2.75   5 2.97
                             7 3.01
  36  0.774  0.171  0.110-  57 2.01  68 2.02  74 2.09  56 2.09  69 2.19 105 2.26   7 3.02  12 3.05
                             1 3.05   6 3.06   2 3.09
  37  0.659  0.515  0.350-  76 1.94  70 2.11  58 2.11  77 2.14  89 2.16  17 2.73  21 2.75
  38  0.559  0.809  0.553-  73 1.99  97 2.01  91 2.02  78 2.08  17 2.69  21 2.70  24 2.71
  39  0.771  0.175  0.460-  98 2.03  80 2.06  81 2.09  75 2.17  74 2.23  57 2.23  18 2.73   2 2.96
                            10 3.02
  40  0.000  0.494  0.347-  82 2.04  77 2.04  83 2.07  59 2.14  58 2.22  64 2.25  19 2.83   2 2.85
                             8 3.06
  41  0.869  0.822  0.557-  97 1.98 102 2.08 103 2.09  79 2.14  78 2.14  17 2.81   8 2.92  10 3.00

  42  0.109  0.180  0.440-  80 2.04 104 2.08  86 2.09  63 2.15  81 2.16  13 2.82  18 2.84
  43  0.319  0.494  0.347-  89 2.04  88 2.05  83 2.06  65 2.14  70 2.22  64 2.26  20 2.84   6 2.85
                             8 3.05
  44  0.236  0.831  0.561-  91 2.03  84 2.11 103 2.12  90 2.17 108 2.24  85 2.25   8 3.00
  45  0.439  0.171  0.463-  92 2.02  69 2.06  86 2.11  75 2.21  87 2.24  74 2.24   6 3.01
  46  0.346  0.500  0.667-  76 2.06  95 2.06  94 2.19  89 2.19  88 2.27 107 2.27
  47  0.235  0.829  0.871-  91 2.02  60 2.06  55 2.11  96 2.21 108 2.24  61 2.24   3 3.01
  48  0.445  0.191  0.780-  62 1.99  98 2.01  92 2.02  99 2.08  25 2.69  23 2.70  16 2.71
  49  0.654  0.500  0.667-  95 2.06  76 2.06 100 2.19  77 2.19  82 2.27 101 2.27
  50  0.564  0.825  0.873-  97 2.03  67 2.06 102 2.09  96 2.17  61 2.23  66 2.23  14 2.73   5 2.96
                            10 3.02
  51  0.759  0.178  0.777-  98 1.98  81 2.08 104 2.09  68 2.14  99 2.14  25 2.81  12 2.92  10 3.00

  52  1.000  0.500  0.667- 107 2.08  88 2.08 101 2.08  82 2.08 106 2.22  83 2.22  12 2.87   8 2.87

  53  0.883  0.820  0.893-  67 2.04 103 2.08  55 2.09  72 2.15 102 2.16  15 2.82  14 2.84
  54  0.130  0.169  0.773-  92 2.03 105 2.11 104 2.12  93 2.17  87 2.24  56 2.25  12 3.00
  55  0.006  0.750  0.006-   3 1.93  53 2.09  29 2.09  47 2.11  15 2.15  27 2.16
  56  0.987  0.260  0.006-  12 2.07  36 2.09   2 2.09  23 2.16  30 2.23  54 2.25
  57  0.884  0.093  0.215-  18 1.93  36 2.01   7 2.08   1 2.09  30 2.20  39 2.23
  58  0.899  0.586  0.219-   3 1.94  37 2.11  15 2.11  17 2.12  28 2.14  40 2.22
  59  0.102  0.415  0.114-   2 1.94  31 2.11  13 2.12  40 2.14  23 2.14  28 2.22
  60  0.132  0.917  0.080-   1 2.01   4 2.04  47 2.06  32 2.19
  61  0.327  0.739  0.013-   3 2.07   5 2.08  32 2.09  24 2.15  50 2.23  47 2.24
  62  0.332  0.262  0.001-  33 1.98  48 1.99  13 1.99  23 2.01  25 2.02  30 2.04
  63  0.232  0.092  0.217-   4 2.05   9 2.06  30 2.07  18 2.08  33 2.08  42 2.15
  64  0.219  0.596  0.226-   3 2.13   5 2.13   8 2.15  40 2.25  43 2.26
  65  0.451  0.414  0.115-   6 1.94  31 2.11  13 2.11  25 2.12  43 2.14  34 2.22
  66  0.433  0.907  0.118-  14 1.93  32 2.01   4 2.08   9 2.09  35 2.20  50 2.23
  67  0.655  0.748  0.006-   5 1.92  53 2.04  50 2.06  35 2.08  15 2.13  26 2.16
  68  0.673  0.258  0.006-  36 2.02  12 2.10   6 2.12  33 2.12  51 2.14  25 2.18
  69  0.546  0.083  0.253-   9 2.01   7 2.04  45 2.06  36 2.19
  70  0.549  0.585  0.219-   5 1.94  37 2.11  15 2.12  34 2.14  21 2.14  43 2.22
  71  0.779  0.404  0.107-   6 2.13   2 2.13  12 2.15  34 2.25  28 2.26
  72  0.783  0.908  0.116-   7 2.05   1 2.06  35 2.07  14 2.08  29 2.08  53 2.15
  73  0.666  0.738  0.332-  29 1.98  38 1.99  15 1.99  21 2.01  17 2.02  35 2.04
  74  0.673  0.261  0.320-   6 2.07   2 2.08  36 2.09  16 2.15  39 2.23  45 2.24
  75  0.568  0.072  0.549-  10 2.05   7 2.08  22 2.08  39 2.17  45 2.21
  76  0.553  0.589  0.559-  37 1.94  24 1.99  17 2.00  21 2.01  46 2.06  49 2.06
  77  0.782  0.416  0.431-   2 1.93  40 2.04  16 2.13  19 2.14  37 2.14  49 2.19
  78  0.743  0.913  0.465-   7 2.04  10 2.04  38 2.08  41 2.14  29 2.21
  79  0.012  0.742  0.328-  32 2.02   8 2.10   3 2.12  29 2.12  41 2.14  17 2.18
  80  0.994  0.252  0.327-   2 1.92  42 2.04  39 2.06  30 2.08  13 2.13  19 2.16
  81  0.884  0.091  0.566-  18 2.03  10 2.06  51 2.08  11 2.08  39 2.09  42 2.16
  82  0.902  0.585  0.547-   8 1.94  40 2.04  52 2.08  17 2.12  26 2.12  49 2.27
  83  0.112  0.405  0.444-  19 2.00  20 2.01  13 2.01  43 2.06  40 2.07  52 2.22
  84  0.127  0.922  0.456-  11 2.01   9 2.04  44 2.11  32 2.26
  85  0.326  0.740  0.327-   8 2.07  32 2.09   5 2.09  21 2.16  35 2.23  44 2.25
  86  0.345  0.250  0.328-   6 1.93  42 2.09  33 2.09  45 2.11  13 2.15  20 2.16
  87  0.218  0.072  0.551-  11 2.03   9 2.07  22 2.07  54 2.24  45 2.24
  88  0.217  0.584  0.548-   8 1.93  43 2.05  52 2.08  21 2.12  27 2.13  46 2.27
  89  0.453  0.416  0.431-   6 1.92  43 2.04  16 2.12  20 2.14  37 2.16  46 2.19
  90  0.449  0.928  0.435-   9 2.06  22 2.08   7 2.08  44 2.17  35 2.18
  91  0.330  0.741  0.669-  27 2.00  38 2.02  47 2.02  21 2.03  24 2.03  44 2.03
  92  0.332  0.259  0.664-  20 2.00  48 2.02  45 2.02  23 2.03  16 2.03  54 2.03
  93  0.217  0.072  0.899-   1 2.06  22 2.08   4 2.08  54 2.17  30 2.18
  94  0.218  0.584  0.902-   3 1.92  28 2.04  24 2.12  27 2.14  31 2.16  46 2.19
  95  0.446  0.411  0.774-  31 1.94  16 1.99  25 2.00  23 2.01  46 2.06  49 2.06
  96  0.450  0.928  0.785-  10 2.05   4 2.08  22 2.08  50 2.17  47 2.21
  97  0.667  0.738  0.670-  41 1.98  26 1.99  24 2.01  38 2.01  17 2.02  50 2.03
  98  0.670  0.262  0.664-  51 1.98  19 1.99  16 2.01  48 2.01  25 2.02  39 2.03
  99  0.541  0.087  0.869-   4 2.04  10 2.04  48 2.08  51 2.14  33 2.21
 100  0.546  0.584  0.903-   5 1.93  34 2.04  24 2.13  26 2.14  31 2.14  49 2.19
 101  0.783  0.415  0.786-  12 1.94  34 2.04  52 2.08  25 2.12  19 2.12  49 2.27
 102  0.784  0.909  0.767-  14 2.03  10 2.06  41 2.08  11 2.08  50 2.09  53 2.16
 103  0.006  0.752  0.656-   8 1.91  53 2.08  41 2.09  44 2.12  27 2.16  26 2.18
 104  0.996  0.248  0.677-  12 1.91  42 2.08  51 2.09  54 2.12  20 2.16  19 2.18
 105  0.916  0.078  0.878-  11 2.01   1 2.04  54 2.11  36 2.26
 106  0.889  0.595  0.890-  26 2.00  27 2.01  15 2.01  28 2.06  34 2.07  52 2.22
 107  0.098  0.416  0.785-  12 1.93  28 2.05  52 2.08  23 2.12  20 2.13  46 2.27
 108  0.102  0.928  0.782-  11 2.03   1 2.07  22 2.07  44 2.24  47 2.24
 
  LATTYP: Found a base centered monoclinic cell.
 ALAT       =    15.3414772470
 B/A-ratio  =     0.5773064163
 C/A-ratio  =     1.3896922703
 COS(beta)  =    -0.6256099933
  
  Lattice vectors:
  
 A1 = (   4.4283665762,   0.0154711466,   7.6707230216)
 A2 = (  -4.4283666745,   0.0154711466,   7.6707230216)
 A3 = (   0.0000000982, -14.7737207436, -15.3712943692)


Analysis of symmetry for initial positions (statically):
=====================================================================
 Subroutine PRICEL returns:
 Original cell was already a primitive cell.
 

 Routine SETGRP: Setting up the symmetry group for a 
 base centered monoclinic supercell.


 Subroutine GETGRP returns: Found  2 space group operations
 (whereof  1 operations were pure point group operations)
 out of a pool of  4 trial point group operations.


The static configuration has the point symmetry C_1 .
 The point group associated with its full space group is C_2 .


Analysis of symmetry for dynamics (positions and initial velocities):
=====================================================================
 Subroutine PRICEL returns:
 Original cell was already a primitive cell.
 

 Routine SETGRP: Setting up the symmetry group for a 
 base centered monoclinic supercell.


 Subroutine GETGRP returns: Found  2 space group operations
 (whereof  1 operations were pure point group operations)
 out of a pool of  4 trial point group operations.


The dynamic configuration has the point symmetry C_1 .
 The point group associated with its full space group is C_2 .


Analysis of structural, dynamic, and magnetic symmetry:
=====================================================================
 Subroutine PRICEL returns:
 Original cell was already a primitive cell.
 

 Routine SETGRP: Setting up the symmetry group for a 
 base centered monoclinic supercell.


 Subroutine GETGRP returns: Found  2 space group operations
 (whereof  1 operations were pure point group operations)
 out of a pool of  4 trial point group operations.


The magnetic configuration has the point symmetry C_1 .
 The point group associated with its full space group is C_2 .


 Subroutine INISYM returns: Found  2 space group operations
 (whereof  1 operations are pure point group operations),
 and found     1 'primitive' translations

 
 
 KPOINTS: Automatic mesh                          

Automatic generation of k-mesh.
Space group operators:
 irot       det(A)        alpha          n_x          n_y          n_z        tau_x        tau_y        tau_z
    1     1.000000     0.000001     1.000000     0.000000     0.000000     0.000000     0.000000     0.000000
    2     1.000000   180.000000     1.000000    -0.000000     0.000000    -0.666667     0.000000     1.333333
 
 Subroutine IBZKPT returns following result:
 ===========================================
 
 Found      1 irreducible k-points:
 
 Following reciprocal coordinates:
            Coordinates               Weight
  0.000000  0.000000  0.000000      1.000000
 
 Following cartesian coordinates:
            Coordinates               Weight
  0.000000  0.000000  0.000000      1.000000
 


--------------------------------------------------------------------------------------------------------




 Dimension of arrays:
   k-points           NKPTS =      1   k-points in BZ     NKDIM =      1   number of bands    NBANDS=    432
   number of dos      NEDOS =    301   number of ions     NIONS =    108
   non local maximal  LDIM  =      6   non local SUM 2l+1 LMDIM =     18
   total plane-waves  NPLWV = 529200
   max r-space proj   IRMAX =   9305   max aug-charges    IRDMAX=  29879
   dimension x,y,z NGX =    70 NGY =  108 NGZ =   70
   dimension x,y,z NGXF=   140 NGYF=  216 NGZF=  140
   support grid    NGXF=   140 NGYF=  216 NGZF=  140
   ions per type =              12  15  27  54
   NGX,Y,Z   is equivalent  to a cutoff of  13.14, 12.18, 13.14 a.u.
   NGXF,Y,Z  is equivalent  to a cutoff of  26.28, 24.36, 26.28 a.u.

 SYSTEM =  unknown system                          
 POSCAR =  ce345471_1                              

 Startparameter for this run:
   NWRITE =      1    write-flag & timer
   PREC   = accura    normal or accurate (medium, high low for compatibility)
   ISTART =      0    job   : 0-new  1-cont  2-samecut
   ICHARG =      2    charge: 1-file 2-atom 10-const
   ISPIN  =      2    spin polarized calculation?
   LNONCOLLINEAR =      F non collinear calculations
   LSORBIT =      F    spin-orbit coupling
   INIWAV =      1    electr: 0-lowe 1-rand  2-diag
   LASPH  =      F    aspherical Exc in radial PAW
   METAGGA=      F    non-selfconsistent MetaGGA calc.

 Electronic Relaxation 1
   ENCUT  =  500.0 eV  36.75 Ry    6.06 a.u.  16.15 26.88 16.15*2*pi/ulx,y,z
   ENINI  =  500.0     initial cutoff
   ENAUG  =  628.9 eV  augmentation charge cutoff
   NELM   =     80;   NELMIN=  2; NELMDL= -5     # of ELM steps 
   EDIFF  = 0.1E-04   stopping-criterion for ELM
   LREAL  =      T    real-space projection
   NLSPLINE    = F    spline interpolate recip. space projectors
   LCOMPAT=      F    compatible to vasp.4.4
   GGA_COMPAT  = T    GGA compatible to vasp.4.4-vasp.4.6
   LMAXPAW     = -100 max onsite density
   LMAXMIX     =    2 max onsite mixed and CHGCAR
   VOSKOWN=      1    Vosko Wilk Nusair interpolation
   ROPT   =   -0.00025  -0.00025  -0.00025  -0.00025
 Ionic relaxation
   EDIFFG = -.2E-01   stopping-criterion for IOM
   NSW    =     20    number of steps for IOM
   NBLOCK =      1;   KBLOCK =     20    inner block; outer block 
   IBRION =      1    ionic relax: 0-MD 1-quasi-New 2-CG
   NFREE  =      0    steps in history (QN), initial steepest desc. (CG)
   ISIF   =      3    stress and relaxation
   IWAVPR =     11    prediction:  0-non 1-charg 2-wave 3-comb
   ISYM   =      2    0-nonsym 1-usesym 2-fastsym
   LCORR  =      T    Harris-Foulkes like correction to forces

   POTIM  = 0.5000    time-step for ionic-motion
   TEIN   =    0.0    initial temperature
   TEBEG  =    0.0;   TEEND  =   0.0 temperature during run
   SMASS  =  -3.00    Nose mass-parameter (am)
   estimated Nose-frequenzy (Omega)   =  0.10E-29 period in steps =****** mass=  -0.179E-26a.u.
   SCALEE = 1.0000    scale energy and forces
   NPACO  =    256;   APACO  = 16.0  distance and # of slots for P.C.
   PSTRESS=    0.0 pullay stress

  Mass of Ions in am
   POMASS = 180.95 58.69  7.01 16.00
  Ionic Valenz
   ZVAL   =  11.00 10.00  3.00  6.00
  Atomic Wigner-Seitz radii
   RWIGS  =   1.34  1.15  1.23  0.73
  virtual crystal weights 
   VCA    =   1.00  1.00  1.00  1.00
   NELECT =     687.0000    total number of electrons
   NUPDOWN=      -1.0000    fix difference up-down

 DOS related values:
   EMIN   =  10.00;   EMAX   =-10.00  energy-range for DOS
   EFERMI =   0.00
   ISMEAR =     0;   SIGMA  =   0.05  broadening in eV -4-tet -1-fermi 0-gaus

 Electronic relaxation 2 (details)
   IALGO  =     38    algorithm
   LDIAG  =      T    sub-space diagonalisation (order eigenvalues)
   LSUBROT=      F    optimize rotation matrix (better conditioning)
   TURBO    =      0    0=normal 1=particle mesh
   IRESTART =      0    0=no restart 2=restart with 2 vectors
   NREBOOT  =      0    no. of reboots
   NMIN     =      0    reboot dimension
   EREF     =   0.00    reference energy to select bands
   IMIX   =      4    mixing-type and parameters
     AMIX     =   0.40;   BMIX     =  1.00
     AMIX_MAG =   1.60;   BMIX_MAG =  1.00
     AMIN     =   0.10
     WC   =   100.;   INIMIX=   1;  MIXPRE=   1;  MAXMIX= -45

 Intra band minimization:
   WEIMIN = 0.0010     energy-eigenvalue tresh-hold
   EBREAK =  0.58E-08  absolut break condition
   DEPER  =   0.30     relativ break condition  

   TIME   =   0.40     timestep for ELM

  volume/ion in A,a.u.               =       9.27        62.58
  Fermi-wavevector in a.u.,A,eV,Ry     =   1.443770  2.728329 28.360950  2.084471
  Thomas-Fermi vector in A             =   2.562140
 
 Write flags
   LWAVE        =      F    write WAVECAR
   LDOWNSAMPLE  =      F    k-point downsampling of WAVECAR
   LCHARG       =      T    write CHGCAR
   LVTOT        =      F    write LOCPOT, total local potential
   LVHAR        =      F    write LOCPOT, Hartree potential only
   LELF         =      F    write electronic localiz. function (ELF)
   LORBIT       =      0    0 simple, 1 ext, 2 COOP (PROOUT), +10 PAW based schemes


 Dipole corrections
   LMONO  =      F    monopole corrections only (constant potential shift)
   LDIPOL =      F    correct potential (dipole corrections)
   IDIPOL =      0    1-x, 2-y, 3-z, 4-all directions 
   EPSILON=  1.0000000 bulk dielectric constant

 Exchange correlation treatment:
   GGA     =    PS    GGA type
   LEXCH   =    14    internal setting for exchange type
   VOSKOWN=      1    Vosko Wilk Nusair interpolation
   LHFCALC =     F    Hartree Fock is set to
   LHFONE  =     F    Hartree Fock one center treatment
   AEXX    =    0.0000 exact exchange contribution

 Linear response parameters
   LEPSILON=     F    determine dielectric tensor
   LRPA    =     F    only Hartree local field effects (RPA)
   LNABLA  =     F    use nabla operator in PAW spheres
   LVEL    =     F    velocity operator in full k-point grid
   LINTERFAST=   F  fast interpolation
   KINTER  =     0    interpolate to denser k-point grid
   CSHIFT  =0.1000    complex shift for real part using Kramers Kronig
   OMEGAMAX=  -1.0    maximum frequency
   DEG_THRESHOLD= 0.2000000E-02 threshold for treating states as degnerate
   RTIME   =   -0.100 relaxation time in fs
  (WPLASMAI=    0.000 imaginary part of plasma frequency in eV, 0.658/RTIME)
   DFIELD  = 0.0000000 0.0000000 0.0000000 field for delta impulse in time
 
 Orbital magnetization related:
   ORBITALMAG=     F  switch on orbital magnetization
   LCHIMAG   =     F  perturbation theory with respect to B field
   DQ        =  0.001000  dq finite difference perturbation B field
   LLRAUG    =     F  two centre corrections for induced B field



--------------------------------------------------------------------------------------------------------


 quasi-Newton-method for relaxation of ions
 charge density and potential will be updated during run
 spin polarized calculation
 Variant of blocked Davidson
 Davidson routine will perform the subspace rotation
 perform sub-space diagonalisation
    after iterative eigenvector-optimisation
 modified Broyden-mixing scheme, WC =      100.0
 initial mixing is a Kerker type mixing with AMIX =  0.4000 and BMIX =      1.0000
 Hartree-type preconditioning will be used
 using additional bands           88
 real space projection scheme for non local part
 use partial core corrections
 calculate Harris-corrections to forces 
   (improved forces if not selfconsistent)
 use gradient corrections 
 use of overlap-Matrix (Vanderbilt PP)
 Gauss-broadening in eV      SIGMA  =   0.05


--------------------------------------------------------------------------------------------------------


  energy-cutoff  :      500.00
  volume of cell :     1001.58
      direct lattice vectors                 reciprocal lattice vectors
     8.856733251  0.000000000  0.000000000     0.112908447  0.000131970 -0.065183169
     0.000000000 14.742778450  0.029848326     0.000000000  0.067830096 -0.000136807
     4.428366576  0.015471147  7.670723022     0.000000000 -0.000263941  0.130366340

  length of vectors
     8.856733251 14.742808666  8.857237807     0.130373235  0.067830234  0.130366607


 
 k-points in units of 2pi/SCALE and weight: Automatic mesh                          
   0.00000000  0.00000000  0.00000000       1.000
 
 k-points in reciprocal lattice and weights: Automatic mesh                          
   0.00000000  0.00000000  0.00000000       1.000
 
 position of ions in fractional coordinates (direct lattice) 
   0.98929060  0.99733974  0.01660599
   0.89955897  0.33665849  0.23261775
   0.10168051  0.66337951  0.09907126
   0.33716673  0.00227821  0.01422621
   0.46551006  0.66334151  0.10071558
   0.53408512  0.33662049  0.23426207
   0.68472628  0.99772179  0.31910712
   0.09928902  0.66595370  0.47063449
   0.33922993  0.00266026  0.31672734
   0.67938114  0.00000000  0.66666667
   0.99174312  0.00000000  0.66666667
   0.90325684  0.33404630  0.86269884
   0.22307778  0.33366711  0.22066130
   0.65275348  0.97074469  0.00334038
   0.77707242  0.66633289  0.11267203
   0.55208933  0.33505490  0.56056708
   0.77069948  0.66421600  0.44932351
   0.98942720  0.02925531  0.32999295
   0.88695805  0.33572510  0.55672410
   0.22299522  0.33432317  0.55673441
   0.44546710  0.66506821  0.45022239
   0.33451526  0.00000000  0.66666667
   0.22902282  0.33493179  0.88311094
   0.44598974  0.66494510  0.77276626
   0.55335633  0.33578400  0.88400982
   0.77701549  0.66427490  0.77660924
   0.11306296  0.66567683  0.77659893
   0.99965533  0.50628365  0.98592772
   0.86975603  0.82044849  0.24047408
   0.12650533  0.17381073  0.10386076
   0.34176616  0.48467851  0.98353723
   0.21733683  0.82859375  0.22376792
   0.44356345  0.17955151  0.09285925
   0.68073622  0.50588480  0.98613058
   0.56369943  0.82618927  0.22947257
   0.77443809  0.17140625  0.10956541
   0.65863673  0.51532149  0.34979610
   0.55893114  0.80925429  0.55286385
   0.77113230  0.17452882  0.45995290
   0.00020013  0.49411520  0.34720275
   0.86860116  0.82215392  0.55674674
   0.10873856  0.17971520  0.44043684
   0.31891639  0.49371635  0.34740561
   0.23645334  0.83096343  0.56067141
   0.43856423  0.17068256  0.46281735
   0.34552947  0.50000000  0.66666667
   0.23471491  0.82931744  0.87051598
   0.44512831  0.19074571  0.78046949
   0.65445251  0.50000000  0.66666667
   0.56441852  0.82547118  0.87338043
   0.75868124  0.17784608  0.77658660
   0.99971417  0.50000000  0.66666667
   0.88250873  0.82028480  0.89289649
   0.13045809  0.16903657  0.77266193
   0.00622363  0.75031766  0.00573241
   0.98704053  0.26000906  0.00602685
   0.88440996  0.09348203  0.21518377
   0.89863076  0.58550967  0.21876076
   0.10173327  0.41546528  0.11414001
   0.13222115  0.91656138  0.08038790
   0.32685687  0.73949598  0.01324468
   0.33178685  0.26169400  0.00116673
   0.23224481  0.09174027  0.21727551
   0.21948214  0.59571357  0.22618743
   0.45072486  0.41449033  0.11457257
   0.43292706  0.90651797  0.11814956
   0.65531305  0.74827913  0.00583899
   0.67332444  0.25796765  0.00568470
   0.54594239  0.08343862  0.25294543
   0.54920662  0.58453472  0.21919332
   0.77900291  0.40428643  0.10714590
   0.78285367  0.90825973  0.11605782
   0.66628693  0.73830600  0.33216660
   0.67343489  0.26050402  0.32008865
   0.56827935  0.07168245  0.54876774
   0.55346849  0.58860915  0.55914328
   0.78168722  0.41647084  0.43071979
   0.74332370  0.91315302  0.46483314
   0.01234246  0.74203235  0.32764863
   0.99448537  0.25172087  0.32749434
   0.88443319  0.09070894  0.56615744
   0.90194949  0.58482279  0.54729171
   0.11207060  0.40463172  0.44354776
   0.12744355  0.92153826  0.45570676
   0.32640072  0.73999094  0.32730648
   0.34528938  0.24968234  0.32760092
   0.21800285  0.07205477  0.55099618
   0.21681444  0.58449627  0.54829731
   0.45287231  0.41602546  0.43134714
   0.44899163  0.92798519  0.43475181
   0.32959638  0.74145608  0.66893226
   0.33186197  0.25854392  0.66440108
   0.21707678  0.07201481  0.89858152
   0.21755278  0.58397454  0.90198619
   0.44594511  0.41139085  0.77419006
   0.45038042  0.92831755  0.78456560
   0.66687926  0.73829288  0.66959426
   0.66980685  0.26170712  0.66373908
   0.54149016  0.08684698  0.86850019
   0.54574034  0.58352916  0.90261354
   0.78257454  0.41517721  0.78604163
   0.78392397  0.90929106  0.76717590
   0.00606086  0.75231392  0.65634436
   0.99573855  0.24768608  0.67698898
   0.91648364  0.07846174  0.87762657
   0.88895169  0.59536828  0.88978557
   0.09844508  0.41550373  0.78503603
   0.10233236  0.92794523  0.78233716
 
 position of ions in cartesian coordinates  (Angst):
   8.83542036 14.70381574  0.15714887
   8.99727051  4.96688039  1.79439502
   1.33928101  9.78158989  0.77974896
   3.04919466  0.03380724  0.10919332
   4.56890394  9.78105510  0.79236095
   5.76764776  4.96634561  1.80700701
   7.47756132 14.71412826  2.47756266
   2.96351841  9.82528911  3.62998442
   4.40705377  0.04411976  2.42960710
   8.96934193  0.01031410  5.11381537
  11.73584867  0.01031410  5.11381537
  11.82025160  4.93811753  6.62749458
   2.95290952  4.92259416  1.70259112
   5.79605588 14.31152558  0.05459823
   7.38127619  9.82534134  0.88416486
   7.37210445  4.94831277  4.30995563
   8.81564892  9.79934088  3.46646193
  10.22442253  0.43640992  2.53215774
  10.32092925  4.95813393  4.28049720
   4.44043323  4.93746575  4.28053444
   5.93913306  9.81191873  3.47338242
   5.91495683  0.01031410  5.11381537
   5.93913299  4.95148791  6.78409657
   7.37210444  9.81509387  5.94752344
   8.81564895  4.96406576  6.79101707
  10.32092933  9.80527272  5.97698187
   4.44043322  9.82594090  5.97694463
  13.21972996  7.47928112  7.57789018
   8.76810453 12.09941073  1.86909908
   1.58035748  2.56405993  0.80187508
   7.38239511  7.16072434  7.55890851
   2.91582071 12.21923603  1.74119387
   4.33973796  2.64852477  0.71765690
  10.39604681  7.47340410  7.57943436
   6.00872414 12.18387557  1.78488089
   7.34418738  2.52869947  0.84556210
   7.38239518  7.60268230  2.69857048
   7.39858781 11.93921015  4.26502035
   8.86655313  2.58015573  3.53338069
   1.53931355  7.29000255  2.67804464
  10.15844743 12.12944661  4.29518995
   2.91348420  2.65631544  3.38383321
   4.36299679  7.28412553  2.67958882
   4.57706269 12.25938398  4.32555796
   5.93377128  2.52349548  3.55523829
   6.01250674  7.38170332  5.12873954
   5.93377122 12.23991116  6.70224071
   7.39858771  2.82419650  5.99245872
   8.74855571  7.38170332  5.12873954
   8.86655298 12.18325092  6.72409830
  10.15844751  2.63396004  5.96228912
  11.80644613  7.38170332  5.12873954
  11.77021739 12.10709121  6.87364579
   4.57706277  2.50402267  5.93192111
   0.08050624 11.06185572  0.06636746
   8.76864378  3.83334921  0.05399113
   8.78589571  1.38151400  1.65340538
   8.92768577  8.63542383  1.69552968
   1.40647824  6.12687845  0.88793735
   1.52703455 13.51390505  0.64399114
   2.95353641 10.90243031  0.12366899
   2.94371433  3.85811471  0.01676079
   3.01910594  1.35586798  1.66939855
   2.94553562  8.78597256  1.75280218
   4.49931919  6.11251167  0.89122629
   4.35752905 13.36642150  0.93335059
   5.82979007 11.03180377  0.06712415
   5.98862889  3.80324786  0.05130566
   5.95540121  1.23403044  1.94276484
   5.83484490  8.62105705  1.69881863
   7.37390230  5.96196294  0.83395379
   7.44747270 13.39206752  0.91735742
   7.37208108 10.88982078  2.56999518
   7.38190306  3.84550519  2.46308699
   7.46324333  1.06528855  4.21158494
   7.37801419  8.68638488  4.30660223
   8.83058031  6.14660105  3.31636317
   8.64187127 13.46960417  3.59286236
   1.56026212 10.94468764  2.53545031
  10.25815663  3.71613173  2.51963182
  10.34034153  1.34606091  4.34554442
  10.41193435  8.63038006  4.21557910
   2.95677148  5.97225799  3.41440959
   3.14677011 13.59308471  3.52310671
   4.34027719 10.91458629  2.53276484
   4.50887290  3.68607978  2.52038852
   4.37080616  1.07081205  4.22868980
   4.34832914  8.62558180  4.22328303
   5.92113250  6.14004462  3.32116210
   5.90183948 13.68780617  3.36255952
   5.88142448 10.94147187  5.15332531
   5.88142448  3.82193478  5.10415376
   5.90183950  1.07560048  6.89491947
   5.92113244  8.62336202  6.93631690
   7.37801427  6.07702177  5.95087684
   7.46324332 13.69811810  6.04589413
   8.87158056 10.89484775  5.15830891
   8.87158056  3.86855889  5.09917016
   8.64187112  1.29380248  6.66461664
   8.83058025  8.61680559  6.94111583
  10.41193443  6.13302659  6.04189997
  10.34034160 13.41734574  5.91193465
   2.96021285 11.10135185  5.05709110
  11.81694610  3.66205480  5.20038797
  12.00350330  1.17032194  6.73437229
  11.81350467  8.79114865  6.84306940
   4.34832913  6.13782484  6.03419604
   4.37080615 13.69259459  6.02878928
 


--------------------------------------------------------------------------------------------------------


 use serial FFT for orbitals x direction half grid
 k-point  1 :   0.0000 0.0000 0.0000  plane waves:   12688

 maximum and minimum number of plane-waves per node :     12688    12688

 maximum number of plane-waves:     12688
 maximum index in each direction: 
   IXMAX=   16   IYMAX=   26   IZMAX=   16
   IXMIN=    0   IYMIN=  -26   IZMIN=  -13

 The following grids will avoid any aliasing or wrap around errors in the Hartre
 e energy
  - symmetry arguments have not been applied
  - exchange correlation energies might require even more grid points
  - we recommend to set PREC=Normal or Accurate and rely on VASP defaults
 NGX is ok and might be reduce to    70
 NGY is ok and might be reduce to   108
 NGZ is ok and might be reduce to    60

 serial   3D FFT for wavefunctions
 parallel 3D FFT for charge:
    minimum data exchange during FFTs selected (reduces bandwidth)


 total amount of memory used by VASP MPI-rank0   171066. kBytes
=======================================================================

   base      :      30000. kBytes
   nonlr-proj:      47563. kBytes
   fftplans  :      11390. kBytes
   grid      :      69016. kBytes
   one-center:       1679. kBytes
   wavefun   :      11418. kBytes
 
     INWAV:  cpu time    0.0000: real time    0.0000
 Broyden mixing: mesh for mixing (old mesh)
   NGX = 33   NGY = 53   NGZ = 33
  (NGX  =140   NGY  =216   NGZ  =140)
  gives a total of  57717 points

 initial charge density was supplied:
 charge density of overlapping atoms calculated
 number of electron     687.0000000 magnetization      37.5000000
 keeping initial charge density in first step


--------------------------------------------------------------------------------------------------------


 Maximum index for non-local projection operator         9019
 Maximum index for augmentation-charges         2161 (set IRDMAX)


--------------------------------------------------------------------------------------------------------


 First call to EWALD:  gamma=   0.177
 Maximum number of real-space cells 3x 2x 3
 Maximum number of reciprocal cells 2x 4x 2

    FEWALD:  cpu time    0.0045: real time    0.0045


--------------------------------------- Iteration      1(   1)  ---------------------------------------


    POTLOK:  cpu time    0.3712: real time    0.3744
    SETDIJ:  cpu time    0.0418: real time    0.0419
     EDDAV:  cpu time    6.9682: real time    6.9847
    --------------------------------------------
      LOOP:  cpu time    7.3817: real time    7.4016

 eigenvalue-minimisations  :  1744
 total energy-change (2. order) : 0.1171187E+05  (-0.3425964E+05)
 number of electron     687.0000000 magnetization      37.5000000
 augmentation part      687.0000000 magnetization      37.5000000

 Free energy of the ion-electron system (eV)
  ---------------------------------------------------
  alpha Z        PSCENC =      3240.04927674
  Ewald energy   TEWEN  =    -43808.63305916
  -Hartree energ DENC   =    -13985.27661114
  -exchange      EXHF   =         0.00000000
  -V(xc)+E(xc)   XCENC  =      2651.94704945
  PAW double counting   =     45116.95700157   -46413.98586228
  entropy T*S    EENTRO =        -0.00507222
  eigenvalues    EBANDS =      7497.92250970
  atomic energy  EATOM  =     57412.89542408
  Solvation  Ediel_sol  =         0.00000000
  ---------------------------------------------------
  free energy    TOTEN  =     11711.87065673 eV

  energy without entropy =    11711.87572895  energy(sigma->0) =    11711.87319284


--------------------------------------------------------------------------------------------------------




--------------------------------------- Iteration      1(   2)  ---------------------------------------


     EDDAV:  cpu time    7.1494: real time    7.1664
    --------------------------------------------
      LOOP:  cpu time    7.1492: real time    7.1662

 eigenvalue-minimisations  :  1824
 total energy-change (2. order) :-0.1016337E+05  (-0.9598743E+04)
 number of electron     687.0000000 magnetization      37.5000000
 augmentation part      687.0000000 magnetization      37.5000000

 Free energy of the ion-electron system (eV)
  ---------------------------------------------------
  alpha Z        PSCENC =      3240.04927674
  Ewald energy   TEWEN  =    -43808.63305916
  -Hartree energ DENC   =    -13985.27661114
  -exchange      EXHF   =         0.00000000
  -V(xc)+E(xc)   XCENC  =      2651.94704945
  PAW double counting   =     45116.95700157   -46413.98586228
  entropy T*S    EENTRO =        -0.02387328
  eigenvalues    EBANDS =     -2665.42739239
  atomic energy  EATOM  =     57412.89542408
  Solvation  Ediel_sol  =         0.00000000
  ---------------------------------------------------
  free energy    TOTEN  =      1548.50195359 eV

  energy without entropy =     1548.52582686  energy(sigma->0) =     1548.51389022


--------------------------------------------------------------------------------------------------------




--------------------------------------- Iteration      1(   3)  ---------------------------------------


     EDDAV:  cpu time    7.5421: real time    7.5601
    --------------------------------------------
      LOOP:  cpu time    7.5422: real time    7.5601

 eigenvalue-minimisations  :  1952
 total energy-change (2. order) :-0.2143061E+04  (-0.1910249E+04)
 number of electron     687.0000000 magnetization      37.5000000
 augmentation part      687.0000000 magnetization      37.5000000

 Free energy of the ion-electron system (eV)
  ---------------------------------------------------
  alpha Z        PSCENC =      3240.04927674
  Ewald energy   TEWEN  =    -43808.63305916
  -Hartree energ DENC   =    -13985.27661114
  -exchange      EXHF   =         0.00000000
  -V(xc)+E(xc)   XCENC  =      2651.94704945
  PAW double counting   =     45116.95700157   -46413.98586228
  entropy T*S    EENTRO =        -0.04178126
  eigenvalues    EBANDS =     -4808.47042516
  atomic energy  EATOM  =     57412.89542408
  Solvation  Ediel_sol  =         0.00000000
  ---------------------------------------------------
  free energy    TOTEN  =      -594.55898717 eV

  energy without entropy =     -594.51720591  energy(sigma->0) =     -594.53809654


--------------------------------------------------------------------------------------------------------




--------------------------------------- Iteration      1(   4)  ---------------------------------------


     EDDAV:  cpu time    8.1234: real time    8.1427
    --------------------------------------------
      LOOP:  cpu time    8.1235: real time    8.1428

 eigenvalue-minimisations  :  2144
 total energy-change (2. order) :-0.3028090E+03  (-0.2927419E+03)
 number of electron     687.0000000 magnetization      37.5000000
 augmentation part      687.0000000 magnetization      37.5000000

 Free energy of the ion-electron system (eV)
  ---------------------------------------------------
  alpha Z        PSCENC =      3240.04927674
  Ewald energy   TEWEN  =    -43808.63305916
  -Hartree energ DENC   =    -13985.27661114
  -exchange      EXHF   =         0.00000000
  -V(xc)+E(xc)   XCENC  =      2651.94704945
  PAW double counting   =     45116.95700157   -46413.98586228
  entropy T*S    EENTRO =        -0.09653361
  eigenvalues    EBANDS =     -5111.22466329
  atomic energy  EATOM  =     57412.89542408
  Solvation  Ediel_sol  =         0.00000000
  ---------------------------------------------------
  free energy    TOTEN  =      -897.36797766 eV

  energy without entropy =     -897.27144404  energy(sigma->0) =     -897.31971085


--------------------------------------------------------------------------------------------------------




--------------------------------------- Iteration      1(   5)  ---------------------------------------


     EDDAV:  cpu time   11.2665: real time   11.2932
    CHARGE:  cpu time    0.5638: real time    0.5651
    MIXING:  cpu time    0.0074: real time    0.0075
    --------------------------------------------
      LOOP:  cpu time   11.8374: real time   11.8655

 eigenvalue-minimisations  :  3184
 total energy-change (2. order) :-0.2604655E+02  (-0.2571797E+02)
 number of electron     686.9999998 magnetization      36.8042862
 augmentation part      185.7835534 magnetization      29.6720553

 Broyden mixing:
  rms(total) = 0.13650E+02    rms(broyden)= 0.13648E+02
  rms(prec ) = 0.14750E+02
  weight for this iteration     100.00

 Free energy of the ion-electron system (eV)
  ---------------------------------------------------
  alpha Z        PSCENC =      3240.04927674
  Ewald energy   TEWEN  =    -43808.63305916
  -Hartree energ DENC   =    -13985.27661114
  -exchange      EXHF   =         0.00000000
  -V(xc)+E(xc)   XCENC  =      2651.94704945
  PAW double counting   =     45116.95700157   -46413.98586228
  entropy T*S    EENTRO =        -0.08736346
  eigenvalues    EBANDS =     -5137.28038400
  atomic energy  EATOM  =     57412.89542408
  Solvation  Ediel_sol  =         0.00000000
  ---------------------------------------------------
  free energy    TOTEN  =      -923.41452821 eV

  energy without entropy =     -923.32716475  energy(sigma->0) =     -923.37084648


--------------------------------------------------------------------------------------------------------




--------------------------------------- Iteration      1(   6)  ---------------------------------------


    POTLOK:  cpu time    0.3424: real time    0.3432
    SETDIJ:  cpu time    0.0444: real time    0.0445
     EDDAV:  cpu time    9.3277: real time    9.3499
    CHARGE:  cpu time    0.5011: real time    0.5023
    MIXING:  cpu time    0.0064: real time    0.0064
    --------------------------------------------
      LOOP:  cpu time   10.2221: real time   10.2463

 eigenvalue-minimisations  :  2544
 total energy-change (2. order) :-0.2310385E+02  (-0.1419746E+03)
 number of electron     686.9999991 magnetization      33.8312802
 augmentation part      214.6053852 magnetization      34.1216562

 Broyden mixing:
  rms(total) = 0.18744E+02    rms(broyden)= 0.18743E+02
  rms(prec ) = 0.20692E+02
  weight for this iteration     100.00

 eigenvalues of (default mixing * dielectric matrix)
  average eigenvalue GAMMA=   0.2770
  0.2770

 Free energy of the ion-electron system (eV)
  ---------------------------------------------------
  alpha Z        PSCENC =      3240.04927674
  Ewald energy   TEWEN  =    -43808.63305916
  -Hartree energ DENC   =    -13778.55956828
  -exchange      EXHF   =         0.00000000
  -V(xc)+E(xc)   XCENC  =      2681.09771957
  PAW double counting   =     56093.51454291   -57257.20152433
  entropy T*S    EENTRO =        -0.03837860
  eigenvalues    EBANDS =     -5529.64280729
  atomic energy  EATOM  =     57412.89542408
  Solvation  Ediel_sol  =         0.00000000
  ---------------------------------------------------
  free energy    TOTEN  =      -946.51837437 eV

  energy without entropy =     -946.47999577  energy(sigma->0) =     -946.49918507


--------------------------------------------------------------------------------------------------------




--------------------------------------- Iteration      1(   7)  ---------------------------------------


    POTLOK:  cpu time    0.3409: real time    0.3417
    SETDIJ:  cpu time    0.0440: real time    0.0441
     EDDAV:  cpu time    9.3119: real time    9.3341
    CHARGE:  cpu time    0.5681: real time    0.5695
    MIXING:  cpu time    0.0072: real time    0.0072
    --------------------------------------------
      LOOP:  cpu time   10.2721: real time   10.2966

 eigenvalue-minimisations  :  2528
 total energy-change (2. order) : 0.1451917E+03  (-0.3988288E+02)
 number of electron     686.9999993 magnetization      30.8440745
 augmentation part      202.0272619 magnetization      24.0694174

 Broyden mixing:
  rms(total) = 0.74884E+01    rms(broyden)= 0.74877E+01
  rms(prec ) = 0.79818E+01
  weight for this iteration     100.00

 eigenvalues of (default mixing * dielectric matrix)
  average eigenvalue GAMMA=   0.5958
  0.6904  0.5012

 Free energy of the ion-electron system (eV)
  ---------------------------------------------------
  alpha Z        PSCENC =      3240.04927674
  Ewald energy   TEWEN  =    -43808.63305916
  -Hartree energ DENC   =    -14003.08281557
  -exchange      EXHF   =         0.00000000
  -V(xc)+E(xc)   XCENC  =      2674.98249586
  PAW double counting   =     59449.07482764   -60743.52146717
  entropy T*S    EENTRO =        -0.04014980
  eigenvalues    EBANDS =     -5023.05124696
  atomic energy  EATOM  =     57412.89542408
  Solvation  Ediel_sol  =         0.00000000
  ---------------------------------------------------
  free energy    TOTEN  =      -801.32671434 eV

  energy without entropy =     -801.28656453  energy(sigma->0) =     -801.30663943


--------------------------------------------------------------------------------------------------------




--------------------------------------- Iteration      1(   8)  ---------------------------------------


    POTLOK:  cpu time    0.3443: real time    0.3451
    SETDIJ:  cpu time    0.0436: real time    0.0437
     EDDAV:  cpu time    8.6178: real time    8.6382
    CHARGE:  cpu time    0.5710: real time    0.5724
    MIXING:  cpu time    0.0077: real time    0.0077
    --------------------------------------------
      LOOP:  cpu time    9.5844: real time    9.6072

 eigenvalue-minimisations  :  2304
 total energy-change (2. order) :-0.1059629E+03  (-0.2750398E+02)
 number of electron     686.9999988 magnetization      28.6694716
 augmentation part      178.9047662 magnetization      25.9801853

 Broyden mixing:
  rms(total) = 0.15775E+02    rms(broyden)= 0.15775E+02
  rms(prec ) = 0.19236E+02
  weight for this iteration     100.00

 eigenvalues of (default mixing * dielectric matrix)
  average eigenvalue GAMMA=   0.5703
  1.0712  0.4287  0.2109

 Free energy of the ion-electron system (eV)
  ---------------------------------------------------
  alpha Z        PSCENC =      3240.04927674
  Ewald energy   TEWEN  =    -43808.63305916
  -Hartree energ DENC   =    -14066.86474992
  -exchange      EXHF   =         0.00000000
  -V(xc)+E(xc)   XCENC  =      2672.04556094
  PAW double counting   =     66079.48152660   -67474.06856688
  entropy T*S    EENTRO =        -0.04104839
  eigenvalues    EBANDS =     -4962.15401464
  atomic energy  EATOM  =     57412.89542408
  Solvation  Ediel_sol  =         0.00000000
  ---------------------------------------------------
  free energy    TOTEN  =      -907.28965064 eV

  energy without entropy =     -907.24860224  energy(sigma->0) =     -907.26912644


--------------------------------------------------------------------------------------------------------




--------------------------------------- Iteration      1(   9)  ---------------------------------------


    POTLOK:  cpu time    0.3417: real time    0.3425
    SETDIJ:  cpu time    0.0441: real time    0.0442
     EDDAV:  cpu time    8.4650: real time    8.4850
    CHARGE:  cpu time    0.5669: real time    0.5682
    MIXING:  cpu time    0.0079: real time    0.0079
    --------------------------------------------
      LOOP:  cpu time    9.4256: real time    9.4480

 eigenvalue-minimisations  :  2256
 total energy-change (2. order) : 0.5611073E+02  (-0.1652518E+02)
 number of electron     687.0000007 magnetization      27.0840196
 augmentation part      187.4701834 magnetization      24.0881309

 Broyden mixing:
  rms(total) = 0.11920E+02    rms(broyden)= 0.11919E+02
  rms(prec ) = 0.15077E+02
  weight for this iteration     100.00

 eigenvalues of (default mixing * dielectric matrix)
  average eigenvalue GAMMA=   0.5079
  1.2381  0.3953  0.2717  0.1266

 Free energy of the ion-electron system (eV)
  ---------------------------------------------------
  alpha Z        PSCENC =      3240.04927674
  Ewald energy   TEWEN  =    -43808.63305916
  -Hartree energ DENC   =    -13954.39446622
  -exchange      EXHF   =         0.00000000
  -V(xc)+E(xc)   XCENC  =      2664.61514226
  PAW double counting   =     68968.01144350   -70351.67083357
  entropy T*S    EENTRO =        -0.04489905
  eigenvalues    EBANDS =     -5022.00695063
  atomic energy  EATOM  =     57412.89542408
  Solvation  Ediel_sol  =         0.00000000
  ---------------------------------------------------
  free energy    TOTEN  =      -851.17892204 eV

  energy without entropy =     -851.13402299  energy(sigma->0) =     -851.15647252


--------------------------------------------------------------------------------------------------------




--------------------------------------- Iteration      1(  10)  ---------------------------------------


    POTLOK:  cpu time    0.3429: real time    0.3437
    SETDIJ:  cpu time    0.0437: real time    0.0438
     EDDAV:  cpu time    8.8546: real time    8.8756
    CHARGE:  cpu time    0.5647: real time    0.5660
    MIXING:  cpu time    0.0073: real time    0.0074
    --------------------------------------------
      LOOP:  cpu time    9.8132: real time    9.8364

 eigenvalue-minimisations  :  2384
 total energy-change (2. order) : 0.1177185E+02  (-0.2065800E+02)
 number of electron     686.9999999 magnetization      24.9154389
 augmentation part      192.6212263 magnetization      19.8092001

 Broyden mixing:
  rms(total) = 0.99206E+01    rms(broyden)= 0.99199E+01
  rms(prec ) = 0.12073E+02
  weight for this iteration     100.00

 eigenvalues of (default mixing * dielectric matrix)
  average eigenvalue GAMMA=   0.4722
  1.3864  0.3566  0.3566  0.1480  0.1134

 Free energy of the ion-electron system (eV)
  ---------------------------------------------------
  alpha Z        PSCENC =      3240.04927674
  Ewald energy   TEWEN  =    -43808.63305916
  -Hartree energ DENC   =    -13899.24586054
  -exchange      EXHF   =         0.00000000
  -V(xc)+E(xc)   XCENC  =      2661.93611206
  PAW double counting   =     70755.40647425   -72135.63993513
  entropy T*S    EENTRO =        -0.05132346
  eigenvalues    EBANDS =     -5066.12418357
  atomic energy  EATOM  =     57412.89542408
  Solvation  Ediel_sol  =         0.00000000
  ---------------------------------------------------
  free energy    TOTEN  =      -839.40707473 eV

  energy without entropy =     -839.35575127  energy(sigma->0) =     -839.38141300


--------------------------------------------------------------------------------------------------------




--------------------------------------- Iteration      1(  11)  ---------------------------------------


    POTLOK:  cpu time    0.3468: real time    0.3476
    SETDIJ:  cpu time    0.0441: real time    0.0442
     EDDAV:  cpu time    8.9904: real time    9.0117
    CHARGE:  cpu time    0.5390: real time    0.5403
    MIXING:  cpu time    0.0079: real time    0.0079
    --------------------------------------------
      LOOP:  cpu time    9.9281: real time    9.9516

 eigenvalue-minimisations  :  2416
 total energy-change (2. order) : 0.3309529E+02  (-0.4853600E+01)
 number of electron     686.9999996 magnetization      23.2213528
 augmentation part      200.3490194 magnetization      20.9519060

 Broyden mixing:
  rms(total) = 0.60495E+01    rms(broyden)= 0.60483E+01
  rms(prec ) = 0.72933E+01
  weight for this iteration     100.00

 eigenvalues of (default mixing * dielectric matrix)
  average eigenvalue GAMMA=   0.4840
  1.4834  0.4971  0.3488  0.3488  0.1128  0.1128

 Free energy of the ion-electron system (eV)
  ---------------------------------------------------
  alpha Z        PSCENC =      3240.04927674
  Ewald energy   TEWEN  =    -43808.63305916
  -Hartree energ DENC   =    -13831.70614399
  -exchange      EXHF   =         0.00000000
  -V(xc)+E(xc)   XCENC  =      2659.88769232
  PAW double counting   =     73328.70671848   -74704.10503836
  entropy T*S    EENTRO =        -0.04283439
  eigenvalues    EBANDS =     -5103.36382481
  atomic energy  EATOM  =     57412.89542408
  Solvation  Ediel_sol  =         0.00000000
  ---------------------------------------------------
  free energy    TOTEN  =      -806.31178909 eV

  energy without entropy =     -806.26895470  energy(sigma->0) =     -806.29037189


--------------------------------------------------------------------------------------------------------




--------------------------------------- Iteration      1(  12)  ---------------------------------------


    POTLOK:  cpu time    0.3254: real time    0.3261
    SETDIJ:  cpu time    0.0439: real time    0.0440
     EDDAV:  cpu time    8.5257: real time    8.5460
    CHARGE:  cpu time    0.4958: real time    0.4970
    MIXING:  cpu time    0.0087: real time    0.0087
    --------------------------------------------
      LOOP:  cpu time    9.3996: real time    9.4219

 eigenvalue-minimisations  :  2224
 total energy-change (2. order) :-0.5795485E+01  (-0.2057289E+02)
 number of electron     687.0000002 magnetization      21.1363495
 augmentation part      197.3475523 magnetization      21.0402435

 Broyden mixing:
  rms(total) = 0.98485E+01    rms(broyden)= 0.98480E+01
  rms(prec ) = 0.12038E+02
  weight for this iteration     100.00

 eigenvalues of (default mixing * dielectric matrix)
  average eigenvalue GAMMA=   0.4836
  1.6432  0.5941  0.4014  0.4014  0.1414  0.1019  0.1019

 Free energy of the ion-electron system (eV)
  ---------------------------------------------------
  alpha Z        PSCENC =      3240.04927674
  Ewald energy   TEWEN  =    -43808.63305916
  -Hartree energ DENC   =    -13877.63114931
  -exchange      EXHF   =         0.00000000
  -V(xc)+E(xc)   XCENC  =      2662.29389655
  PAW double counting   =     74586.70887878   -75982.22492297
  entropy T*S    EENTRO =        -0.04071885
  eigenvalues    EBANDS =     -5045.52489981
  atomic energy  EATOM  =     57412.89542408
  Solvation  Ediel_sol  =         0.00000000
  ---------------------------------------------------
  free energy    TOTEN  =      -812.10727395 eV

  energy without entropy =     -812.06655510  energy(sigma->0) =     -812.08691452


--------------------------------------------------------------------------------------------------------




--------------------------------------- Iteration      1(  13)  ---------------------------------------


    POTLOK:  cpu time    0.3515: real time    0.3523
    SETDIJ:  cpu time    0.0455: real time    0.0456
     EDDAV:  cpu time    8.0312: real time    8.0503
    CHARGE:  cpu time    0.5628: real time    0.5642
    MIXING:  cpu time    0.0084: real time    0.0084
    --------------------------------------------
      LOOP:  cpu time    8.9993: real time    9.0207

 eigenvalue-minimisations  :  2096
 total energy-change (2. order) : 0.1725998E+02  (-0.3462712E+02)
 number of electron     686.9999996 magnetization      19.9996927
 augmentation part      193.9199269 magnetization      15.6719952

 Broyden mixing:
  rms(total) = 0.57273E+01    rms(broyden)= 0.57263E+01
  rms(prec ) = 0.69126E+01
  weight for this iteration     100.00

 eigenvalues of (default mixing * dielectric matrix)
  average eigenvalue GAMMA=   0.4679
  1.7753  0.4810  0.4596  0.4596  0.2397  0.1349  0.0967  0.0967

 Free energy of the ion-electron system (eV)
  ---------------------------------------------------
  alpha Z        PSCENC =      3240.04927674
  Ewald energy   TEWEN  =    -43808.63305916
  -Hartree energ DENC   =    -13914.74436831
  -exchange      EXHF   =         0.00000000
  -V(xc)+E(xc)   XCENC  =      2664.01247446
  PAW double counting   =     75809.17246305   -77219.09986392
  entropy T*S    EENTRO =        -0.08079453
  eigenvalues    EBANDS =     -4978.41884959
  atomic energy  EATOM  =     57412.89542408
  Solvation  Ediel_sol  =         0.00000000
  ---------------------------------------------------
  free energy    TOTEN  =      -794.84729718 eV

  energy without entropy =     -794.76650265  energy(sigma->0) =     -794.80689991


--------------------------------------------------------------------------------------------------------




--------------------------------------- Iteration      1(  14)  ---------------------------------------


    POTLOK:  cpu time    0.3465: real time    0.3473
    SETDIJ:  cpu time    0.0445: real time    0.0446
     EDDAV:  cpu time    7.9642: real time    7.9831
    CHARGE:  cpu time    0.5675: real time    0.5689
    MIXING:  cpu time    0.0096: real time    0.0096
    --------------------------------------------
      LOOP:  cpu time    8.9322: real time    8.9534

 eigenvalue-minimisations  :  2080
 total energy-change (2. order) : 0.9406424E+01  (-0.7268422E+01)
 number of electron     686.9999995 magnetization      19.1287948
 augmentation part      195.1723827 magnetization      14.1100844

 Broyden mixing:
  rms(total) = 0.37373E+01    rms(broyden)= 0.37359E+01
  rms(prec ) = 0.43945E+01
  weight for this iteration     100.00

 eigenvalues of (default mixing * dielectric matrix)
  average eigenvalue GAMMA=   0.4635
  1.8668  0.5792  0.5792  0.3424  0.3424  0.1311  0.1311  0.0996  0.0996

 Free energy of the ion-electron system (eV)
  ---------------------------------------------------
  alpha Z        PSCENC =      3240.04927674
  Ewald energy   TEWEN  =    -43808.63305916
  -Hartree energ DENC   =    -13915.55298326
  -exchange      EXHF   =         0.00000000
  -V(xc)+E(xc)   XCENC  =      2664.01320003
  PAW double counting   =     76484.28444489   -77897.89054036
  entropy T*S    EENTRO =        -0.10832367
  eigenvalues    EBANDS =     -4964.49831293
  atomic energy  EATOM  =     57412.89542408
  Solvation  Ediel_sol  =         0.00000000
  ---------------------------------------------------
  free energy    TOTEN  =      -785.44087364 eV

  energy without entropy =     -785.33254997  energy(sigma->0) =     -785.38671180


--------------------------------------------------------------------------------------------------------




--------------------------------------- Iteration      1(  15)  ---------------------------------------


    POTLOK:  cpu time    0.3437: real time    0.3445
    SETDIJ:  cpu time    0.0442: real time    0.0443
     EDDAV:  cpu time    8.7335: real time    8.7543
    CHARGE:  cpu time    0.5279: real time    0.5291
    MIXING:  cpu time    0.0095: real time    0.0095
    --------------------------------------------
      LOOP:  cpu time    9.6588: real time    9.6817

 eigenvalue-minimisations  :  2336
 total energy-change (2. order) : 0.1445024E+01  (-0.2050984E+01)
 number of electron     686.9999993 magnetization      18.9473556
 augmentation part      195.6920769 magnetization      13.3759555

 Broyden mixing:
  rms(total) = 0.37821E+01    rms(broyden)= 0.37810E+01
  rms(prec ) = 0.44269E+01
  weight for this iteration     100.00

 eigenvalues of (default mixing * dielectric matrix)
  average eigenvalue GAMMA=   0.4312
  1.8754  0.5737  0.5737  0.3483  0.3483  0.1467  0.1467  0.1015  0.1015  0.0960

 Free energy of the ion-electron system (eV)
  ---------------------------------------------------
  alpha Z        PSCENC =      3240.04927674
  Ewald energy   TEWEN  =    -43808.63305916
  -Hartree energ DENC   =    -13911.87640780
  -exchange      EXHF   =         0.00000000
  -V(xc)+E(xc)   XCENC  =      2663.59502443
  PAW double counting   =     76849.51912546   -78259.44280505
  entropy T*S    EENTRO =        -0.06154809
  eigenvalues    EBANDS =     -4970.04088000
  atomic energy  EATOM  =     57412.89542408
  Solvation  Ediel_sol  =         0.00000000
  ---------------------------------------------------
  free energy    TOTEN  =      -783.99584940 eV

  energy without entropy =     -783.93430131  energy(sigma->0) =     -783.96507535


--------------------------------------------------------------------------------------------------------




--------------------------------------- Iteration      1(  16)  ---------------------------------------


    POTLOK:  cpu time    0.3450: real time    0.3458
    SETDIJ:  cpu time    0.0440: real time    0.0442
     EDDAV:  cpu time    8.8461: real time    8.8671
    CHARGE:  cpu time    0.5690: real time    0.5704
    MIXING:  cpu time    0.0103: real time    0.0103
    --------------------------------------------
      LOOP:  cpu time    9.8144: real time    9.8377

 eigenvalue-minimisations  :  2368
 total energy-change (2. order) : 0.8241617E+00  (-0.8182857E+00)
 number of electron     686.9999993 magnetization      18.8255132
 augmentation part      196.6907321 magnetization      13.2391770

 Broyden mixing:
  rms(total) = 0.24696E+01    rms(broyden)= 0.24688E+01
  rms(prec ) = 0.28962E+01
  weight for this iteration     100.00

 eigenvalues of (default mixing * dielectric matrix)
  average eigenvalue GAMMA=   0.4231
  1.8858  0.5317  0.5317  0.3732  0.3732  0.2658  0.2658  0.1166  0.1166  0.0967
  0.0967

 Free energy of the ion-electron system (eV)
  ---------------------------------------------------
  alpha Z        PSCENC =      3240.04927674
  Ewald energy   TEWEN  =    -43808.63305916
  -Hartree energ DENC   =    -13911.00575240
  -exchange      EXHF   =         0.00000000
  -V(xc)+E(xc)   XCENC  =      2663.53682192
  PAW double counting   =     76939.04666333   -78347.48679493
  entropy T*S    EENTRO =        -0.07250937
  eigenvalues    EBANDS =     -4971.50175788
  atomic energy  EATOM  =     57412.89542408
  Solvation  Ediel_sol  =         0.00000000
  ---------------------------------------------------
  free energy    TOTEN  =      -783.17168767 eV

  energy without entropy =     -783.09917831  energy(sigma->0) =     -783.13543299


--------------------------------------------------------------------------------------------------------




--------------------------------------- Iteration      1(  17)  ---------------------------------------


    POTLOK:  cpu time    0.3438: real time    0.3446
    SETDIJ:  cpu time    0.0438: real time    0.0439
     EDDAV:  cpu time    8.8509: real time    8.8719
    CHARGE:  cpu time    0.5659: real time    0.5673
    MIXING:  cpu time    0.0104: real time    0.0104
    --------------------------------------------
      LOOP:  cpu time    9.8148: real time    9.8380

 eigenvalue-minimisations  :  2368
 total energy-change (2. order) : 0.3641205E+00  (-0.2666762E+00)
 number of electron     686.9999994 magnetization      18.7952195
 augmentation part      195.6267516 magnetization      12.4152929

 Broyden mixing:
  rms(total) = 0.23274E+01    rms(broyden)= 0.23271E+01
  rms(prec ) = 0.25278E+01
  weight for this iteration     100.00

 eigenvalues of (default mixing * dielectric matrix)
  average eigenvalue GAMMA=   0.4139
  1.9146  0.5419  0.5419  0.3921  0.3921  0.3101  0.3101  0.1400  0.0990  0.0990
  0.1168  0.1088

 Free energy of the ion-electron system (eV)
  ---------------------------------------------------
  alpha Z        PSCENC =      3240.04927674
  Ewald energy   TEWEN  =    -43808.63305916
  -Hartree energ DENC   =    -13912.97244299
  -exchange      EXHF   =         0.00000000
  -V(xc)+E(xc)   XCENC  =      2663.89496426
  PAW double counting   =     77024.46770381   -78430.34651567
  entropy T*S    EENTRO =        -0.04071980
  eigenvalues    EBANDS =     -4972.12219848
  atomic energy  EATOM  =     57412.89542408
  Solvation  Ediel_sol  =         0.00000000
  ---------------------------------------------------
  free energy    TOTEN  =      -782.80756721 eV

  energy without entropy =     -782.76684740  energy(sigma->0) =     -782.78720731


--------------------------------------------------------------------------------------------------------




--------------------------------------- Iteration      1(  18)  ---------------------------------------


    POTLOK:  cpu time    0.3298: real time    0.3305
    SETDIJ:  cpu time    0.0452: real time    0.0453
     EDDAV:  cpu time    9.0114: real time    9.0327
    CHARGE:  cpu time    0.5459: real time    0.5472
    MIXING:  cpu time    0.0105: real time    0.0105
    --------------------------------------------
      LOOP:  cpu time    9.9427: real time    9.9662

 eigenvalue-minimisations  :  2432
 total energy-change (2. order) :-0.1680237E+00  (-0.7918732E-01)
 number of electron     686.9999993 magnetization      18.7729990
 augmentation part      195.9248868 magnetization      12.8517377

 Broyden mixing:
  rms(total) = 0.22068E+01    rms(broyden)= 0.22067E+01
  rms(prec ) = 0.23678E+01
  weight for this iteration     100.00

 eigenvalues of (default mixing * dielectric matrix)
  average eigenvalue GAMMA=   0.3957
  1.9135  0.5376  0.5376  0.4345  0.4345  0.3074  0.3074  0.1549  0.1118  0.1118
  0.0981  0.0981  0.0972

 Free energy of the ion-electron system (eV)
  ---------------------------------------------------
  alpha Z        PSCENC =      3240.04927674
  Ewald energy   TEWEN  =    -43808.63305916
  -Hartree energ DENC   =    -13912.00607883
  -exchange      EXHF   =         0.00000000
  -V(xc)+E(xc)   XCENC  =      2664.01915176
  PAW double counting   =     77121.89991138   -78526.93598243
  entropy T*S    EENTRO =        -0.06274344
  eigenvalues    EBANDS =     -4974.20149098
  atomic energy  EATOM  =     57412.89542408
  Solvation  Ediel_sol  =         0.00000000
  ---------------------------------------------------
  free energy    TOTEN  =      -782.97559088 eV

  energy without entropy =     -782.91284744  energy(sigma->0) =     -782.94421916


--------------------------------------------------------------------------------------------------------




--------------------------------------- Iteration      1(  19)  ---------------------------------------


    POTLOK:  cpu time    0.3446: real time    0.3454
    SETDIJ:  cpu time    0.0441: real time    0.0443
     EDDAV:  cpu time    8.9507: real time    8.9720
    CHARGE:  cpu time    0.5665: real time    0.5678
    MIXING:  cpu time    0.0107: real time    0.0107
    --------------------------------------------
      LOOP:  cpu time    9.9166: real time    9.9402

 eigenvalue-minimisations  :  2400
 total energy-change (2. order) :-0.5895324E-01  (-0.1344265E-01)
 number of electron     686.9999993 magnetization      18.8928738
 augmentation part      195.7936379 magnetization      13.1930618

 Broyden mixing:
  rms(total) = 0.22812E+01    rms(broyden)= 0.22811E+01
  rms(prec ) = 0.24416E+01
  weight for this iteration     100.00

 eigenvalues of (default mixing * dielectric matrix)
  average eigenvalue GAMMA=   0.4007
  1.9109  0.5364  0.5364  0.4794  0.4794  0.3299  0.3299  0.2247  0.1829  0.1829
  0.0975  0.0975  0.1108  0.1108

 Free energy of the ion-electron system (eV)
  ---------------------------------------------------
  alpha Z        PSCENC =      3240.04927674
  Ewald energy   TEWEN  =    -43808.63305916
  -Hartree energ DENC   =    -13912.06893736
  -exchange      EXHF   =         0.00000000
  -V(xc)+E(xc)   XCENC  =      2664.05262974
  PAW double counting   =     77130.50377820   -78535.23608370
  entropy T*S    EENTRO =        -0.04973445
  eigenvalues    EBANDS =     -4974.54783820
  atomic energy  EATOM  =     57412.89542408
  Solvation  Ediel_sol  =         0.00000000
  ---------------------------------------------------
  free energy    TOTEN  =      -783.03454411 eV

  energy without entropy =     -782.98480966  energy(sigma->0) =     -783.00967689


--------------------------------------------------------------------------------------------------------




--------------------------------------- Iteration      1(  20)  ---------------------------------------


    POTLOK:  cpu time    0.3409: real time    0.3417
    SETDIJ:  cpu time    0.0441: real time    0.0442
     EDDAV:  cpu time    9.2018: real time    9.2236
    CHARGE:  cpu time    0.5695: real time    0.5708
    MIXING:  cpu time    0.0109: real time    0.0109
    --------------------------------------------
      LOOP:  cpu time   10.1671: real time   10.1913

 eigenvalue-minimisations  :  2480
 total energy-change (2. order) :-0.6702291E-01  (-0.8221753E-02)
 number of electron     686.9999993 magnetization      19.1891511
 augmentation part      195.8240121 magnetization      13.1972280

 Broyden mixing:
  rms(total) = 0.22412E+01    rms(broyden)= 0.22412E+01
  rms(prec ) = 0.23814E+01
  weight for this iteration     100.00

 eigenvalues of (default mixing * dielectric matrix)
  average eigenvalue GAMMA=   0.3989
  1.9194  0.4849  0.4849  0.5221  0.5221  0.2813  0.3531  0.3531  0.2428  0.2428
  0.1591  0.0977  0.0977  0.1112  0.1112

 Free energy of the ion-electron system (eV)
  ---------------------------------------------------
  alpha Z        PSCENC =      3240.04927674
  Ewald energy   TEWEN  =    -43808.63305916
  -Hartree energ DENC   =    -13912.38217052
  -exchange      EXHF   =         0.00000000
  -V(xc)+E(xc)   XCENC  =      2664.06272930
  PAW double counting   =     77118.16297339   -78522.63056890
  entropy T*S    EENTRO =        -0.06718718
  eigenvalues    EBANDS =     -4974.55898478
  atomic energy  EATOM  =     57412.89542408
  Solvation  Ediel_sol  =         0.00000000
  ---------------------------------------------------
  free energy    TOTEN  =      -783.10156702 eV

  energy without entropy =     -783.03437984  energy(sigma->0) =     -783.06797343


--------------------------------------------------------------------------------------------------------




--------------------------------------- Iteration      1(  21)  ---------------------------------------


    POTLOK:  cpu time    0.3470: real time    0.3478
    SETDIJ:  cpu time    0.0438: real time    0.0439
     EDDAV:  cpu time    8.7283: real time    8.7491
    CHARGE:  cpu time    0.5694: real time    0.5707
    MIXING:  cpu time    0.0120: real time    0.0120
    --------------------------------------------
[...]
     10.37340      4.96883      4.28999        -0.000703      0.000657     -0.005332
      4.46010      4.93750      4.29484         0.002211      0.008947     -0.000917
      5.98000      9.80709      3.47851        -0.000613     -0.009644      0.004073
      5.95641      0.00267      5.14359        -0.015886     -0.000000      0.000000
      5.98000      4.95159      6.81676        -0.000613      0.009644     -0.004073
      7.41933      9.80230      5.96339        -0.003674     -0.016550      0.004771
      8.86727      4.95995      6.81922        -0.005598      0.007187     -0.002947
     10.37340      9.78985      6.00527        -0.000703     -0.000657      0.005332
      4.46010      9.82118      6.00043         0.002211     -0.008947      0.000917
     13.28318      7.46895      7.59881        -0.003722     -0.000085     -0.005871
      8.79693     12.06906      1.86207        -0.002242     -0.009417      0.015127
      1.60332      2.59957      0.77952        -0.000093      0.010931      0.000501
      7.42631      7.16762      7.59396         0.003244      0.006384      0.003520
      2.87826     12.23371      1.74136        -0.013770      0.010980      0.006987
      4.34222      2.68562      0.71781        -0.002242      0.009417     -0.015127
     10.46814      7.45468      7.60859        -0.003639      0.000160     -0.004282
      6.05803     12.15511      1.80037        -0.000093     -0.010931     -0.000501
      7.33297      2.52098      0.83853        -0.013770     -0.010980     -0.006987
      7.42631      7.59106      2.70130         0.003244     -0.006384     -0.003520
      7.42854     11.91228      4.28257         0.013072     -0.013728      0.011711
      8.82489      2.68747      3.52844        -0.057986      0.026417     -0.018421
      1.55872      7.30400      2.68667        -0.003639     -0.000160      0.004282
     10.20290     12.13079      4.32028        -0.002447     -0.011998      0.030218
      2.98776      2.69090      3.37188        -0.005455      0.012169      0.005671
      4.37376      7.28973      2.69645        -0.003722      0.000085      0.005871
      4.64396     12.21777      4.31444        -0.000570     -0.017859     -0.015834
      5.96056      2.54696      3.57699        -0.020636      0.011851     -0.003737
      6.04232      7.37934      5.14763        -0.000640     -0.000000      0.000000
      5.96056     12.21172      6.71828        -0.020636     -0.011851      0.003737
      7.42854      2.84641      6.01270         0.013072      0.013728     -0.011711
      8.79094      7.37934      5.14763        -0.001497     -0.000000      0.000000
      8.82489     12.07122      6.76682        -0.057986     -0.026417      0.018421
     10.20290      2.62789      5.97499        -0.002447      0.011998     -0.030218
     11.87620      7.37934      5.14763        -0.001726     -0.000000      0.000000
     11.89718     12.06778      6.92339        -0.005455     -0.012169     -0.005671
      4.64396      2.54091      5.98083        -0.000570      0.017859      0.015834
      0.10285     11.06916      0.08451         0.010056     -0.003938      0.005996
      8.82457      3.85089      0.03571        -0.004201      0.007975     -0.009377
      8.76282      1.45262      1.62991        -0.013679     -0.021558      0.002271
      8.99982      8.62544      1.69813         0.004799     -0.000501     -0.001907
      1.40319      6.14009      0.87618        -0.004404      0.006394     -0.000522
      1.59411     13.53085      0.63656         0.010484      0.023207     -0.004710
      2.97069     10.87971      0.10797        -0.002698     -0.005958      0.003942
      2.95896      3.87144      0.01618        -0.001282      0.009981     -0.002702
      3.03059      1.30463      1.71531         0.005521     -0.014188     -0.002475
      2.96276      8.79534      1.75780        -0.002321      0.003414      0.005378
      4.54511      6.12924      0.88176         0.004799      0.000501      0.001907
      4.30811     13.30207      0.94998        -0.013679      0.021558     -0.002271
      5.83497     11.06127      0.05993        -0.014851     -0.004258      0.013403
      6.01669      3.81319      0.03724        -0.003049      0.007672     -0.006306
      6.04882      1.22383      1.94332         0.010484     -0.023207      0.004710
      5.85790      8.61460      1.70370        -0.004404     -0.006394      0.000522
      7.41747      5.95934      0.82209        -0.002321     -0.003414     -0.005378
      7.48530     13.45006      0.86458         0.005521      0.014188      0.002475
      7.41367     10.88324      2.56371        -0.001282     -0.009981      0.002702
      7.42540      3.87498      2.47191        -0.002698      0.005958     -0.003942
      7.56283      1.11613      4.22492         0.000427     -0.022069      0.016935
      7.42186      8.69351      4.31371         0.001737     -0.008830     -0.000098
      8.87515      6.15208      3.30810        -0.002839      0.005052     -0.004982
      8.65842     13.44579      3.63419         0.011503     -0.015099      0.009293
      1.56198     10.94149      2.54265        -0.003049     -0.007672      0.006306
     10.28968      3.69341      2.51996        -0.014851      0.004258     -0.013403
     10.47858      1.17110      4.49915         0.028108      0.002900      0.000479
     10.48148      8.62868      4.22334        -0.004172     -0.002868      0.005833
      2.97358      5.96710      3.42541        -0.003806     -0.001034     -0.000600
      3.18497     13.69112      3.48213         0.032210     -0.007842      0.012949
      4.36986     10.90379      2.54418        -0.004201     -0.007975      0.009377
      4.55756      3.68552      2.49537         0.010056      0.003938     -0.005996
      4.41596      1.17043      4.21088         0.014320     -0.008907     -0.015992
      4.36970      8.62803      4.23375        -0.013043      0.007943     -0.000151
      5.96251      6.15083      3.32486        -0.001565     -0.000668     -0.005741
      5.96056     13.67566      3.30576         0.005115     -0.003409     -0.015234
      5.91803     10.93758      5.17084         0.004588     -0.011737      0.004443
      5.91803      3.82110      5.12443         0.004588      0.011737     -0.004443
      5.96056      1.08303      6.98950         0.005115      0.003409      0.015234
      5.96251      8.60786      6.97040        -0.001565      0.000668      0.005741
      7.42186      6.06518      5.98155         0.001737      0.008830      0.000098
      7.56283     13.64255      6.07035         0.000427      0.022069     -0.016935
      8.92941     10.88663      5.18075        -0.005123     -0.013134      0.008787
      8.92941      3.87205      5.11451        -0.005123      0.013134     -0.008787
      8.65842      1.31290      6.66108         0.011503      0.015099     -0.009293
      8.87515      8.60660      6.98716        -0.002839     -0.005052      0.004982
     10.48148      6.13001      6.07192        -0.004172      0.002868     -0.005833
     10.47858     13.58758      5.79611         0.028108     -0.002900     -0.000479
      2.96628     11.14327      5.04471         0.007078      0.001832      0.003124
     11.87570      3.61541      5.25056         0.007078     -0.001832     -0.003124
     12.09439      1.06757      6.81314         0.032210      0.007842     -0.012949
     11.88300      8.79158      6.86986        -0.003806      0.001034      0.000600
      4.36970      6.13065      6.06151        -0.013043     -0.007943      0.000151
      4.41596     13.58825      6.08438         0.014320      0.008907      0.015992
 -----------------------------------------------------------------------------------
    total drift:                                0.011272     -0.000002      0.001747


--------------------------------------------------------------------------------------------------------



  FREE ENERGIE OF THE ION-ELECTRON SYSTEM (eV)
  ---------------------------------------------------
  free  energy   TOTEN  =      -785.2275378192 eV

  energy  without entropy=     -785.1614442855  energy(sigma->0) =     -785.19449105
 
 d Force = 0.1647250E-02[ 0.157E-02, 0.172E-02]  d Energy = 0.1646563E-02 0.687E-06
 d Force =-0.9305666E+00[-0.934E+00,-0.927E+00]  d Ewald  =-0.5017895E+01 0.409E+01


--------------------------------------------------------------------------------------------------------


    POTLOK:  cpu time    0.3712: real time    0.3720


--------------------------------------------------------------------------------------------------------


 Quasi-Newton relaxation of ions (Broydens 2nd method)
  g(Force)  = 0.246E-02   g(Stress)= 0.905E-05

 retain information from N=  1 steps
 eigenvalues of (default step * inverse Hessian matrix)
  average eigenvalue of G=   0.4642
 eigenvalue spectrum of G is  0.4642


--------------------------------------------------------------------------------------------------------


     LOOP+:  cpu time  117.4817: real time  117.8582
    4ORBIT:  cpu time    0.0000: real time    0.0000

volume of typ            1:    11.9 %

volume of typ            2:     9.4 %

volume of typ            3:    20.8 %

volume of typ            4:     8.7 %
 
total charge     
 
# of ion       s       p       d       tot
------------------------------------------
    1        0.258   6.129   2.105   8.493
    2        0.289   6.172   1.966   8.427
    3        0.290   6.172   1.967   8.429
    4        0.257   6.127   2.111   8.495
    5        0.289   6.172   1.966   8.427
    6        0.290   6.172   1.967   8.429
    7        0.257   6.127   2.111   8.495
    8        0.289   6.172   1.978   8.439
    9        0.258   6.129   2.105   8.493
   10        0.276   6.168   1.953   8.396
   11        0.285   6.182   1.942   8.409
   12        0.289   6.172   1.978   8.439
   13        0.205   0.224   7.941   8.370
   14        0.208   0.203   8.150   8.560
   15        0.205   0.224   7.941   8.370
   16        0.207   0.227   7.914   8.348
   17        0.208   0.226   7.917   8.350
   18        0.208   0.203   8.150   8.560
   19        0.203   0.219   7.947   8.370
   20        0.201   0.216   7.948   8.365
   21        0.207   0.227   7.915   8.349
   22        0.174   0.183   8.039   8.395
   23        0.207   0.227   7.915   8.349
   24        0.207   0.227   7.914   8.348
   25        0.208   0.226   7.917   8.350
   26        0.203   0.219   7.947   8.370
   27        0.201   0.216   7.948   8.365
   28        2.079   0.270   0.101   2.450
   29        2.080   0.270   0.101   2.451
   30        2.077   0.263   0.100   2.441
   31        2.077   0.258   0.098   2.433
   32        2.081   0.277   0.111   2.469
   33        2.080   0.270   0.101   2.451
   34        2.079   0.268   0.101   2.449
   35        2.078   0.263   0.100   2.441
   36        2.081   0.277   0.111   2.469
   37        2.077   0.258   0.098   2.433
   38        2.088   0.286   0.108   2.482
   39        2.081   0.271   0.102   2.453
   40        2.079   0.268   0.101   2.449
   41        2.079   0.267   0.100   2.446
   42        2.066   0.234   0.088   2.388
   43        2.079   0.270   0.101   2.450
   44        2.070   0.241   0.088   2.399
   45        2.074   0.251   0.094   2.420
   46        2.062   0.217   0.079   2.359
   47        2.074   0.251   0.094   2.420
   48        2.088   0.286   0.108   2.482
   49        2.062   0.216   0.079   2.357
   50        2.081   0.271   0.102   2.453
   51        2.079   0.267   0.100   2.446
   52        2.077   0.266   0.101   2.444
   53        2.066   0.234   0.088   2.388
   54        2.070   0.241   0.088   2.399
   55        1.255   2.830   0.005   4.090
   56        1.246   2.850   0.004   4.100
   57        1.250   2.837   0.010   4.097
   58        1.254   2.825   0.005   4.085
   59        1.254   2.825   0.006   4.085
   60        1.252   2.849   0.005   4.107
   61        1.246   2.854   0.004   4.104
   62        1.240   2.821   0.004   4.065
   63        1.248   2.831   0.006   4.086
   64        1.243   2.863   0.004   4.110
   65        1.254   2.825   0.005   4.085
   66        1.250   2.837   0.010   4.097
   67        1.255   2.828   0.005   4.089
   68        1.243   2.852   0.004   4.099
   69        1.252   2.849   0.005   4.107
   70        1.254   2.825   0.006   4.085
   71        1.243   2.863   0.004   4.110
   72        1.248   2.831   0.006   4.086
   73        1.240   2.821   0.004   4.065
   74        1.246   2.854   0.004   4.104
   75        1.251   2.843   0.006   4.100
   76        1.243   2.811   0.004   4.059
   77        1.253   2.828   0.005   4.087
   78        1.252   2.845   0.005   4.101
   79        1.243   2.852   0.004   4.099
   80        1.255   2.828   0.005   4.089
   81        1.250   2.847   0.006   4.103
   82        1.252   2.830   0.005   4.088
   83        1.241   2.807   0.004   4.052
   84        1.252   2.847   0.005   4.103
   85        1.246   2.850   0.004   4.100
   86        1.255   2.830   0.005   4.090
   87        1.250   2.839   0.005   4.094
   88        1.253   2.829   0.005   4.088
   89        1.254   2.829   0.006   4.089
   90        1.248   2.835   0.005   4.088
   91        1.241   2.814   0.004   4.058
   92        1.241   2.814   0.004   4.058
   93        1.248   2.835   0.005   4.088
   94        1.254   2.829   0.006   4.089
   95        1.243   2.811   0.004   4.059
   96        1.251   2.843   0.006   4.100
   97        1.240   2.820   0.004   4.064
   98        1.240   2.820   0.004   4.064
   99        1.252   2.845   0.005   4.101
  100        1.253   2.828   0.005   4.087
  101        1.252   2.830   0.005   4.088
  102        1.250   2.847   0.006   4.103
  103        1.257   2.823   0.005   4.085
  104        1.257   2.823   0.005   4.085
  105        1.252   2.847   0.005   4.103
  106        1.241   2.807   0.004   4.052
  107        1.253   2.829   0.005   4.088
  108        1.250   2.839   0.005   4.094
--------------------------------------------------
tot         129.90  237.20  146.57  513.66
 
magnetization (x)
 
# of ion       s       p       d       tot
------------------------------------------
    1       -0.000  -0.001  -0.012  -0.013
    2       -0.001  -0.001  -0.009  -0.011
    3       -0.000  -0.000   0.001   0.001
    4       -0.000  -0.001  -0.014  -0.015
    5       -0.001  -0.001  -0.009  -0.011
    6       -0.000  -0.000   0.001   0.001
    7       -0.000  -0.001  -0.014  -0.015
    8       -0.000  -0.000  -0.001  -0.001
    9       -0.000  -0.001  -0.012  -0.013
   10        0.001   0.000   0.022   0.023
   11        0.001   0.001   0.023   0.025
   12       -0.000  -0.000  -0.001  -0.001
   13        0.011   0.000   1.368   1.379
   14        0.000  -0.000   0.008   0.008
   15        0.011   0.000   1.368   1.379
   16       -0.000   0.004   1.493   1.496
   17       -0.001   0.003   1.487   1.489
   18        0.000  -0.000   0.008   0.008
   19        0.011   0.001   1.346   1.358
   20       -0.012  -0.002  -1.314  -1.329
   21       -0.000   0.004   1.490   1.493
   22       -0.003  -0.001  -1.129  -1.132
   23       -0.000   0.004   1.490   1.493
   24       -0.000   0.004   1.493   1.496
   25       -0.001   0.003   1.487   1.489
   26        0.011   0.001   1.346   1.358
   27       -0.012  -0.002  -1.314  -1.329
   28        0.001   0.004   0.001   0.007
   29        0.001   0.002   0.001   0.004
   30        0.001   0.005   0.001   0.007
   31        0.002   0.004   0.001   0.006
   32        0.002   0.005   0.001   0.008
   33        0.001   0.002   0.001   0.004
   34        0.000   0.003   0.001   0.005
   35        0.001   0.005   0.001   0.007
   36        0.002   0.005   0.001   0.008
   37        0.002   0.004   0.001   0.006
   38       -0.000  -0.001   0.001   0.000
   39        0.002   0.005   0.001   0.008
   40        0.000   0.003   0.001   0.005
   41        0.001   0.002   0.000   0.004
   42       -0.001  -0.002  -0.000  -0.003
   43        0.001   0.004   0.001   0.007
   44        0.002   0.006   0.002   0.010
   45        0.003   0.006   0.002   0.011
   46        0.003   0.007   0.002   0.012
   47        0.003   0.006   0.002   0.011
   48       -0.000  -0.001   0.001   0.000
   49        0.003   0.006   0.002   0.010
   50        0.002   0.005   0.001   0.008
   51        0.001   0.002   0.000   0.004
   52        0.003   0.009   0.003   0.015
   53       -0.001  -0.002  -0.000  -0.003
   54        0.002   0.006   0.002   0.010
   55        0.000   0.007  -0.000   0.007
   56        0.004   0.045   0.000   0.049
   57        0.000   0.001  -0.000   0.001
   58        0.008   0.080   0.000   0.088
   59        0.008   0.078   0.000   0.087
   60        0.000   0.001   0.000   0.001
   61        0.004   0.045   0.000   0.049
   62        0.014   0.203   0.000   0.217
   63        0.000   0.001  -0.000   0.001
   64        0.000   0.001   0.000   0.001
   65        0.008   0.080   0.000   0.088
   66        0.000   0.001  -0.000   0.001
   67        0.008   0.085   0.000   0.092
   68        0.004   0.042   0.000   0.046
   69        0.000   0.001   0.000   0.001
   70        0.008   0.078   0.000   0.087
   71        0.000   0.001   0.000   0.001
   72        0.000   0.001  -0.000   0.001
   73        0.014   0.203   0.000   0.217
   74        0.004   0.045   0.000   0.049
   75       -0.004  -0.040  -0.000  -0.044
   76        0.016   0.260   0.000   0.277
   77        0.008   0.075   0.000   0.083
   78        0.000  -0.000   0.000   0.000
   79        0.004   0.042   0.000   0.046
   80        0.008   0.085   0.000   0.092
   81        0.000   0.001   0.000   0.001
   82        0.008   0.078   0.000   0.086
   83        0.003   0.056   0.000   0.059
   84        0.000   0.001   0.000   0.001
   85        0.004   0.045   0.000   0.049
   86        0.000   0.007  -0.000   0.007
   87       -0.003  -0.041  -0.000  -0.044
   88       -0.001  -0.005   0.000  -0.006
   89       -0.000  -0.003   0.000  -0.003
   90       -0.003  -0.038   0.000  -0.041
   91        0.008   0.107   0.000   0.115
   92        0.008   0.107   0.000   0.115
   93       -0.003  -0.038   0.000  -0.041
   94       -0.000  -0.003   0.000  -0.003
   95        0.016   0.260   0.000   0.277
   96       -0.004  -0.040  -0.000  -0.044
   97        0.014   0.204   0.000   0.218
   98        0.014   0.204   0.000   0.218
   99        0.000  -0.000   0.000   0.000
  100        0.008   0.075   0.000   0.083
  101        0.008   0.078   0.000   0.086
  102        0.000   0.001   0.000   0.001
  103        0.000   0.004  -0.000   0.004
  104        0.000   0.004  -0.000   0.004
  105        0.000   0.001   0.000   0.001
  106        0.003   0.056   0.000   0.059
  107       -0.001  -0.005   0.000  -0.006
  108       -0.003  -0.041  -0.000  -0.044
--------------------------------------------------
tot           0.24    2.60   10.64   13.48
 

 total amount of memory used by VASP MPI-rank0   171066. kBytes
=======================================================================

   base      :      30000. kBytes
   nonlr-proj:      47563. kBytes
   fftplans  :      11390. kBytes
   grid      :      69016. kBytes
   one-center:       1679. kBytes
   wavefun   :      11418. kBytes
 
  
  
 General timing and accounting informations for this job:
 ========================================================
  
                  Total CPU time used (sec):     3716.294
                            User time (sec):     3701.387
                          System time (sec):       14.907
                         Elapsed time (sec):     3731.542
  
                   Maximum memory used (kb):      239336.
                   Average memory used (kb):           0.
  
                          Minor page faults:        41347
                          Major page faults:            8
                 Voluntary context switches:         1334
