 vasp.5.4.4.18Apr17-6-g9f103f2a35 (build May 12 2020 05:39:39) gamma-only       
  
 MD_VERSION_INFO: Compiled 2020-05-12T12:39:39-UTC in devlin.sd.materialsdesign.
 com:/home/medea2/data/build/wwolf/vasp-gpu5.4.4/13047/x86_64/src/src/build/gam 
 from svn 13047
 
 This VASP executable licensed from Materials Design, Inc.
 
 executed on                        Lin64 date 2023.04.01  03:52:55
 running on   16 total cores
 distrk:  each k-point on   16 cores,    1 groups
 distr:  one band on NCORES_PER_BAND=   1 cores,   16 groups


--------------------------------------------------------------------------------------------------------


 INCAR:
 POTCAR:    PAW_PBE Ta_pv 07Sep2000               
 POTCAR:    PAW_PBE Ni 02Aug2007                  
 POTCAR:    PAW_PBE Li_sv 10Sep2004               
 POTCAR:    PAW_PBE O 08Apr2002                   

 ----------------------------------------------------------------------------- 
|                                                                             |
|           W    W    AA    RRRRR   N    N  II  N    N   GGGG   !!!           |
|           W    W   A  A   R    R  NN   N  II  NN   N  G    G  !!!           |
|           W    W  A    A  R    R  N N  N  II  N N  N  G       !!!           |
|           W WW W  AAAAAA  RRRRR   N  N N  II  N  N N  G  GGG   !            |
|           WW  WW  A    A  R   R   N   NN  II  N   NN  G    G                |
|           W    W  A    A  R    R  N    N  II  N    N   GGGG   !!!           |
|                                                                             |
|      For optimal performance we recommend to set                            |
|        NCORE= 4 - approx SQRT( number of cores)                             |
|      NCORE specifies how many cores store one orbital (NPAR=cpu/NCORE).     |
|      This setting can  greatly improve the performance of VASP for DFT.     |
|      The default,   NCORE=1            might be grossly inefficient         |
|      on modern multi-core architectures or massively parallel machines.     |
|      Do your own testing !!!!                                               |
|      Unfortunately you need to use the default for GW and RPA calculations. |
|      (for HF NCORE is supported but not extensively tested yet)             |
|                                                                             |
 ----------------------------------------------------------------------------- 

 POTCAR:    PAW_PBE Ta_pv 07Sep2000               
  local pseudopotential read in
  partial core-charges read in
  partial kinetic energy density read in
  atomic valenz-charges read in
  non local Contribution for L=           1  read in
    real space projection operators read in
  non local Contribution for L=           1  read in
    real space projection operators read in
  non local Contribution for L=           2  read in
    real space projection operators read in
  non local Contribution for L=           2  read in
    real space projection operators read in
  non local Contribution for L=           0  read in
    real space projection operators read in
  non local Contribution for L=           0  read in
    real space projection operators read in
    PAW grid and wavefunctions read in
 
   number of l-projection  operators is LMAX  =           6
   number of lm-projection operators is LMMAX =          18
 
 POTCAR:    PAW_PBE Ni 02Aug2007                  
  local pseudopotential read in
  partial core-charges read in
  partial kinetic energy density read in
  atomic valenz-charges read in
  non local Contribution for L=           2  read in
    real space projection operators read in
  non local Contribution for L=           2  read in
    real space projection operators read in
  non local Contribution for L=           0  read in
    real space projection operators read in
  non local Contribution for L=           0  read in
    real space projection operators read in
  non local Contribution for L=           1  read in
    real space projection operators read in
  non local Contribution for L=           1  read in
    real space projection operators read in
    PAW grid and wavefunctions read in
 
   number of l-projection  operators is LMAX  =           6
   number of lm-projection operators is LMMAX =          18
 
 POTCAR:    PAW_PBE Li_sv 10Sep2004               
  local pseudopotential read in
  atomic valenz-charges read in
  non local Contribution for L=           0  read in
    real space projection operators read in
  non local Contribution for L=           0  read in
    real space projection operators read in
  non local Contribution for L=           1  read in
    real space projection operators read in
    PAW grid and wavefunctions read in
 
   number of l-projection  operators is LMAX  =           3
   number of lm-projection operators is LMMAX =           5
 
 POTCAR:    PAW_PBE O 08Apr2002                   
  local pseudopotential read in
  partial core-charges read in
  partial kinetic energy density read in
  kinetic energy density of atom read in
  atomic valenz-charges read in
  non local Contribution for L=           0  read in
    real space projection operators read in
  non local Contribution for L=           0  read in
    real space projection operators read in
  non local Contribution for L=           1  read in
    real space projection operators read in
  non local Contribution for L=           1  read in
    real space projection operators read in
    PAW grid and wavefunctions read in
 
   number of l-projection  operators is LMAX  =           4
   number of lm-projection operators is LMMAX =           8
 
 Optimization of the real space projectors (new method)

 maximal supplied QI-value         = 15.12
 optimisation between [QCUT,QGAM] = [ 11.34, 22.83] = [ 36.00,145.93] Ry 
 Optimized for a Real-space Cutoff    1.61 Angstroem

   l    n(q)    QCUT    max X(q) W(low)/X(q) W(high)/X(q)  e(spline) 
   1     11    11.338     4.092    0.40E-05    0.64E-05    0.47E-07
   1     11    11.338     4.834    0.13E-04    0.44E-04    0.21E-06
   2     10    11.338    62.294    0.15E-03    0.31E-03    0.77E-06
   2     10    11.338    50.966    0.15E-03    0.31E-03    0.77E-06
   0     11    11.338   103.792    0.33E-04    0.19E-04    0.90E-07
   0     11    11.338    56.335    0.26E-04    0.17E-04    0.79E-07
 Optimization of the real space projectors (new method)

 maximal supplied QI-value         = 16.25
 optimisation between [QCUT,QGAM] = [ 11.38, 22.75] = [ 36.24,144.96] Ry 
 Optimized for a Real-space Cutoff    1.47 Angstroem

   l    n(q)    QCUT    max X(q) W(low)/X(q) W(high)/X(q)  e(spline) 
   2      9    11.376    60.317    0.17E-03    0.16E-04    0.16E-06
   2      9    11.376    55.921    0.17E-03    0.16E-04    0.17E-06
   0     10    11.376    51.690    0.45E-04    0.60E-04    0.21E-06
   0     10    11.376    30.015    0.37E-04    0.55E-04    0.19E-06
   1     10    11.376    18.849    0.83E-04    0.11E-03    0.92E-07
   1     10    11.376    14.624    0.69E-04    0.92E-04    0.82E-07
 Optimization of the real space projectors (new method)

 maximal supplied QI-value         = 22.11
 optimisation between [QCUT,QGAM] = [ 11.28, 22.77] = [ 35.61,145.23] Ry 
 Optimized for a Real-space Cutoff    1.10 Angstroem

   l    n(q)    QCUT    max X(q) W(low)/X(q) W(high)/X(q)  e(spline) 
   0      7    11.276    10.506    0.54E-04    0.58E-04    0.16E-07
   0      7    11.276     8.367    0.11E-03    0.14E-03    0.35E-07
   1      7    11.276     8.983    0.23E-03    0.43E-03    0.86E-07
 Optimization of the real space projectors (new method)

 maximal supplied QI-value         = 24.76
 optimisation between [QCUT,QGAM] = [ 11.39, 22.77] = [ 36.31,145.25] Ry 
 Optimized for a Real-space Cutoff    1.10 Angstroem

   l    n(q)    QCUT    max X(q) W(low)/X(q) W(high)/X(q)  e(spline) 
   0      7    11.387    20.381    0.22E-03    0.48E-03    0.18E-06
   0      7    11.387    15.268    0.22E-03    0.52E-03    0.19E-06
   1      7    11.387     5.964    0.22E-03    0.73E-03    0.24E-06
   1      7    11.387     5.382    0.19E-03    0.60E-03    0.21E-06

 ----------------------------------------------------------------------------- 
|                                                                             |
|  ADVICE TO THIS USER RUNNING 'VASP/VAMP'   (HEAR YOUR MASTER'S VOICE ...):  |
|                                                                             |
|      You enforced a specific xc-type in the INCAR file,                     |
|      a different type was found on the POTCAR file                          |
|          I HOPE YOU KNOW, WHAT YOU ARE  DOING                               |
|                                                                             |
 ----------------------------------------------------------------------------- 

  PAW_PBE Ta_pv 07Sep2000               :
 energy of atom  1       EATOM=-1047.1984
 kinetic energy error for atom=    0.0019 (will be added to EATOM!!)
  PAW_PBE Ni 02Aug2007                  :
 energy of atom  2       EATOM=-1077.6739
 kinetic energy error for atom=    0.0030 (will be added to EATOM!!)
  PAW_PBE Li_sv 10Sep2004               :
 energy of atom  3       EATOM= -202.7858
 kinetic energy error for atom=    0.0143 (will be added to EATOM!!)
  PAW_PBE O 08Apr2002                   :
 energy of atom  4       EATOM= -432.3788
 kinetic energy error for atom=    0.0224 (will be added to EATOM!!)
 
 
 POSCAR: ce245456_1                              
  positions in direct lattice
  No initial velocities read in
 exchange correlation table for  LEXCH =       14
   RHO(1)=    0.500       N(1)  =     2000
   RHO(2)=  100.500       N(2)  =     4000
 


--------------------------------------------------------------------------------------------------------


 ion  position               nearest neighbor table
   1  0.000  0.998  0.999- 105 2.07  60 2.07  57 2.09 108 2.10  93 2.15  72 2.15   8 2.86  12 2.86
                             4 2.91   6 2.92  25 2.93  19 2.98  53 3.01  30 3.04  36 3.07  29 3.08
   2  0.882  0.335  0.226-  77 2.07  56 2.07  80 2.07  71 2.07  74 2.12  59 2.15   7 2.86   9 2.86
                            20 2.93  26 2.95  36 3.02   5 3.03  13 3.03  37 3.04  28 3.09  40 3.09
   3  0.109  0.667  0.113-  58 2.00  55 2.00  64 2.00  79 2.00  61 2.01  94 2.01  17 2.89  18 2.90
                            21 2.91  16 2.93  27 2.93  31 2.94  47 2.94  23 2.95  29 2.99  32 2.99
   4  0.333  0.997  0.999-  99 2.07  60 2.07  63 2.10  96 2.10  66 2.15  93 2.16  12 2.86  10 2.87
                             1 2.91   6 2.93  24 2.93  19 2.97  48 3.00  30 3.01  50 3.01  33 3.06
   5  0.233  0.337  0.215-  83 2.01  86 2.06  80 2.12  59 2.13  65 2.14  62 2.16  14 2.76   7 2.87
                            13 2.88  22 2.94  43 2.98  20 3.00  33 3.01   2 3.03  40 3.08  30 3.09
   6  0.661  0.996  0.012- 102 2.03  99 2.11 105 2.12  72 2.14  66 2.15  69 2.21   8 2.75  10 2.76
                             1 2.92   4 2.93  24 2.99  25 2.99  35 2.99  33 3.04  36 3.05  53 3.06
   7  0.557  0.336  0.222-  68 2.07  89 2.07  86 2.10  71 2.10  65 2.15  74 2.16   2 2.86   5 2.87
                             9 2.91  14 2.93  26 2.93  22 2.97  36 3.00  45 3.01  34 3.01  33 3.06
   8  0.670  0.997  0.322-  78 2.02  57 2.07  75 2.13  72 2.13  90 2.13  69 2.16   6 2.75   1 2.86
                            10 2.88  19 2.95  29 2.97  24 3.02  12 3.03  39 3.05  36 3.07  38 3.08
   9  0.557  0.336  0.555-  98 2.07  89 2.07  92 2.09  77 2.10  74 2.15  95 2.15  13 2.86   2 2.86
                             7 2.91  14 2.92  20 2.93  22 2.98  49 3.01  45 3.04  48 3.07  46 3.08
  10  0.341  0.996  0.322-  84 2.01  63 2.06  87 2.12  90 2.13  66 2.14  69 2.16   6 2.76   4 2.87
                             8 2.88  19 2.94  32 2.98  25 3.00  33 3.01  12 3.03  44 3.08  45 3.09
  11  0.442  0.667  0.447-  91 2.00  76 2.00  85 2.00  88 2.00  70 2.01  73 2.01  23 2.89  27 2.90
                            21 2.91  16 2.93  18 2.93  35 2.94  37 2.94  17 2.95  46 2.99  43 2.99
  12  0.329  0.998  0.674- 108 2.07  75 2.07  87 2.07  96 2.07  93 2.12  90 2.15   4 2.86   1 2.86
                            25 2.93  24 2.95  48 3.02  10 3.03   8 3.03  47 3.04  38 3.09  44 3.09
  13  0.234  0.337  0.886- 107 2.02  92 2.07  56 2.13  95 2.13  59 2.13  62 2.16  14 2.75   9 2.86
                             5 2.88  22 2.95  46 2.97  26 3.02   2 3.03  54 3.05  48 3.07  28 3.08
  14  0.544  0.338  0.895- 101 2.03  68 2.11  98 2.12  95 2.14  65 2.15  62 2.21  13 2.75   5 2.76
                             9 2.92   7 2.93  26 2.99  20 2.99  31 2.99  33 3.04  48 3.05  49 3.06
  15  0.782  0.667  0.773- 103 2.00  82 2.00  67 2.01 100 2.01  97 2.01 106 2.01  21 2.87  27 2.89
                            18 2.89  17 2.94  23 2.94  16 2.96  53 2.98  49 2.98  50 2.99  34 2.99
  16  0.444  0.667  0.112-  61 2.06  70 2.06  85 2.06  64 2.06  67 2.06 100 2.06  35 2.84  31 2.84
                            21 2.92  11 2.93   3 2.93  17 2.93  23 2.93  15 2.96
  17  0.780  0.667  0.110-  55 2.05  67 2.06  58 2.06  70 2.06  73 2.07 106 2.08  35 2.84   3 2.89
                            27 2.90  18 2.93  16 2.93  15 2.94  11 2.95
  18  0.778  0.668  0.445-  97 2.05  73 2.06  76 2.06  58 2.06  79 2.07  82 2.08  15 2.89   3 2.90
                            23 2.90  21 2.91  17 2.93  11 2.93
  19  0.996  1.000  0.341-  81 2.00  78 2.05  84 2.06  63 2.10  60 2.12  57 2.12  41 2.80  24 2.85
                            25 2.85  10 2.94   8 2.95   4 2.97   1 2.98
  20  0.890  0.333  0.557- 104 2.00 101 2.05  80 2.08  83 2.09  98 2.09  77 2.15  22 2.85  26 2.87
                             9 2.93   2 2.93  14 2.99   5 3.00
  21  0.110  0.667  0.445-  85 2.05  64 2.05 103 2.06  82 2.06  79 2.07  88 2.07  15 2.87  27 2.91
                            18 2.91  11 2.91   3 2.91  16 2.92
  22  0.215  0.334  0.559- 104 2.00 107 2.05  83 2.06  86 2.10  89 2.12  92 2.12  52 2.80  26 2.85
                            20 2.85   5 2.94  13 2.95   7 2.97   9 2.98
  23  0.445  0.666  0.776-  76 2.05 100 2.06  91 2.06  61 2.06  94 2.07  97 2.08  31 2.84  11 2.89
                            18 2.90  27 2.93  16 2.93  15 2.94   3 2.95
  24  0.670  1.000  0.666-  81 2.01 102 2.04  99 2.08  78 2.08  75 2.08  96 2.16  19 2.85  25 2.87
                             4 2.93  12 2.95   6 2.99   8 3.02
  25  0.998  0.001  0.666-  81 2.00 102 2.05  87 2.08  84 2.09 105 2.09 108 2.15  19 2.85  24 2.87
                             1 2.93  12 2.93   6 2.99  10 3.00
  26  0.890  0.334  0.885- 104 2.01 101 2.04  68 2.08 107 2.08  56 2.08  71 2.16  22 2.85  20 2.87
                             7 2.93   2 2.95  14 2.99  13 3.02
  27  0.110  0.666  0.778- 106 2.05  94 2.06  55 2.06  91 2.06  88 2.07 103 2.08  15 2.89  11 2.90
                            17 2.90  21 2.91  23 2.93   3 2.93
  28  0.994  0.503  0.989- 106 2.05  71 2.05 107 2.09  94 2.14  59 2.17  58 2.18   3 3.04  13 3.08
                             2 3.09
  29  0.880  0.829  0.233-  72 2.03  79 2.07  78 2.09  73 2.11  55 2.18  60 2.19   8 2.97   3 2.99
                             1 3.08
  30  0.111  0.163  0.119-  62 1.99  63 2.07  93 2.07  57 2.10  80 2.11  56 2.20   4 3.01   1 3.04
                             5 3.09   2 3.10
  31  0.347  0.511  0.993- 100 2.03  94 2.07  65 2.08  95 2.08  64 2.09  59 2.26  23 2.84  16 2.84
                             3 2.94  14 2.99   5 3.10  13 3.11
  32  0.220  0.829  0.232-  66 2.04  79 2.07  85 2.09  84 2.10  61 2.16  60 2.19  10 2.98   3 2.99
                             4 3.07
  33  0.445  0.167  0.111-  62 2.02  69 2.02  68 2.12  99 2.12  86 2.12  63 2.12   5 3.01  10 3.01
                            14 3.04   6 3.04   7 3.06   4 3.06
  34  0.668  0.505  0.006-  65 2.02 106 2.07  71 2.08  70 2.13 100 2.14 101 2.23  15 2.99   7 3.01
                            14 3.08
  35  0.563  0.822  0.208-  67 2.03  73 2.07  66 2.08  72 2.08  85 2.09  90 2.26  17 2.84  16 2.84
                            11 2.94   6 2.99  10 3.10   8 3.11
  36  0.777  0.170  0.104-  69 2.07  68 2.08  74 2.09 105 2.09  56 2.15  57 2.17   7 3.00   2 3.02
                             6 3.05   8 3.07   1 3.07
  37  0.679  0.511  0.326-  58 2.01  70 2.07  76 2.08  71 2.11  77 2.12  11 2.94   2 3.04
  38  0.566  0.830  0.561-  97 2.05  96 2.05  78 2.09  73 2.14  90 2.17  91 2.18  11 3.04   8 3.08
                            12 3.09
  39  0.785  0.158  0.453-  81 1.99  57 2.11  75 2.14  98 2.19  80 2.22  74 2.22   8 3.05
  40  0.994  0.503  0.350-  82 2.04  77 2.06  83 2.08  64 2.14  58 2.17  59 2.18   3 3.03   5 3.08
                             2 3.09
  41  0.891  0.845  0.550-  84 2.08  78 2.08 102 2.13 103 2.24  97 2.24  79 2.25  19 2.80
  42  0.095  0.167  0.461- 104 2.07  81 2.07  80 2.16  87 2.16  86 2.23  63 2.23
  43  0.324  0.505  0.335-  65 2.04  88 2.07  64 2.09  83 2.10  70 2.16  89 2.19   5 2.98  11 2.99
                             7 3.07
  44  0.206  0.830  0.562- 103 2.04 108 2.06  84 2.08  85 2.14  91 2.17  90 2.18  11 3.03  10 3.08
                            12 3.09
  45  0.437  0.170  0.445-  69 1.99  86 2.07  74 2.07  92 2.10  87 2.11  75 2.20   7 3.01   9 3.04
                            10 3.09  12 3.10
  46  0.323  0.504  0.676-  95 2.03  88 2.07 107 2.09  94 2.11  76 2.18  89 2.19  13 2.97  11 2.99
                             9 3.08
  47  0.229  0.823  0.876-  91 2.01  61 2.07  55 2.08  96 2.11 108 2.12   3 2.94  12 3.04
  48  0.452  0.164  0.778-  62 2.07  99 2.08  93 2.09  98 2.09  75 2.15  92 2.17   4 3.00  12 3.02
                            14 3.05  13 3.07   9 3.07
  49  0.669  0.504  0.660-  95 2.02  82 2.08  77 2.08  76 2.12 100 2.14 101 2.20  15 2.98   9 3.01
                            14 3.06
  50  0.550  0.828  0.887-  66 2.02  97 2.07  96 2.08  61 2.13  67 2.14 102 2.23  15 2.99   4 3.01
                             6 3.08
  51  0.794  0.167  0.762- 104 2.06  81 2.06  98 2.14 105 2.14  68 2.26  99 2.26
  52  0.005  0.488  0.664-  83 2.08 107 2.08 101 2.13  82 2.24 106 2.24  88 2.25  22 2.80
  53  0.896  0.829  0.887-  72 2.02 103 2.08 108 2.08  55 2.12  67 2.14 102 2.20  15 2.98   1 3.01
                             6 3.06
  54  0.103  0.176  0.770- 104 1.99  92 2.11  56 2.14 105 2.19  87 2.22  93 2.22  13 3.05
  55  0.004  0.744  0.001-   3 2.00  17 2.05  27 2.06  47 2.08  53 2.12  29 2.18
  56  0.002  0.256  0.002-   2 2.07  26 2.08  13 2.13  54 2.14  36 2.15  30 2.20
  57  0.887  0.081  0.221-   8 2.07   1 2.09  30 2.10  39 2.11  19 2.12  36 2.17
  58  0.893  0.589  0.221-   3 2.00  37 2.01  17 2.06  18 2.06  40 2.17  28 2.18
  59  0.109  0.421  0.112-   5 2.13  13 2.13   2 2.15  28 2.17  40 2.18  31 2.26
  60  0.110  0.918  0.113-   4 2.07   1 2.07  19 2.12  29 2.19  32 2.19
  61  0.326  0.743  0.002-   3 2.01  16 2.06  23 2.06  47 2.07  50 2.13  32 2.16
  62  0.326  0.240  0.005-  30 1.99  33 2.02  48 2.07   5 2.16  13 2.16  14 2.21
  63  0.224  0.079  0.222-  10 2.06  30 2.07   4 2.10  19 2.10  33 2.12  42 2.23
  64  0.218  0.590  0.221-   3 2.00  21 2.05  16 2.06  31 2.09  43 2.09  40 2.14
  65  0.449  0.429  0.113-  34 2.02  43 2.04  31 2.08   5 2.14  14 2.15   7 2.15
  66  0.443  0.904  0.107-  50 2.02  32 2.04  35 2.08  10 2.14   6 2.15   4 2.15
  67  0.671  0.743  0.992-  15 2.01  35 2.03  17 2.06  16 2.06  50 2.14  53 2.14
  68  0.663  0.256  0.002-   7 2.07  26 2.08  36 2.08  14 2.11  33 2.12  51 2.26
  69  0.550  0.093  0.229-  45 1.99  33 2.02  36 2.07  10 2.16   8 2.16   6 2.21
  70  0.553  0.591  0.229-  11 2.01  16 2.06  17 2.06  37 2.07  34 2.13  43 2.16
  71  0.779  0.421  0.113-  28 2.05   2 2.07  34 2.08   7 2.10  37 2.11  26 2.16
  72  0.784  0.905  0.107-  53 2.02  29 2.03  35 2.08   8 2.13   6 2.14   1 2.15
  73  0.660  0.744  0.337-  11 2.01  18 2.06  17 2.07  35 2.07  29 2.11  38 2.14
  74  0.666  0.245  0.335-  45 2.07  36 2.09   2 2.12   9 2.15   7 2.16  39 2.22
  75  0.554  0.077  0.553-  12 2.07  24 2.08   8 2.13  39 2.14  48 2.15  45 2.20
  76  0.554  0.590  0.551-  11 2.00  23 2.05  18 2.06  37 2.08  49 2.12  46 2.18
  77  0.779  0.420  0.442-  40 2.06   2 2.07  49 2.08   9 2.10  37 2.12  20 2.15
  78  0.774  0.922  0.439-   8 2.02  19 2.05  24 2.08  41 2.08  29 2.09  38 2.09
  79  0.003  0.745  0.327-   3 2.00  18 2.07  32 2.07  21 2.07  29 2.07  41 2.25
  80  0.004  0.256  0.329-   2 2.07  20 2.08  30 2.11   5 2.12  42 2.16  39 2.22
  81  0.889  0.076  0.557-  39 1.99  19 2.00  25 2.00  24 2.01  51 2.06  42 2.07
  82  0.887  0.588  0.561-  15 2.00  40 2.04  21 2.06  18 2.08  49 2.08  52 2.24
  83  0.116  0.412  0.435-   5 2.01  22 2.06  52 2.08  40 2.08  20 2.09  43 2.10
  84  0.120  0.921  0.440-  10 2.01  19 2.06  41 2.08  44 2.08  25 2.09  32 2.10
  85  0.335  0.744  0.337-  11 2.00  21 2.05  16 2.06  35 2.09  32 2.09  44 2.14
  86  0.333  0.254  0.331-   5 2.06  45 2.07   7 2.10  22 2.10  33 2.12  42 2.23
  87  0.227  0.078  0.552-  12 2.07  25 2.08  45 2.11  10 2.12  42 2.16  54 2.22
  88  0.228  0.588  0.553-  11 2.00  27 2.07  43 2.07  21 2.07  46 2.07  52 2.25
  89  0.442  0.416  0.446-   7 2.07   9 2.07  22 2.12  46 2.19  43 2.19
  90  0.444  0.912  0.447-  10 2.13   8 2.13  12 2.15  38 2.17  44 2.18  35 2.26
  91  0.335  0.744  0.662-  11 2.00  47 2.01  23 2.06  27 2.06  44 2.17  38 2.18
  92  0.335  0.253  0.669-  13 2.07   9 2.09  45 2.10  54 2.11  22 2.12  48 2.17
  93  0.220  0.088  0.890-  30 2.07  48 2.09  12 2.12   1 2.15   4 2.16  54 2.22
  94  0.218  0.589  0.896-   3 2.01  27 2.06  23 2.07  31 2.07  46 2.11  28 2.14
  95  0.448  0.429  0.772-  49 2.02  46 2.03  31 2.08  13 2.13  14 2.14   9 2.15
  96  0.442  0.913  0.777-  38 2.05  12 2.07  50 2.08   4 2.10  47 2.11  24 2.16
  97  0.671  0.745  0.669-  15 2.01  38 2.05  18 2.05  50 2.07  23 2.08  41 2.24
  98  0.662  0.254  0.670-   9 2.07  20 2.09  48 2.09  14 2.12  51 2.14  39 2.19
  99  0.554  0.078  0.893-   4 2.07  24 2.08  48 2.08   6 2.11  33 2.12  51 2.26
 100  0.564  0.591  0.884-  15 2.01  31 2.03  23 2.06  16 2.06  34 2.14  49 2.14
 101  0.771  0.410  0.780-  14 2.03  26 2.04  20 2.05  52 2.13  49 2.20  34 2.23
 102  0.775  0.924  0.785-   6 2.03  24 2.04  25 2.05  41 2.13  53 2.20  50 2.23
 103  0.995  0.745  0.668-  15 2.00  44 2.04  21 2.06  27 2.08  53 2.08  41 2.24
 104  0.999  0.257  0.667-  54 1.99  22 2.00  20 2.00  26 2.01  51 2.06  42 2.07
 105  0.886  0.079  0.893-   1 2.07  25 2.09  36 2.09   6 2.12  51 2.14  54 2.19
 106  0.887  0.588  0.885-  15 2.01  28 2.05  27 2.05  34 2.07  17 2.08  52 2.24
 107  0.116  0.411  0.782-  13 2.02  22 2.05  26 2.08  52 2.08  46 2.09  28 2.09
 108  0.114  0.914  0.776-  44 2.06  12 2.07  53 2.08   1 2.10  47 2.12  25 2.15
 
  LATTYP: Found a base centered monoclinic cell.
 ALAT       =    15.1657892311
 B/A-ratio  =     0.5768629402
 C/A-ratio  =     1.4061116520
 COS(beta)  =    -0.6176714832
  
  Lattice vectors:
  
 A1 = (   8.7541188244,   0.0102675720,   0.0031968099)
 A2 = (   4.3798278885,   0.0102675720,   7.5796908361)
 A3 = ( -13.1513943017, -14.9711243963,  -7.5929609875)


Analysis of symmetry for initial positions (statically):
=====================================================================
 Subroutine PRICEL returns:
 Original cell was already a primitive cell.
 

 Routine SETGRP: Setting up the symmetry group for a 
 base centered monoclinic supercell.


 Subroutine GETGRP returns: Found  2 space group operations
 (whereof  1 operations were pure point group operations)
 out of a pool of  4 trial point group operations.


The static configuration has the point symmetry C_1 .
 The point group associated with its full space group is C_2 .


Analysis of symmetry for dynamics (positions and initial velocities):
=====================================================================
 Subroutine PRICEL returns:
 Original cell was already a primitive cell.
 

 Routine SETGRP: Setting up the symmetry group for a 
 base centered monoclinic supercell.


 Subroutine GETGRP returns: Found  2 space group operations
 (whereof  1 operations were pure point group operations)
 out of a pool of  4 trial point group operations.


The dynamic configuration has the point symmetry C_1 .
 The point group associated with its full space group is C_2 .


Analysis of structural, dynamic, and magnetic symmetry:
=====================================================================
 Subroutine PRICEL returns:
 Original cell was already a primitive cell.
 

 Routine SETGRP: Setting up the symmetry group for a 
 base centered monoclinic supercell.


 Subroutine GETGRP returns: Found  2 space group operations
 (whereof  1 operations were pure point group operations)
 out of a pool of  4 trial point group operations.


The magnetic configuration has the point symmetry C_1 .
 The point group associated with its full space group is C_2 .


 Subroutine INISYM returns: Found  2 space group operations
 (whereof  1 operations are pure point group operations),
 and found     1 'primitive' translations

 
 
 KPOINTS: Automatic mesh                          

Automatic generation of k-mesh.
Space group operators:
 irot       det(A)        alpha          n_x          n_y          n_z        tau_x        tau_y        tau_z
    1     1.000000     0.000000     1.000000     0.000000     0.000000     0.000000     0.000000     0.000000
    2     1.000000   180.000000    -0.500000     0.000000     0.866025    -0.444444    -0.666667    -0.444444
 
 Subroutine IBZKPT returns following result:
 ===========================================
 
 Found      1 irreducible k-points:
 
 Following reciprocal coordinates:
            Coordinates               Weight
  0.000000  0.000000  0.000000      1.000000
 
 Following cartesian coordinates:
            Coordinates               Weight
  0.000000  0.000000  0.000000      1.000000
 


--------------------------------------------------------------------------------------------------------




 Dimension of arrays:
   k-points           NKPTS =      1   k-points in BZ     NKDIM =      1   number of bands    NBANDS=    432
   number of dos      NEDOS =    301   number of ions     NIONS =    108
   non local maximal  LDIM  =      6   non local SUM 2l+1 LMDIM =     18
   total plane-waves  NPLWV = 458752
   max r-space proj   IRMAX =   8152   max aug-charges    IRDMAX=  26182
   dimension x,y,z NGX =    64 NGY =  112 NGZ =   64
   dimension x,y,z NGXF=   128 NGYF=  224 NGZF=  128
   support grid    NGXF=   128 NGYF=  224 NGZF=  128
   ions per type =              15  12  27  54
   NGX,Y,Z   is equivalent  to a cutoff of  12.15, 12.45, 12.15 a.u.
   NGXF,Y,Z  is equivalent  to a cutoff of  24.31, 24.91, 24.31 a.u.

 SYSTEM =  unknown system                          
 POSCAR =  ce245456_1                              

 Startparameter for this run:
   NWRITE =      1    write-flag & timer
   PREC   = accura    normal or accurate (medium, high low for compatibility)
   ISTART =      0    job   : 0-new  1-cont  2-samecut
   ICHARG =      2    charge: 1-file 2-atom 10-const
   ISPIN  =      2    spin polarized calculation?
   LNONCOLLINEAR =      F non collinear calculations
   LSORBIT =      F    spin-orbit coupling
   INIWAV =      1    electr: 0-lowe 1-rand  2-diag
   LASPH  =      F    aspherical Exc in radial PAW
   METAGGA=      F    non-selfconsistent MetaGGA calc.

 Electronic Relaxation 1
   ENCUT  =  500.0 eV  36.75 Ry    6.06 a.u.  15.96 27.26 15.96*2*pi/ulx,y,z
   ENINI  =  500.0     initial cutoff
   ENAUG  =  628.9 eV  augmentation charge cutoff
   NELM   =     80;   NELMIN=  2; NELMDL= -5     # of ELM steps 
   EDIFF  = 0.1E-04   stopping-criterion for ELM
   LREAL  =      T    real-space projection
   NLSPLINE    = F    spline interpolate recip. space projectors
   LCOMPAT=      F    compatible to vasp.4.4
   GGA_COMPAT  = T    GGA compatible to vasp.4.4-vasp.4.6
   LMAXPAW     = -100 max onsite density
   LMAXMIX     =    2 max onsite mixed and CHGCAR
   VOSKOWN=      1    Vosko Wilk Nusair interpolation
   ROPT   =   -0.00025  -0.00025  -0.00025  -0.00025
 Ionic relaxation
   EDIFFG = -.2E-01   stopping-criterion for IOM
   NSW    =     20    number of steps for IOM
   NBLOCK =      1;   KBLOCK =     20    inner block; outer block 
   IBRION =      1    ionic relax: 0-MD 1-quasi-New 2-CG
   NFREE  =      0    steps in history (QN), initial steepest desc. (CG)
   ISIF   =      3    stress and relaxation
   IWAVPR =     11    prediction:  0-non 1-charg 2-wave 3-comb
   ISYM   =      2    0-nonsym 1-usesym 2-fastsym
   LCORR  =      T    Harris-Foulkes like correction to forces

   POTIM  = 0.5000    time-step for ionic-motion
   TEIN   =    0.0    initial temperature
   TEBEG  =    0.0;   TEEND  =   0.0 temperature during run
   SMASS  =  -3.00    Nose mass-parameter (am)
   estimated Nose-frequenzy (Omega)   =  0.10E-29 period in steps =****** mass=  -0.175E-26a.u.
   SCALEE = 1.0000    scale energy and forces
   NPACO  =    256;   APACO  = 16.0  distance and # of slots for P.C.
   PSTRESS=    0.0 pullay stress

  Mass of Ions in am
   POMASS = 180.95 58.69  7.01 16.00
  Ionic Valenz
   ZVAL   =  11.00 10.00  3.00  6.00
  Atomic Wigner-Seitz radii
   RWIGS  =   1.34  1.15  1.23  0.73
  virtual crystal weights 
   VCA    =   1.00  1.00  1.00  1.00
   NELECT =     690.0000    total number of electrons
   NUPDOWN=      -1.0000    fix difference up-down

 DOS related values:
   EMIN   =  10.00;   EMAX   =-10.00  energy-range for DOS
   EFERMI =   0.00
   ISMEAR =     0;   SIGMA  =   0.05  broadening in eV -4-tet -1-fermi 0-gaus

 Electronic relaxation 2 (details)
   IALGO  =     38    algorithm
   LDIAG  =      T    sub-space diagonalisation (order eigenvalues)
   LSUBROT=      F    optimize rotation matrix (better conditioning)
   TURBO    =      0    0=normal 1=particle mesh
   IRESTART =      0    0=no restart 2=restart with 2 vectors
   NREBOOT  =      0    no. of reboots
   NMIN     =      0    reboot dimension
   EREF     =   0.00    reference energy to select bands
   IMIX   =      4    mixing-type and parameters
     AMIX     =   0.40;   BMIX     =  1.00
     AMIX_MAG =   1.60;   BMIX_MAG =  1.00
     AMIN     =   0.10
     WC   =   100.;   INIMIX=   1;  MIXPRE=   1;  MAXMIX= -45

 Intra band minimization:
   WEIMIN = 0.0010     energy-eigenvalue tresh-hold
   EBREAK =  0.58E-08  absolut break condition
   DEPER  =   0.30     relativ break condition  

   TIME   =   0.40     timestep for ELM

  volume/ion in A,a.u.               =       9.18        61.97
  Fermi-wavevector in a.u.,A,eV,Ry     =   1.450601  2.741238 28.629962  2.104243
  Thomas-Fermi vector in A             =   2.568194
 
 Write flags
   LWAVE        =      F    write WAVECAR
   LDOWNSAMPLE  =      F    k-point downsampling of WAVECAR
   LCHARG       =      T    write CHGCAR
   LVTOT        =      F    write LOCPOT, total local potential
   LVHAR        =      F    write LOCPOT, Hartree potential only
   LELF         =      F    write electronic localiz. function (ELF)
   LORBIT       =      0    0 simple, 1 ext, 2 COOP (PROOUT), +10 PAW based schemes


 Dipole corrections
   LMONO  =      F    monopole corrections only (constant potential shift)
   LDIPOL =      F    correct potential (dipole corrections)
   IDIPOL =      0    1-x, 2-y, 3-z, 4-all directions 
   EPSILON=  1.0000000 bulk dielectric constant

 Exchange correlation treatment:
   GGA     =    PS    GGA type
   LEXCH   =    14    internal setting for exchange type
   VOSKOWN=      1    Vosko Wilk Nusair interpolation
   LHFCALC =     F    Hartree Fock is set to
   LHFONE  =     F    Hartree Fock one center treatment
   AEXX    =    0.0000 exact exchange contribution

 Linear response parameters
   LEPSILON=     F    determine dielectric tensor
   LRPA    =     F    only Hartree local field effects (RPA)
   LNABLA  =     F    use nabla operator in PAW spheres
   LVEL    =     F    velocity operator in full k-point grid
   LINTERFAST=   F  fast interpolation
   KINTER  =     0    interpolate to denser k-point grid
   CSHIFT  =0.1000    complex shift for real part using Kramers Kronig
   OMEGAMAX=  -1.0    maximum frequency
   DEG_THRESHOLD= 0.2000000E-02 threshold for treating states as degnerate
   RTIME   =   -0.100 relaxation time in fs
  (WPLASMAI=    0.000 imaginary part of plasma frequency in eV, 0.658/RTIME)
   DFIELD  = 0.0000000 0.0000000 0.0000000 field for delta impulse in time
 
 Orbital magnetization related:
   ORBITALMAG=     F  switch on orbital magnetization
   LCHIMAG   =     F  perturbation theory with respect to B field
   DQ        =  0.001000  dq finite difference perturbation B field
   LLRAUG    =     F  two centre corrections for induced B field



--------------------------------------------------------------------------------------------------------


 quasi-Newton-method for relaxation of ions
 charge density and potential will be updated during run
 spin polarized calculation
 Variant of blocked Davidson
 Davidson routine will perform the subspace rotation
 perform sub-space diagonalisation
    after iterative eigenvector-optimisation
 modified Broyden-mixing scheme, WC =      100.0
 initial mixing is a Kerker type mixing with AMIX =  0.4000 and BMIX =      1.0000
 Hartree-type preconditioning will be used
 using additional bands           87
 real space projection scheme for non local part
 use partial core corrections
 calculate Harris-corrections to forces 
   (improved forces if not selfconsistent)
 use gradient corrections 
 use of overlap-Matrix (Vanderbilt PP)
 Gauss-broadening in eV      SIGMA  =   0.05


--------------------------------------------------------------------------------------------------------


  energy-cutoff  :      500.00
  volume of cell :      991.81
      direct lattice vectors                 reciprocal lattice vectors
     8.754118824  0.010267572  0.003196810     0.114256156 -0.000088855 -0.066021346
     0.017447589 14.950589252  0.010073341    -0.000078434  0.066887118 -0.000045284
     4.379827889  0.010267572  7.579690836    -0.000048084 -0.000088855  0.131959408

  length of vectors
     8.754125429 14.950602827  8.754125366     0.131959445  0.066887179  0.131959446


 
 k-points in units of 2pi/SCALE and weight: Automatic mesh                          
   0.00000000  0.00000000  0.00000000       1.000
 
 k-points in reciprocal lattice and weights: Automatic mesh                          
   0.00000000  0.00000000  0.00000000       1.000
 
 position of ions in fractional coordinates (direct lattice) 
   0.00016448  0.99768521  0.99898516
   0.88162507  0.33502702  0.22644022
   0.10856337  0.66652963  0.11341194
   0.33314490  0.99683688  0.99861248
   0.23322119  0.33715919  0.21471918
   0.66092933  0.99563137  0.01162199
   0.55694308  0.33649645  0.22241065
   0.66969586  0.99674896  0.32165510
   0.55657039  0.33564812  0.55539108
   0.34083638  0.99617414  0.32233436
   0.44214362  0.66680371  0.44699218
   0.32911533  0.99830631  0.67393049
   0.23390045  0.33658437  0.88585970
   0.54393356  0.33770196  0.89462623
   0.78221748  0.66666667  0.77333808
   0.44388040  0.66666667  0.11167516
   0.77971487  0.66699356  0.11013010
   0.77787880  0.66776000  0.44517798
   0.99646460  0.99957644  0.34104993
   0.88968353  0.33261751  0.55746314
   0.11034556  0.66666667  0.44521000
   0.21450562  0.33375689  0.55909096
   0.44542545  0.66633978  0.77584069
   0.67009988  0.99980857  0.66596560
   0.99809242  0.00071582  0.66587202
   0.88958996  0.33352476  0.88545567
   0.11037757  0.66557334  0.77767676
   0.99446736  0.50317509  0.98933158
   0.87989868  0.82945420  0.23289555
   0.11068978  0.16347060  0.11887284
   0.34714885  0.51140391  0.99281716
   0.22040024  0.82853638  0.23165021
   0.44491057  0.16666667  0.11064499
   0.66845915  0.50519035  0.00554120
   0.56273840  0.82192942  0.20840670
   0.77736627  0.16965896  0.10355199
   0.67938856  0.51067455  0.32643799
   0.56622397  0.83015824  0.56108820
   0.78520464  0.15776778  0.45298012
   0.99395838  0.50327513  0.34998404
   0.89132195  0.84484383  0.55033920
   0.09495815  0.16666667  0.46059741
   0.32390535  0.50479695  0.33515531
   0.20557151  0.83005820  0.56159718
   0.43668272  0.16986274  0.44486577
   0.32266000  0.50387913  0.67565688
   0.22911756  0.82265878  0.87616700
   0.45200356  0.16367438  0.77818929
   0.66861577  0.50432243  0.65985867
   0.55001435  0.82814298  0.88709641
   0.79374774  0.16666667  0.76180782
   0.00521636  0.48848950  0.66423360
   0.89569689  0.82901090  0.88693978
   0.10257543  0.17556556  0.77035092
   0.00441255  0.74373394  0.00130138
   0.00245766  0.25643267  0.00169724
   0.88667826  0.08077064  0.22102725
   0.89333060  0.58945002  0.22100793
   0.10874267  0.42116704  0.11196015
   0.10974969  0.91776168  0.11306306
   0.32618574  0.74267781  0.00214187
   0.32617977  0.23988967  0.00523213
   0.22449015  0.07922571  0.22208023
   0.21816832  0.58978571  0.22088597
   0.44890010  0.42896048  0.11254620
   0.44300936  0.90437286  0.10665546
   0.67116511  0.74251666  0.99165491
   0.66299722  0.25552623  0.00179594
   0.55032343  0.09344366  0.22937578
   0.55341369  0.59065552  0.22936981
   0.77902700  0.42062040  0.11330317
   0.78368277  0.90466793  0.10709077
   0.65958131  0.74387132  0.33744636
   0.66564248  0.24529069  0.33511829
   0.55385831  0.07690066  0.55309790
   0.55425417  0.58959939  0.55114301
   0.77911158  0.41952912  0.44194797
   0.77358526  0.92188899  0.43926339
   0.00305339  0.74536847  0.32722141
   0.00400905  0.25576057  0.32857114
   0.88863332  0.07636604  0.55682366
   0.88713556  0.58790252  0.56050659
   0.11567549  0.41207563  0.43522069
   0.12033487  0.92125771  0.43988007
   0.33466959  0.74354762  0.33738723
   0.33347533  0.25410762  0.33106540
   0.22698441  0.07757276  0.55154651
   0.22833414  0.58796486  0.55250217
   0.44249250  0.41557166  0.44580586
   0.44359541  0.91216630  0.44681288
   0.33454762  0.74388331  0.66222496
   0.33452830  0.25256269  0.66887730
   0.22043726  0.08804264  0.88991308
   0.21810919  0.58946201  0.89597425
   0.44846478  0.42866541  0.77187279
   0.44225238  0.91271294  0.77652856
   0.67069075  0.74503623  0.66897610
   0.66232243  0.25398487  0.66980758
   0.55375961  0.07780710  0.89255834
   0.56390064  0.59081667  0.88439045
   0.77056460  0.40978771  0.78048682
   0.77506874  0.92354563  0.78499096
   0.99504897  0.74543081  0.66841999
   0.99873190  0.25696729  0.66692223
   0.88574798  0.07934846  0.89323312
   0.88657946  0.58829710  0.88486480
   0.11629216  0.41144435  0.78197030
   0.11360758  0.91380422  0.77644398
 
 position of ions in cartesian coordinates  (Angst):
   4.39423014 14.92624062  7.58204921
   8.71546523  5.02022850  1.72254009
   1.45873075  9.96728987  0.86668868
   7.30753323 14.91697266  7.58028034
   2.98796168  5.04532782  1.63164688
   5.85412757 14.89218113  0.10023329
   5.85553732  5.03882228  1.69097405
   7.28878198 14.91216306  2.45022770
   7.31065692  5.02955432  4.21485303
   4.41287203 14.90019954  2.45431919
   5.83996072  9.97823765  3.39619292
   5.85023230 14.93556643  5.11929316
   5.93337794  5.04363188  6.71868091
   8.68586001  5.06361381  6.78613088
  10.24634418  9.98303133  5.87087972
   4.38653147  9.97276376  0.85459775
   7.31970493  9.98108330  0.84396356
   8.77109718  9.99596330  3.38352476
  10.23434971 14.95798981  2.59830761
  10.23579132  4.98768645  4.23159297
   2.92755304  9.97276376  3.38162247
   4.33235312  4.99780513  4.24178441
   7.30898203  9.97471179  5.88876878
   8.80039293 14.96144541  5.06002695
  11.65383698  0.02778681  5.05030197
  11.67153886  5.00461710  6.71768379
   4.38396137  9.95983179  5.90160681
  13.04756667  7.54313289  7.50707529
   8.73725200 12.41225474  1.77644451
   1.49248623  2.44633885  0.90301993
   7.39627333  7.65954800  7.53150844
   2.95845390 12.39174856  1.76488768
   4.38231394  2.49746913  0.84175600
   5.88485468  7.55981376  0.04922647
   5.85340498 12.29624694  1.58973690
   7.26165673  2.54554632  0.78908619
   7.38610043  7.64521284  2.48161512
   7.42874592 12.42292962  4.26304767
   8.86050235  2.37143443  3.43754866
  10.24288056  7.53805878  2.66101798
  10.22786973 12.64571544  4.18276078
   2.85152024  2.49746913  3.49316842
   4.31223599  7.55377881  2.54649409
   4.27377893 12.41773616  4.26575163
   5.77417162  2.54859942  3.37505208
   5.79265630  7.54354020  5.12737749
   5.85753642 12.31058210  6.65009435
   7.36808375  2.45965952  5.90152795
   8.75200851  7.55355771  5.00874236
   8.71466967 12.39598117  6.73401699
  10.28805710  2.50773670  5.77848410
   2.96341644  7.31007949  5.03962273
  11.74014483 12.41250480  6.73394361
   4.27502514  2.63377141  5.84111825
   0.05730417 11.11931932  0.01737005
   0.03342240  3.83386218  0.01545554
   8.73155741  1.21894211  1.67896639
   8.79858340  8.82406668  1.68396532
   1.44966079  6.29896150  0.85321351
   1.47197130 13.72336566  0.86657882
   2.87780769 11.10684201  0.02475871
   2.88251779  3.58989472  0.04311715
   2.93926893  1.18905624  1.68481520
   2.88760427  8.82215192  1.68088592
   4.43014213  6.41897663  0.85882151
   4.36106826 13.52655088  0.81894169
  10.23169208 11.11813472  7.52606285
   5.81628067  3.82709352  0.01830615
   5.82385350  1.40504340  1.74129807
   5.85955501  8.83868536  1.74627128
   7.32328212  6.29768490  0.86553045
   7.34527550 13.53446471  0.82333324
   7.26498890 11.13155162  2.56734091
   7.29915353  3.67751574  2.54469186
   7.27235680  1.16107593  4.19485631
   7.27620548  8.82620805  4.18520470
   8.76341116  6.28474487  3.35654571
   8.71204007 13.79523664  3.34124020
   1.47290808 11.14708896  2.48775523
   1.47864315  3.82718602  2.49305684
  10.21932587  1.15655863  4.22416125
  10.23126998  8.80435287  4.25722481
   2.92601843  6.16642985  3.30335905
   2.99609847 13.77909766  3.34381977
   4.42040847 11.12337545  2.56585078
   4.37372570  3.80588187  2.51299915
   4.40408074  1.16775209  4.18205907
   4.42898717  8.79843841  4.19444835
   5.83343559  6.22216186  3.38467135
   5.85616554 13.64656601  3.39731014
   5.84207994 11.13172825  5.02802334
   5.86247455  3.78626358  5.07349671
   5.82893623  1.32768995  6.74685760
   5.84385146  8.82424332  6.79784292
   7.31406312  6.42133038  5.85630886
   7.28851597 13.65811019  5.89645428
   8.81430579 11.15248578  5.08028109
   8.73612259  3.81090121  5.08161017
   8.75828688  1.17811217  6.76787031
   8.82023949  8.84792779  6.71116037
  10.17116182  6.14249326  5.92244008
  10.23928279 13.82356940  5.96176972
  11.65134740 11.16170964  5.07710683
  11.66850577  3.85891463  5.06084559
  11.66753483  1.20457205  6.77406177
  11.64704183  8.81357673  6.71576196
   4.45010943  6.16055845  5.93160950
   4.41116893 13.67105022  5.89477356
 


--------------------------------------------------------------------------------------------------------


 use serial FFT for orbitals x direction half grid
 k-point  1 :   0.0000 0.0000 0.0000  plane waves:   12560

 maximum and minimum number of plane-waves per node :     12560    12560

 maximum number of plane-waves:     12560
 maximum index in each direction: 
   IXMAX=   15   IYMAX=   27   IZMAX=   15
   IXMIN=    0   IYMIN=  -27   IZMIN=  -13

 The following grids will avoid any aliasing or wrap around errors in the Hartre
 e energy
  - symmetry arguments have not been applied
  - exchange correlation energies might require even more grid points
  - we recommend to set PREC=Normal or Accurate and rely on VASP defaults
 NGX is ok and might be reduce to    64
 NGY is ok and might be reduce to   112
 NGZ is ok and might be reduce to    60

 serial   3D FFT for wavefunctions
 parallel 3D FFT for charge:
    minimum data exchange during FFTs selected (reduces bandwidth)


 total amount of memory used by VASP MPI-rank0   154452. kBytes
=======================================================================

   base      :      30000. kBytes
   nonlr-proj:      42527. kBytes
   fftplans  :       9702. kBytes
   grid      :      59236. kBytes
   one-center:       1679. kBytes
   wavefun   :      11308. kBytes
 
     INWAV:  cpu time    0.0000: real time    0.0000
 Broyden mixing: mesh for mixing (old mesh)
   NGX = 31   NGY = 55   NGZ = 31
  (NGX  =128   NGY  =224   NGZ  =128)
  gives a total of  52855 points

 initial charge density was supplied:
 charge density of overlapping atoms calculated
 number of electron     690.0000000 magnetization      30.0000000
 keeping initial charge density in first step


--------------------------------------------------------------------------------------------------------


 Maximum index for non-local projection operator         7891
 Maximum index for augmentation-charges         1622 (set IRDMAX)


--------------------------------------------------------------------------------------------------------


 First call to EWALD:  gamma=   0.178
 Maximum number of real-space cells 3x 2x 3
 Maximum number of reciprocal cells 2x 4x 2

    FEWALD:  cpu time    0.0047: real time    0.0048


--------------------------------------- Iteration      1(   1)  ---------------------------------------


    POTLOK:  cpu time    0.2927: real time    0.2958
    SETDIJ:  cpu time    0.0397: real time    0.0398
     EDDAV:  cpu time    5.8788: real time    5.8929
    --------------------------------------------
      LOOP:  cpu time    6.2118: real time    6.2291

 eigenvalue-minimisations  :  1728
 total energy-change (2. order) : 0.1173750E+05  (-0.3506302E+05)
 number of electron     690.0000000 magnetization      30.0000000
 augmentation part      690.0000000 magnetization      30.0000000

 Free energy of the ion-electron system (eV)
  ---------------------------------------------------
  alpha Z        PSCENC =      3614.79071522
  Ewald energy   TEWEN  =    -44784.90701745
  -Hartree energ DENC   =    -13079.49586910
  -exchange      EXHF   =         0.00000000
  -V(xc)+E(xc)   XCENC  =      2630.38116720
  PAW double counting   =     44693.46723465   -45741.29215870
  entropy T*S    EENTRO =        -0.02690953
  eigenvalues    EBANDS =      7079.22512510
  atomic energy  EATOM  =     57325.35920724
  Solvation  Ediel_sol  =         0.00000000
  ---------------------------------------------------
  free energy    TOTEN  =     11737.50149461 eV

  energy without entropy =    11737.52840415  energy(sigma->0) =    11737.51494938


--------------------------------------------------------------------------------------------------------




--------------------------------------- Iteration      1(   2)  ---------------------------------------


     EDDAV:  cpu time    5.7905: real time    5.8043
    --------------------------------------------
      LOOP:  cpu time    5.7903: real time    5.8041

 eigenvalue-minimisations  :  1840
 total energy-change (2. order) :-0.1033762E+05  (-0.9710200E+04)
 number of electron     690.0000000 magnetization      30.0000000
 augmentation part      690.0000000 magnetization      30.0000000

 Free energy of the ion-electron system (eV)
  ---------------------------------------------------
  alpha Z        PSCENC =      3614.79071522
  Ewald energy   TEWEN  =    -44784.90701745
  -Hartree energ DENC   =    -13079.49586910
  -exchange      EXHF   =         0.00000000
  -V(xc)+E(xc)   XCENC  =      2630.38116720
  PAW double counting   =     44693.46723465   -45741.29215870
  entropy T*S    EENTRO =        -0.02860229
  eigenvalues    EBANDS =     -3258.38819621
  atomic energy  EATOM  =     57325.35920724
  Solvation  Ediel_sol  =         0.00000000
  ---------------------------------------------------
  free energy    TOTEN  =      1399.88648055 eV

  energy without entropy =     1399.91508284  energy(sigma->0) =     1399.90078170


--------------------------------------------------------------------------------------------------------




--------------------------------------- Iteration      1(   3)  ---------------------------------------


     EDDAV:  cpu time    6.7393: real time    6.7554
    --------------------------------------------
      LOOP:  cpu time    6.7393: real time    6.7554

 eigenvalue-minimisations  :  1984
 total energy-change (2. order) :-0.2052039E+04  (-0.1857725E+04)
 number of electron     690.0000000 magnetization      30.0000000
 augmentation part      690.0000000 magnetization      30.0000000

 Free energy of the ion-electron system (eV)
  ---------------------------------------------------
  alpha Z        PSCENC =      3614.79071522
  Ewald energy   TEWEN  =    -44784.90701745
  -Hartree energ DENC   =    -13079.49586910
  -exchange      EXHF   =         0.00000000
  -V(xc)+E(xc)   XCENC  =      2630.38116720
  PAW double counting   =     44693.46723465   -45741.29215870
  entropy T*S    EENTRO =        -0.03133823
  eigenvalues    EBANDS =     -5310.42440160
  atomic energy  EATOM  =     57325.35920724
  Solvation  Ediel_sol  =         0.00000000
  ---------------------------------------------------
  free energy    TOTEN  =      -652.15246078 eV

  energy without entropy =     -652.12112255  energy(sigma->0) =     -652.13679167


--------------------------------------------------------------------------------------------------------




--------------------------------------- Iteration      1(   4)  ---------------------------------------


     EDDAV:  cpu time    7.2704: real time    7.2877
    --------------------------------------------
      LOOP:  cpu time    7.2704: real time    7.2877

 eigenvalue-minimisations  :  2240
 total energy-change (2. order) :-0.2739710E+03  (-0.2645955E+03)
 number of electron     690.0000000 magnetization      30.0000000
 augmentation part      690.0000000 magnetization      30.0000000

 Free energy of the ion-electron system (eV)
  ---------------------------------------------------
  alpha Z        PSCENC =      3614.79071522
  Ewald energy   TEWEN  =    -44784.90701745
  -Hartree energ DENC   =    -13079.49586910
  -exchange      EXHF   =         0.00000000
  -V(xc)+E(xc)   XCENC  =      2630.38116720
  PAW double counting   =     44693.46723465   -45741.29215870
  entropy T*S    EENTRO =        -0.07202710
  eigenvalues    EBANDS =     -5584.35474993
  atomic energy  EATOM  =     57325.35920724
  Solvation  Ediel_sol  =         0.00000000
  ---------------------------------------------------
  free energy    TOTEN  =      -926.12349798 eV

  energy without entropy =     -926.05147088  energy(sigma->0) =     -926.08748443


--------------------------------------------------------------------------------------------------------




--------------------------------------- Iteration      1(   5)  ---------------------------------------


     EDDAV:  cpu time    9.7796: real time    9.8029
    CHARGE:  cpu time    0.4902: real time    0.4914
    MIXING:  cpu time    0.0063: real time    0.0064
    --------------------------------------------
      LOOP:  cpu time   10.2758: real time   10.3003

 eigenvalue-minimisations  :  3216
 total energy-change (2. order) :-0.2404153E+02  (-0.2370196E+02)
 number of electron     689.9999996 magnetization      30.5737535
 augmentation part      178.1690769 magnetization      23.6509903

 Broyden mixing:
  rms(total) = 0.13526E+02    rms(broyden)= 0.13524E+02
  rms(prec ) = 0.14638E+02
  weight for this iteration     100.00

 Free energy of the ion-electron system (eV)
  ---------------------------------------------------
  alpha Z        PSCENC =      3614.79071522
  Ewald energy   TEWEN  =    -44784.90701745
  -Hartree energ DENC   =    -13079.49586910
  -exchange      EXHF   =         0.00000000
  -V(xc)+E(xc)   XCENC  =      2630.38116720
  PAW double counting   =     44693.46723465   -45741.29215870
  entropy T*S    EENTRO =        -0.06750503
  eigenvalues    EBANDS =     -5608.40080066
  atomic energy  EATOM  =     57325.35920724
  Solvation  Ediel_sol  =         0.00000000
  ---------------------------------------------------
  free energy    TOTEN  =      -950.16502664 eV

  energy without entropy =     -950.09752161  energy(sigma->0) =     -950.13127413


--------------------------------------------------------------------------------------------------------




--------------------------------------- Iteration      1(   6)  ---------------------------------------


    POTLOK:  cpu time    0.2760: real time    0.2767
    SETDIJ:  cpu time    0.0418: real time    0.0419
     EDDAV:  cpu time    8.2077: real time    8.2272
    CHARGE:  cpu time    0.4810: real time    0.4822
    MIXING:  cpu time    0.0060: real time    0.0060
    --------------------------------------------
      LOOP:  cpu time    9.0125: real time    9.0340

 eigenvalue-minimisations  :  2592
 total energy-change (2. order) :-0.5124965E+02  (-0.1604018E+03)
 number of electron     690.0000002 magnetization      28.5209406
 augmentation part      204.2177070 magnetization      25.5539436

 Broyden mixing:
  rms(total) = 0.18906E+02    rms(broyden)= 0.18905E+02
  rms(prec ) = 0.20062E+02
  weight for this iteration     100.00

 eigenvalues of (default mixing * dielectric matrix)
  average eigenvalue GAMMA=   0.2736
  0.2736

 Free energy of the ion-electron system (eV)
  ---------------------------------------------------
  alpha Z        PSCENC =      3614.79071522
  Ewald energy   TEWEN  =    -44784.90701745
  -Hartree energ DENC   =    -12908.78164839
  -exchange      EXHF   =         0.00000000
  -V(xc)+E(xc)   XCENC  =      2663.84293195
  PAW double counting   =     56303.18675612   -57234.31452578
  entropy T*S    EENTRO =        -0.00561206
  eigenvalues    EBANDS =     -5980.58548615
  atomic energy  EATOM  =     57325.35920724
  Solvation  Ediel_sol  =         0.00000000
  ---------------------------------------------------
  free energy    TOTEN  =     -1001.41467931 eV

  energy without entropy =    -1001.40906725  energy(sigma->0) =    -1001.41187328


--------------------------------------------------------------------------------------------------------




--------------------------------------- Iteration      1(   7)  ---------------------------------------


    POTLOK:  cpu time    0.2790: real time    0.2797
    SETDIJ:  cpu time    0.0418: real time    0.0419
     EDDAV:  cpu time    7.8851: real time    7.9038
    CHARGE:  cpu time    0.4835: real time    0.4847
    MIXING:  cpu time    0.0061: real time    0.0061
    --------------------------------------------
      LOOP:  cpu time    8.6955: real time    8.7162

 eigenvalue-minimisations  :  2496
 total energy-change (2. order) : 0.1588174E+03  (-0.3363754E+02)
 number of electron     690.0000001 magnetization      25.1677315
 augmentation part      194.8144016 magnetization      21.5292980

 Broyden mixing:
  rms(total) = 0.85588E+01    rms(broyden)= 0.85585E+01
  rms(prec ) = 0.97271E+01
  weight for this iteration     100.00

 eigenvalues of (default mixing * dielectric matrix)
  average eigenvalue GAMMA=   0.6325
  0.6325  0.6325

 Free energy of the ion-electron system (eV)
  ---------------------------------------------------
  alpha Z        PSCENC =      3614.79071522
  Ewald energy   TEWEN  =    -44784.90701745
  -Hartree energ DENC   =    -13112.34169509
  -exchange      EXHF   =         0.00000000
  -V(xc)+E(xc)   XCENC  =      2657.84074836
  PAW double counting   =     59662.94868154   -60715.60018411
  entropy T*S    EENTRO =        -0.02304831
  eigenvalues    EBANDS =     -5490.66463713
  atomic energy  EATOM  =     57325.35920724
  Solvation  Ediel_sol  =         0.00000000
  ---------------------------------------------------
  free energy    TOTEN  =      -842.59722974 eV

  energy without entropy =     -842.57418143  energy(sigma->0) =     -842.58570559


--------------------------------------------------------------------------------------------------------




--------------------------------------- Iteration      1(   8)  ---------------------------------------


    POTLOK:  cpu time    0.2807: real time    0.2814
    SETDIJ:  cpu time    0.0415: real time    0.0416
     EDDAV:  cpu time    7.6153: real time    7.6334
    CHARGE:  cpu time    0.3967: real time    0.3976
    MIXING:  cpu time    0.0064: real time    0.0064
    --------------------------------------------
      LOOP:  cpu time    8.3405: real time    8.3604

 eigenvalue-minimisations  :  2336
 total energy-change (2. order) :-0.2485496E+03  (-0.2560939E+02)
 number of electron     689.9999991 magnetization      22.9367900
 augmentation part      164.6522615 magnetization      22.7175048

 Broyden mixing:
  rms(total) = 0.17548E+02    rms(broyden)= 0.17547E+02
  rms(prec ) = 0.25520E+02
  weight for this iteration     100.00

 eigenvalues of (default mixing * dielectric matrix)
  average eigenvalue GAMMA=   0.5341
  0.8657  0.5495  0.1870

 Free energy of the ion-electron system (eV)
  ---------------------------------------------------
  alpha Z        PSCENC =      3614.79071522
  Ewald energy   TEWEN  =    -44784.90701745
  -Hartree energ DENC   =    -13163.66308554
  -exchange      EXHF   =         0.00000000
  -V(xc)+E(xc)   XCENC  =      2651.85734228
  PAW double counting   =     65796.42382316   -66936.38154751
  entropy T*S    EENTRO =        -0.04132318
  eigenvalues    EBANDS =     -5594.58497820
  atomic energy  EATOM  =     57325.35920724
  Solvation  Ediel_sol  =         0.00000000
  ---------------------------------------------------
  free energy    TOTEN  =     -1091.14686400 eV

  energy without entropy =    -1091.10554081  energy(sigma->0) =    -1091.12620240


--------------------------------------------------------------------------------------------------------




--------------------------------------- Iteration      1(   9)  ---------------------------------------


    POTLOK:  cpu time    0.2705: real time    0.2711
    SETDIJ:  cpu time    0.0414: real time    0.0415
     EDDAV:  cpu time    8.1234: real time    8.1427
    CHARGE:  cpu time    0.4919: real time    0.4931
    MIXING:  cpu time    0.0064: real time    0.0064
    --------------------------------------------
      LOOP:  cpu time    8.9336: real time    8.9548

 eigenvalue-minimisations  :  2512
 total energy-change (2. order) : 0.2752873E+03  (-0.1080617E+02)
 number of electron     690.0000004 magnetization      20.8045600
 augmentation part      181.3721638 magnetization      17.6837313

 Broyden mixing:
  rms(total) = 0.55862E+01    rms(broyden)= 0.55843E+01
  rms(prec ) = 0.66771E+01
  weight for this iteration     100.00

 eigenvalues of (default mixing * dielectric matrix)
  average eigenvalue GAMMA=   0.6069
  1.3058  0.4939  0.4939  0.1339

 Free energy of the ion-electron system (eV)
  ---------------------------------------------------
  alpha Z        PSCENC =      3614.79071522
  Ewald energy   TEWEN  =    -44784.90701745
  -Hartree energ DENC   =    -13047.55683569
  -exchange      EXHF   =         0.00000000
  -V(xc)+E(xc)   XCENC  =      2643.95042166
  PAW double counting   =     68927.54851415   -70067.25412392
  entropy T*S    EENTRO =        -0.14511281
  eigenvalues    EBANDS =     -5427.64533366
  atomic energy  EATOM  =     57325.35920724
  Solvation  Ediel_sol  =         0.00000000
  ---------------------------------------------------
  free energy    TOTEN  =      -815.85956527 eV

  energy without entropy =     -815.71445246  energy(sigma->0) =     -815.78700886


--------------------------------------------------------------------------------------------------------




--------------------------------------- Iteration      1(  10)  ---------------------------------------


    POTLOK:  cpu time    0.2807: real time    0.2813
    SETDIJ:  cpu time    0.0415: real time    0.0416
     EDDAV:  cpu time    7.7707: real time    7.7891
    CHARGE:  cpu time    0.4837: real time    0.4849
    MIXING:  cpu time    0.0066: real time    0.0066
    --------------------------------------------
      LOOP:  cpu time    8.5831: real time    8.6035

 eigenvalue-minimisations  :  2448
 total energy-change (2. order) :-0.3127126E+02  (-0.1986865E+02)
 number of electron     690.0000001 magnetization      19.2478483
 augmentation part      184.7731852 magnetization      16.3634025

 Broyden mixing:
  rms(total) = 0.86021E+01    rms(broyden)= 0.86013E+01
  rms(prec ) = 0.10351E+02
  weight for this iteration     100.00

 eigenvalues of (default mixing * dielectric matrix)
  average eigenvalue GAMMA=   0.5814
  1.5963  0.5056  0.5056  0.1800  0.1195

 Free energy of the ion-electron system (eV)
  ---------------------------------------------------
  alpha Z        PSCENC =      3614.79071522
  Ewald energy   TEWEN  =    -44784.90701745
  -Hartree energ DENC   =    -12961.99438383
  -exchange      EXHF   =         0.00000000
  -V(xc)+E(xc)   XCENC  =      2641.06273526
  PAW double counting   =     72056.10173611   -73184.27296813
  entropy T*S    EENTRO =        -0.00049938
  eigenvalues    EBANDS =     -5553.27034625
  atomic energy  EATOM  =     57325.35920724
  Solvation  Ediel_sol  =         0.00000000
  ---------------------------------------------------
  free energy    TOTEN  =      -847.13082122 eV

  energy without entropy =     -847.13032183  energy(sigma->0) =     -847.13057152


--------------------------------------------------------------------------------------------------------




--------------------------------------- Iteration      1(  11)  ---------------------------------------


    POTLOK:  cpu time    0.2791: real time    0.2798
    SETDIJ:  cpu time    0.0415: real time    0.0416
     EDDAV:  cpu time    7.5240: real time    7.5419
    CHARGE:  cpu time    0.4814: real time    0.4826
    MIXING:  cpu time    0.0068: real time    0.0068
    --------------------------------------------
      LOOP:  cpu time    8.3329: real time    8.3527

 eigenvalue-minimisations  :  2336
 total energy-change (2. order) :-0.7849421E+01  (-0.2675547E+02)
 number of electron     689.9999998 magnetization      17.9807694
 augmentation part      184.9441903 magnetization      15.8909296

 Broyden mixing:
  rms(total) = 0.86317E+01    rms(broyden)= 0.86308E+01
  rms(prec ) = 0.10594E+02
  weight for this iteration     100.00

 eigenvalues of (default mixing * dielectric matrix)
  average eigenvalue GAMMA=   0.5333
  1.7304  0.4934  0.4934  0.2477  0.1174  0.1174

 Free energy of the ion-electron system (eV)
  ---------------------------------------------------
  alpha Z        PSCENC =      3614.79071522
  Ewald energy   TEWEN  =    -44784.90701745
  -Hartree energ DENC   =    -12949.46591196
  -exchange      EXHF   =         0.00000000
  -V(xc)+E(xc)   XCENC  =      2641.22145640
  PAW double counting   =     74164.73138366   -75297.42282303
  entropy T*S    EENTRO =        -0.05821572
  eigenvalues    EBANDS =     -5569.22903614
  atomic energy  EATOM  =     57325.35920724
  Solvation  Ediel_sol  =         0.00000000
  ---------------------------------------------------
  free energy    TOTEN  =      -854.98024176 eV

  energy without entropy =     -854.92202604  energy(sigma->0) =     -854.95113390


--------------------------------------------------------------------------------------------------------




--------------------------------------- Iteration      1(  12)  ---------------------------------------


    POTLOK:  cpu time    0.2564: real time    0.2570
    SETDIJ:  cpu time    0.0421: real time    0.0422
     EDDAV:  cpu time    7.3427: real time    7.3602
    CHARGE:  cpu time    0.4857: real time    0.4869
    MIXING:  cpu time    0.0079: real time    0.0079
    --------------------------------------------
      LOOP:  cpu time    8.1348: real time    8.1541

 eigenvalue-minimisations  :  2272
 total energy-change (2. order) : 0.9589796E+01  (-0.2203309E+02)
 number of electron     689.9999999 magnetization      17.0947265
 augmentation part      185.1290807 magnetization      16.6486836

 Broyden mixing:
  rms(total) = 0.94512E+01    rms(broyden)= 0.94508E+01
  rms(prec ) = 0.11889E+02
  weight for this iteration     100.00

 eigenvalues of (default mixing * dielectric matrix)
  average eigenvalue GAMMA=   0.4850
  1.7810  0.4764  0.4764  0.2964  0.1429  0.1429  0.0789

 Free energy of the ion-electron system (eV)
  ---------------------------------------------------
  alpha Z        PSCENC =      3614.79071522
  Ewald energy   TEWEN  =    -44784.90701745
  -Hartree energ DENC   =    -12956.87348581
  -exchange      EXHF   =         0.00000000
  -V(xc)+E(xc)   XCENC  =      2642.04012338
  PAW double counting   =     75543.21374160   -76682.88504273
  entropy T*S    EENTRO =        -0.04321671
  eigenvalues    EBANDS =     -5546.08547027
  atomic energy  EATOM  =     57325.35920724
  Solvation  Ediel_sol  =         0.00000000
  ---------------------------------------------------
  free energy    TOTEN  =      -845.39044555 eV

  energy without entropy =     -845.34722884  energy(sigma->0) =     -845.36883719


--------------------------------------------------------------------------------------------------------




--------------------------------------- Iteration      1(  13)  ---------------------------------------


    POTLOK:  cpu time    0.2765: real time    0.2771
    SETDIJ:  cpu time    0.0416: real time    0.0417
     EDDAV:  cpu time    7.3326: real time    7.3500
    CHARGE:  cpu time    0.4694: real time    0.4705
    MIXING:  cpu time    0.0068: real time    0.0068
    --------------------------------------------
      LOOP:  cpu time    8.1268: real time    8.1462

 eigenvalue-minimisations  :  2208
 total energy-change (2. order) : 0.2239617E+02  (-0.1541474E+02)
 number of electron     690.0000005 magnetization      16.4692010
 augmentation part      187.8636938 magnetization      13.6823631

 Broyden mixing:
  rms(total) = 0.49128E+01    rms(broyden)= 0.49116E+01
  rms(prec ) = 0.57231E+01
  weight for this iteration     100.00

 eigenvalues of (default mixing * dielectric matrix)
  average eigenvalue GAMMA=   0.4676
  1.8190  0.4964  0.4964  0.3118  0.3118  0.1159  0.1159  0.0732

 Free energy of the ion-electron system (eV)
  ---------------------------------------------------
  alpha Z        PSCENC =      3614.79071522
  Ewald energy   TEWEN  =    -44784.90701745
  -Hartree energ DENC   =    -12968.32472122
  -exchange      EXHF   =         0.00000000
  -V(xc)+E(xc)   XCENC  =      2642.62338229
  PAW double counting   =     76209.43373910   -77353.91514851
  entropy T*S    EENTRO =        -0.03480329
  eigenvalues    EBANDS =     -5508.01962465
  atomic energy  EATOM  =     57325.35920724
  Solvation  Ediel_sol  =         0.00000000
  ---------------------------------------------------
  free energy    TOTEN  =      -822.99427127 eV

  energy without entropy =     -822.95946798  energy(sigma->0) =     -822.97686963


--------------------------------------------------------------------------------------------------------




--------------------------------------- Iteration      1(  14)  ---------------------------------------


    POTLOK:  cpu time    0.2445: real time    0.2451
    SETDIJ:  cpu time    0.0415: real time    0.0416
     EDDAV:  cpu time    7.7605: real time    7.7790
    CHARGE:  cpu time    0.4904: real time    0.4916
    MIXING:  cpu time    0.0080: real time    0.0080
    --------------------------------------------
      LOOP:  cpu time    8.5450: real time    8.5653

 eigenvalue-minimisations  :  2384
 total energy-change (2. order) : 0.1206661E+01  (-0.5022871E+01)
 number of electron     689.9999998 magnetization      14.7929302
 augmentation part      186.4914970 magnetization      13.4268773

 Broyden mixing:
  rms(total) = 0.58243E+01    rms(broyden)= 0.58228E+01
  rms(prec ) = 0.70547E+01
  weight for this iteration     100.00

 eigenvalues of (default mixing * dielectric matrix)
  average eigenvalue GAMMA=   0.4711
  1.9260  0.5642  0.5642  0.3925  0.3925  0.1271  0.1061  0.0837  0.0837

 Free energy of the ion-electron system (eV)
  ---------------------------------------------------
  alpha Z        PSCENC =      3614.79071522
  Ewald energy   TEWEN  =    -44784.90701745
  -Hartree energ DENC   =    -12976.43356428
  -exchange      EXHF   =         0.00000000
  -V(xc)+E(xc)   XCENC  =      2642.84913138
  PAW double counting   =     76664.38540437   -77813.36066448
  entropy T*S    EENTRO =        -0.09387348
  eigenvalues    EBANDS =     -5494.37694895
  atomic energy  EATOM  =     57325.35920724
  Solvation  Ediel_sol  =         0.00000000
  ---------------------------------------------------
  free energy    TOTEN  =      -821.78761044 eV

  energy without entropy =     -821.69373696  energy(sigma->0) =     -821.74067370


--------------------------------------------------------------------------------------------------------




--------------------------------------- Iteration      1(  15)  ---------------------------------------


    POTLOK:  cpu time    0.2765: real time    0.2772
    SETDIJ:  cpu time    0.0412: real time    0.0413
     EDDAV:  cpu time    7.4663: real time    7.4841
    CHARGE:  cpu time    0.4436: real time    0.4447
    MIXING:  cpu time    0.0088: real time    0.0088
    --------------------------------------------
      LOOP:  cpu time    8.2365: real time    8.2561

 eigenvalue-minimisations  :  2320
 total energy-change (2. order) : 0.9074879E+01  (-0.7928997E+01)
 number of electron     690.0000002 magnetization      13.6118232
 augmentation part      187.2749782 magnetization      13.6908005

 Broyden mixing:
  rms(total) = 0.52400E+01    rms(broyden)= 0.52392E+01
  rms(prec ) = 0.63584E+01
  weight for this iteration     100.00

 eigenvalues of (default mixing * dielectric matrix)
  average eigenvalue GAMMA=   0.4594
  1.9910  0.7052  0.4763  0.3945  0.3945  0.2142  0.1343  0.1343  0.0749  0.0749

 Free energy of the ion-electron system (eV)
  ---------------------------------------------------
  alpha Z        PSCENC =      3614.79071522
  Ewald energy   TEWEN  =    -44784.90701745
  -Hartree energ DENC   =    -12985.14740521
  -exchange      EXHF   =         0.00000000
  -V(xc)+E(xc)   XCENC  =      2643.42800385
  PAW double counting   =     77577.86312794   -78727.96032837
  entropy T*S    EENTRO =        -0.07375321
  eigenvalues    EBANDS =     -5476.06528173
  atomic energy  EATOM  =     57325.35920724
  Solvation  Ediel_sol  =         0.00000000
  ---------------------------------------------------
  free energy    TOTEN  =      -812.71273172 eV

  energy without entropy =     -812.63897851  energy(sigma->0) =     -812.67585512


--------------------------------------------------------------------------------------------------------




--------------------------------------- Iteration      1(  16)  ---------------------------------------


    POTLOK:  cpu time    0.2758: real time    0.2765
    SETDIJ:  cpu time    0.0414: real time    0.0415
     EDDAV:  cpu time    7.4930: real time    7.5108
    CHARGE:  cpu time    0.4884: real time    0.4896
    MIXING:  cpu time    0.0087: real time    0.0087
    --------------------------------------------
      LOOP:  cpu time    8.3073: real time    8.3271

 eigenvalue-minimisations  :  2336
 total energy-change (2. order) : 0.3609442E+01  (-0.4766291E+01)
 number of electron     690.0000004 magnetization      13.0738596
 augmentation part      187.0416440 magnetization      13.1258020

 Broyden mixing:
  rms(total) = 0.31069E+01    rms(broyden)= 0.31062E+01
  rms(prec ) = 0.35467E+01
  weight for this iteration     100.00

 eigenvalues of (default mixing * dielectric matrix)
  average eigenvalue GAMMA=   0.4299
  2.0187  0.7428  0.4786  0.3935  0.3935  0.1819  0.1421  0.1421  0.0776  0.0776
  0.0808

 Free energy of the ion-electron system (eV)
  ---------------------------------------------------
  alpha Z        PSCENC =      3614.79071522
  Ewald energy   TEWEN  =    -44784.90701745
  -Hartree energ DENC   =    -13000.16947145
  -exchange      EXHF   =         0.00000000
  -V(xc)+E(xc)   XCENC  =      2644.07239565
  PAW double counting   =     77874.35869531   -79027.27231919
  entropy T*S    EENTRO =        -0.02895927
  eigenvalues    EBANDS =     -5455.30653551
  atomic energy  EATOM  =     57325.35920724
  Solvation  Ediel_sol  =         0.00000000
  ---------------------------------------------------
  free energy    TOTEN  =      -809.10328945 eV

  energy without entropy =     -809.07433019  energy(sigma->0) =     -809.08880982


--------------------------------------------------------------------------------------------------------




--------------------------------------- Iteration      1(  17)  ---------------------------------------


    POTLOK:  cpu time    0.2785: real time    0.2791
    SETDIJ:  cpu time    0.0410: real time    0.0411
     EDDAV:  cpu time    7.8413: real time    7.8599
    CHARGE:  cpu time    0.4830: real time    0.4842
    MIXING:  cpu time    0.0085: real time    0.0085
    --------------------------------------------
      LOOP:  cpu time    8.6523: real time    8.6729

 eigenvalue-minimisations  :  2480
 total energy-change (2. order) : 0.4517527E+00  (-0.2963276E+00)
 number of electron     690.0000003 magnetization      12.6401588
 augmentation part      187.1024005 magnetization      12.7037537

 Broyden mixing:
  rms(total) = 0.23856E+01    rms(broyden)= 0.23851E+01
  rms(prec ) = 0.26401E+01
  weight for this iteration     100.00

 eigenvalues of (default mixing * dielectric matrix)
  average eigenvalue GAMMA=   0.4211
  2.0874  0.6998  0.5044  0.3452  0.3452  0.2318  0.2318  0.1939  0.1307  0.1307
  0.0760  0.0760

 Free energy of the ion-electron system (eV)
  ---------------------------------------------------
  alpha Z        PSCENC =      3614.79071522
  Ewald energy   TEWEN  =    -44784.90701745
  -Hartree energ DENC   =    -12998.88878372
  -exchange      EXHF   =         0.00000000
  -V(xc)+E(xc)   XCENC  =      2644.29280055
  PAW double counting   =     78006.10903915   -79157.81553705
  entropy T*S    EENTRO =        -0.05248730
  eigenvalues    EBANDS =     -5457.53947338
  atomic energy  EATOM  =     57325.35920724
  Solvation  Ediel_sol  =         0.00000000
  ---------------------------------------------------
  free energy    TOTEN  =      -808.65153674 eV

  energy without entropy =     -808.59904944  energy(sigma->0) =     -808.62529309


--------------------------------------------------------------------------------------------------------




--------------------------------------- Iteration      1(  18)  ---------------------------------------


    POTLOK:  cpu time    0.2776: real time    0.2782
    SETDIJ:  cpu time    0.0413: real time    0.0414
     EDDAV:  cpu time    7.9577: real time    7.9766
    CHARGE:  cpu time    0.4136: real time    0.4146
    MIXING:  cpu time    0.0085: real time    0.0085
    --------------------------------------------
      LOOP:  cpu time    8.6986: real time    8.7193

 eigenvalue-minimisations  :  2464
 total energy-change (2. order) :-0.6236693E+00  (-0.1733341E+00)
 number of electron     690.0000003 magnetization      12.6249230
 augmentation part      187.8453033 magnetization      13.6012169

 Broyden mixing:
  rms(total) = 0.22633E+01    rms(broyden)= 0.22630E+01
  rms(prec ) = 0.25544E+01
  weight for this iteration     100.00

 eigenvalues of (default mixing * dielectric matrix)
  average eigenvalue GAMMA=   0.3904
  2.0885  0.7073  0.5000  0.3455  0.3455  0.2316  0.2316  0.1933  0.1308  0.1308
  0.0759  0.0759  0.0178

 Free energy of the ion-electron system (eV)
  ---------------------------------------------------
  alpha Z        PSCENC =      3614.79071522
  Ewald energy   TEWEN  =    -44784.90701745
  -Hartree energ DENC   =    -12995.51427635
  -exchange      EXHF   =         0.00000000
  -V(xc)+E(xc)   XCENC  =      2644.56171428
  PAW double counting   =     78183.90349014   -79333.76331021
  entropy T*S    EENTRO =        -0.05878700
  eigenvalues    EBANDS =     -5463.64694190
  atomic energy  EATOM  =     57325.35920724
  Solvation  Ediel_sol  =         0.00000000
  ---------------------------------------------------
  free energy    TOTEN  =      -809.27520604 eV

  energy without entropy =     -809.21641905  energy(sigma->0) =     -809.24581255


--------------------------------------------------------------------------------------------------------




--------------------------------------- Iteration      1(  19)  ---------------------------------------


    POTLOK:  cpu time    0.2573: real time    0.2580
    SETDIJ:  cpu time    0.0401: real time    0.0402
     EDDAV:  cpu time    7.6581: real time    7.6763
    CHARGE:  cpu time    0.4796: real time    0.4807
    MIXING:  cpu time    0.0098: real time    0.0099
    --------------------------------------------
      LOOP:  cpu time    8.4450: real time    8.4651

 eigenvalue-minimisations  :  2336
 total energy-change (2. order) :-0.1878800E-01  (-0.1774979E-01)
 number of electron     690.0000003 magnetization      12.6242381
 augmentation part      187.7707720 magnetization      13.7173073

 Broyden mixing:
  rms(total) = 0.22676E+01    rms(broyden)= 0.22676E+01
  rms(prec ) = 0.25438E+01
  weight for this iteration     100.00

 eigenvalues of (default mixing * dielectric matrix)
  average eigenvalue GAMMA=   0.3804
  2.1086  0.7195  0.4794  0.3445  0.3445  0.2442  0.2442  0.2162  0.1305  0.1305
  0.0761  0.0761  0.1053  0.1053

 Free energy of the ion-electron system (eV)
  ---------------------------------------------------
  alpha Z        PSCENC =      3614.79071522
  Ewald energy   TEWEN  =    -44784.90701745
  -Hartree energ DENC   =    -12995.57511226
  -exchange      EXHF   =         0.00000000
  -V(xc)+E(xc)   XCENC  =      2644.57176815
  PAW double counting   =     78185.55790794   -79335.24428829
  entropy T*S    EENTRO =        -0.05665469
  eigenvalues    EBANDS =     -5463.79051990
  atomic energy  EATOM  =     57325.35920724
  Solvation  Ediel_sol  =         0.00000000
  ---------------------------------------------------
  free energy    TOTEN  =      -809.29399405 eV

  energy without entropy =     -809.23733936  energy(sigma->0) =     -809.26566670


--------------------------------------------------------------------------------------------------------




--------------------------------------- Iteration      1(  20)  ---------------------------------------


    POTLOK:  cpu time    0.2763: real time    0.2770
    SETDIJ:  cpu time    0.0418: real time    0.0419
     EDDAV:  cpu time    8.7812: real time    8.8021
    CHARGE:  cpu time    0.4591: real time    0.4602
    MIXING:  cpu time    0.0088: real time    0.0089
    --------------------------------------------
      LOOP:  cpu time    9.5673: real time    9.5900

 eigenvalue-minimisations  :  2832
 total energy-change (2. order) :-0.2230375E-02  (-0.1548182E-02)
 number of electron     690.0000003 magnetization      12.4201227
 augmentation part      187.7686359 magnetization      13.5499278

 Broyden mixing:
  rms(total) = 0.22831E+01    rms(broyden)= 0.22831E+01
  rms(prec ) = 0.25591E+01
  weight for this iteration     100.00

 eigenvalues of (default mixing * dielectric matrix)
  average eigenvalue GAMMA=   0.3710
  2.1099  0.7214  0.4736  0.3356  0.3356  0.2464  0.2464  0.2094  0.2094  0.2193
  0.1305  0.1305  0.0761  0.0761  0.0440

 Free energy of the ion-electron system (eV)
  ---------------------------------------------------
  alpha Z        PSCENC =      3614.79071522
  Ewald energy   TEWEN  =    -44784.90701745
  -Hartree energ DENC   =    -12995.52916088
  -exchange      EXHF   =         0.00000000
  -V(xc)+E(xc)   XCENC  =      2644.56876651
  PAW double counting   =     78186.33570818   -79336.01359864
  entropy T*S    EENTRO =        -0.05508675
  eigenvalues    EBANDS =     -5463.84575785
  atomic energy  EATOM  =     57325.35920724
  Solvation  Ediel_sol  =         0.00000000
  ---------------------------------------------------
  free energy    TOTEN  =      -809.29622442 eV

[...]
     10.20912      4.99717      4.22535        -0.005147     -0.002191      0.001444
      2.92472      9.98978      3.38465         0.002213      0.000000     -0.003833
      4.31964      4.98246      4.24783        -0.003858     -0.001016      0.003583
      7.30506      9.99618      5.88890         0.002067      0.001060     -0.003537
      8.78753     14.99200      5.06789        -0.003699      0.001518      0.003856
     11.64414      0.03855      5.05386         0.001323      0.002191      0.005179
     11.64975      5.01637      6.72039        -0.001490     -0.001518      0.005131
      4.37707      9.97872      5.89541         0.001096      0.001102     -0.004241
     13.03686      7.57912      7.49548         0.001025      0.001476     -0.002598
      8.73990     12.41371      1.76571         0.005300     -0.006877     -0.005075
      1.48229      2.45566      0.89569        -0.008897      0.003119     -0.002597
      7.39438      7.68068      7.52250         0.015380      0.001561     -0.006165
      2.95604     12.39574      1.76521        -0.002450     -0.005533     -0.004929
      4.37723      2.50345      0.84058        -0.002807     -0.000000      0.004862
      5.88105      7.58375      0.04184        -0.002907      0.003866      0.003748
      5.85274     12.31328      1.57658        -0.002351     -0.001561     -0.016402
      7.25282      2.55235      0.78837        -0.002004     -0.001834      0.006221
      7.38691      7.67399      2.47845         0.006864      0.002208     -0.002195
      7.42273     12.42925      4.25416         0.001737     -0.001476     -0.002186
      8.82948      2.38700      3.43376        -0.010352     -0.000735      0.010423
     10.23920      7.56906      2.65075         0.003029      0.001349      0.000267
     10.22220     12.66239      4.19485         0.002481      0.005987      0.017354
      2.85096      2.50345      3.48414        -0.002368     -0.000000      0.004102
      4.31154      7.58381      2.54781         0.005494      0.005533     -0.000342
      4.27089     12.42490      4.26080        -0.001746     -0.001349     -0.002490
      5.77696      2.55124      3.37522         0.006698     -0.003119      0.006407
      5.78700      7.58025      5.11671         0.001745      0.006877     -0.007127
      5.84625     12.31997      6.64481        -0.001531     -0.002208     -0.007042
      7.35247      2.46895      5.90175        -0.004386      0.001834      0.004846
      8.74205      7.57787      5.00531        -0.003537     -0.000609      0.000584
      8.70935     12.41021      6.73061        -0.001793     -0.003866      0.004391
     10.26303      2.51786      5.78899        -0.007581     -0.000000      0.013131
      2.94216      7.33157      5.04758        -0.016269     -0.005987      0.006528
     11.72669     12.43050      6.72849         0.001263      0.000609      0.003355
      4.27317      2.63431      5.85903        -0.003851      0.000735      0.014177
      0.06505     11.13475      0.02055         0.000888     -0.003354     -0.004783
      0.04090      3.83508      0.02035         0.003324     -0.001698      0.001992
      8.73092      1.22310      1.67207        -0.001522      0.000772     -0.000356
      8.80193      8.83412      1.67089         0.005952     -0.006090     -0.006613
      1.45817      6.28149      0.84778         0.003434     -0.013374     -0.001238
      1.47663     13.76095      0.87132        -0.001383      0.007304      0.004978
      2.88088     11.12863      0.02227        -0.001332     -0.000945     -0.004747
      2.87308      3.60264      0.04617        -0.005111      0.003491      0.004201
      2.92248      1.19955      1.68371        -0.006757      0.005990     -0.000170
      2.89176      8.82762      1.67674         0.005782     -0.003808     -0.005879
      4.43036      6.43115      0.85874         0.002519     -0.001701      0.003985
      4.35941     13.54840      0.81778        -0.004710      0.001701     -0.000189
     10.22182     11.14552      7.51521         0.002343     -0.001963     -0.009765
      5.81727      3.82320      0.01336        -0.000494     -0.009084      0.003775
      5.81728      1.40425      1.74601        -0.001083     -0.003491      0.006526
      5.85855      8.85092      1.74143         0.004777      0.000945     -0.001220
      7.32211      6.30282      0.86673         0.001463     -0.006108      0.002667
      7.34908     13.56310      0.81919         0.000953      0.004386      0.001152
      7.26116     11.15862      2.55942         0.003912      0.003549     -0.006904
      7.30638      3.68085      2.53758         0.009757     -0.008110      0.001337
      7.25573      1.17182      4.18584        -0.003388      0.001698     -0.001883
      7.26795      8.84480      4.17915         0.003698      0.003354     -0.003160
      8.74817      6.30015      3.34274        -0.002236      0.002953     -0.001429
      8.70586     13.81937      3.34279        -0.000576     -0.001451      0.004906
      1.47426     11.15968      2.48665         0.000957     -0.009522     -0.009021
      1.48072      3.82938      2.49240         0.005153     -0.002154      0.004181
     10.20298      1.14220      4.21932        -0.005903     -0.001060      0.008290
     10.22101      8.81885      4.25032         0.006105     -0.005973     -0.001867
      2.91684      6.17429      3.30360        -0.004720      0.000109      0.002869
      2.99885     13.80526      3.35095        -0.000124     -0.000109      0.005522
      4.42030     11.15193      2.55924         0.002200      0.003808     -0.007947
      4.37443      3.80734      2.52199         0.003526     -0.005990      0.005767
      4.39495      1.17752      4.17494        -0.006198      0.002154     -0.002372
      4.42765      8.81987      4.19179         0.007334      0.009522     -0.005340
      5.82538      6.21860      3.38207        -0.003620     -0.007304      0.003687
      5.85499     13.69807      3.38629        -0.000645      0.013374     -0.003593
      5.83811     11.15984      5.01558         0.002751      0.006090     -0.008460
      5.84812      3.79820      5.06354         0.001069     -0.000772      0.001140
      5.81083      1.34045      6.72998        -0.006037      0.008110     -0.007781
      5.83900      8.83534      6.79419         0.004023     -0.003549     -0.006840
      7.30213      6.43086      5.84794        -0.001475     -0.004386     -0.000249
      7.27444     13.69114      5.89507        -0.003042      0.006108      0.000067
      8.80737     11.17683      5.07539         0.002967      0.000863     -0.004315
      8.72938      3.81263      5.07846        -0.001306     -0.006334      0.006432
      8.74142      1.19810      6.75748        -0.003022      0.009084      0.002316
      8.81316      8.86285      6.70192         0.007285      0.001963     -0.006911
     10.15925      6.15540      5.91517        -0.001759     -0.002471      0.001693
     10.23012     13.85297      5.95609        -0.000587      0.002471      0.002370
     11.64104     11.18952      5.07018        -0.001435      0.005973     -0.006220
     11.65243      3.89351      5.05616        -0.004228      0.001060      0.009257
     11.64519      1.22309      6.76190        -0.004917      0.006334      0.004347
     11.63334      8.83154      6.70696         0.002253     -0.000863     -0.004727
      4.43823      6.17459      5.93473        -0.003961      0.001451      0.002952
      4.41713     13.69381      5.89806         0.002356     -0.002953      0.001222
 -----------------------------------------------------------------------------------
    total drift:                               -0.016164      0.003279      0.032491


--------------------------------------------------------------------------------------------------------



  FREE ENERGIE OF THE ION-ELECTRON SYSTEM (eV)
  ---------------------------------------------------
  free  energy   TOTEN  =      -811.6400322260 eV

  energy  without entropy=     -811.6262738728  energy(sigma->0) =     -811.63315305
 
 d Force = 0.4566236E-03[ 0.440E-03, 0.473E-03]  d Energy = 0.4492701E-03 0.735E-05
 d Force = 0.1469356E+01[ 0.147E+01, 0.147E+01]  d Ewald  = 0.3101625E+01-0.163E+01


--------------------------------------------------------------------------------------------------------


    POTLOK:  cpu time    0.3059: real time    0.3066


--------------------------------------------------------------------------------------------------------


 Quasi-Newton relaxation of ions (Broydens 2nd method)
  g(Force)  = 0.355E-03   g(Stress)= 0.659E-04

 retain information from N=  3 steps
 eigenvalues of (default step * inverse Hessian matrix)
  average eigenvalue of G=   1.1985
 eigenvalue spectrum of G is  0.8085  0.8085  1.9787


--------------------------------------------------------------------------------------------------------


  
 reached required accuracy - stopping structural energy minimisation
     LOOP+:  cpu time   46.6217: real time   46.9035
    4ORBIT:  cpu time    0.0000: real time    0.0000

volume of typ            1:    15.2 %

volume of typ            2:     7.7 %

volume of typ            3:    21.2 %

volume of typ            4:     8.9 %
 
total charge     
 
# of ion       s       p       d       tot
------------------------------------------
    1        0.237   6.097   2.161   8.494
    2        0.245   6.112   2.092   8.449
    3        0.292   6.188   1.904   8.384
    4        0.236   6.095   2.164   8.496
    5        0.245   6.106   2.145   8.496
    6        0.236   6.087   2.209   8.531
    7        0.236   6.095   2.164   8.496
    8        0.244   6.104   2.145   8.493
    9        0.237   6.097   2.161   8.494
   10        0.245   6.106   2.145   8.496
   11        0.292   6.188   1.904   8.384
   12        0.245   6.112   2.092   8.449
   13        0.244   6.104   2.145   8.493
   14        0.236   6.087   2.209   8.531
   15        0.291   6.187   1.900   8.378
   16        0.202   0.236   7.921   8.359
   17        0.203   0.238   7.923   8.363
   18        0.203   0.239   7.922   8.364
   19        0.206   0.237   7.927   8.370
   20        0.207   0.233   7.937   8.377
   21        0.203   0.238   7.921   8.361
   22        0.206   0.237   7.927   8.370
   23        0.203   0.238   7.923   8.363
   24        0.207   0.233   7.940   8.379
   25        0.207   0.233   7.937   8.377
   26        0.207   0.233   7.940   8.379
   27        0.203   0.239   7.922   8.364
   28        2.078   0.263   0.102   2.444
   29        2.080   0.269   0.106   2.455
   30        2.084   0.285   0.118   2.487
   31        2.083   0.279   0.113   2.475
   32        2.080   0.269   0.106   2.455
   33        2.084   0.294   0.119   2.497
   34        2.080   0.269   0.107   2.457
   35        2.083   0.279   0.113   2.475
   36        2.080   0.271   0.109   2.460
   37        2.083   0.283   0.111   2.477
   38        2.078   0.263   0.102   2.444
   39        2.074   0.245   0.095   2.415
   40        2.079   0.266   0.104   2.449
   41        2.067   0.225   0.084   2.376
   42        2.071   0.234   0.087   2.392
   43        2.080   0.269   0.106   2.455
   44        2.079   0.266   0.104   2.449
   45        2.084   0.285   0.118   2.487
   46        2.080   0.269   0.106   2.455
   47        2.083   0.283   0.111   2.477
   48        2.080   0.271   0.109   2.460
   49        2.081   0.271   0.108   2.460
   50        2.080   0.269   0.107   2.457
   51        2.071   0.237   0.090   2.398
   52        2.067   0.225   0.084   2.376
   53        2.081   0.271   0.108   2.460
   54        2.074   0.245   0.095   2.415
   55        1.248   2.836   0.005   4.089
   56        1.245   2.839   0.005   4.089
   57        1.246   2.839   0.006   4.092
   58        1.248   2.838   0.005   4.091
   59        1.246   2.844   0.006   4.096
   60        1.249   2.834   0.006   4.089
   61        1.247   2.836   0.005   4.088
   62        1.245   2.844   0.006   4.094
   63        1.247   2.840   0.006   4.094
   64        1.248   2.837   0.005   4.090
   65        1.244   2.845   0.007   4.096
   66        1.244   2.845   0.007   4.096
   67        1.247   2.840   0.005   4.092
   68        1.246   2.839   0.006   4.091
   69        1.245   2.844   0.006   4.094
   70        1.247   2.836   0.005   4.088
   71        1.246   2.840   0.006   4.092
   72        1.244   2.846   0.007   4.097
   73        1.247   2.837   0.005   4.089
   74        1.246   2.835   0.007   4.088
   75        1.245   2.839   0.005   4.089
   76        1.248   2.836   0.005   4.089
   77        1.246   2.841   0.006   4.093
   78        1.246   2.830   0.005   4.081
   79        1.248   2.834   0.005   4.086
   80        1.245   2.838   0.005   4.089
   81        1.244   2.810   0.004   4.058
   82        1.248   2.836   0.005   4.089
   83        1.247   2.829   0.005   4.081
   84        1.247   2.829   0.005   4.081
   85        1.248   2.837   0.005   4.090
   86        1.247   2.840   0.006   4.094
   87        1.245   2.838   0.005   4.089
   88        1.248   2.834   0.005   4.086
   89        1.249   2.834   0.006   4.089
   90        1.246   2.844   0.006   4.096
   91        1.248   2.838   0.005   4.091
   92        1.246   2.839   0.006   4.092
   93        1.246   2.835   0.007   4.088
   94        1.247   2.837   0.005   4.089
   95        1.244   2.846   0.007   4.097
   96        1.246   2.840   0.006   4.092
   97        1.248   2.835   0.005   4.088
   98        1.246   2.838   0.006   4.089
   99        1.246   2.839   0.006   4.091
  100        1.247   2.840   0.005   4.092
  101        1.246   2.820   0.005   4.072
  102        1.246   2.820   0.005   4.072
  103        1.248   2.836   0.005   4.089
  104        1.244   2.810   0.004   4.058
  105        1.246   2.838   0.006   4.089
  106        1.248   2.835   0.005   4.088
  107        1.246   2.830   0.005   4.081
  108        1.246   2.841   0.006   4.093
--------------------------------------------------
tot         129.65  254.91  129.80  514.36
 
magnetization (x)
 
# of ion       s       p       d       tot
------------------------------------------
    1       -0.001  -0.001  -0.033  -0.035
    2       -0.001  -0.001  -0.077  -0.079
    3        0.002   0.002   0.017   0.021
    4       -0.001  -0.001  -0.032  -0.033
    5       -0.002  -0.002  -0.078  -0.081
    6       -0.002  -0.003  -0.156  -0.161
    7       -0.001  -0.001  -0.032  -0.033
    8       -0.002  -0.002  -0.087  -0.091
    9       -0.001  -0.001  -0.033  -0.035
   10       -0.002  -0.002  -0.078  -0.081
   11        0.002   0.002   0.017   0.021
   12       -0.001  -0.001  -0.077  -0.079
   13       -0.002  -0.002  -0.087  -0.091
   14       -0.002  -0.003  -0.156  -0.161
   15        0.002   0.002   0.019   0.023
   16       -0.000   0.000  -1.487  -1.487
   17       -0.001   0.001  -1.483  -1.483
   18       -0.001   0.001  -1.480  -1.480
   19        0.002   0.002   1.441   1.445
   20       -0.002   0.001   1.388   1.387
   21       -0.001   0.001  -1.479  -1.479
   22        0.002   0.002   1.441   1.445
   23       -0.001   0.001  -1.483  -1.483
   24       -0.002   0.001   1.385   1.384
   25       -0.002   0.001   1.388   1.387
   26       -0.002   0.001   1.385   1.384
   27       -0.001   0.001  -1.480  -1.480
   28       -0.000  -0.001  -0.000  -0.002
   29       -0.001  -0.002  -0.001  -0.003
   30        0.001   0.003   0.001   0.005
   31       -0.001  -0.004  -0.001  -0.006
   32       -0.001  -0.002  -0.001  -0.003
   33        0.003   0.008   0.002   0.013
   34       -0.000  -0.002  -0.001  -0.004
   35       -0.001  -0.004  -0.001  -0.006
   36        0.001   0.004   0.001   0.006
   37        0.001  -0.000  -0.000   0.000
   38       -0.000  -0.001  -0.000  -0.002
   39        0.001   0.003   0.001   0.005
   40       -0.000  -0.001  -0.000  -0.002
   41       -0.001  -0.004  -0.001  -0.007
   42        0.002   0.005   0.001   0.008
   43       -0.001  -0.002  -0.001  -0.003
   44       -0.000  -0.001  -0.000  -0.002
   45        0.001   0.003   0.001   0.005
   46       -0.001  -0.002  -0.001  -0.003
   47        0.001  -0.000  -0.000   0.000
   48        0.001   0.004   0.001   0.006
   49       -0.000  -0.002  -0.001  -0.003
   50       -0.000  -0.002  -0.001  -0.004
   51        0.003   0.006   0.001   0.010
   52       -0.001  -0.004  -0.001  -0.007
   53       -0.000  -0.002  -0.001  -0.003
   54        0.001   0.003   0.001   0.005
   55       -0.009  -0.117  -0.000  -0.127
   56        0.004   0.042   0.000   0.046
   57        0.005   0.046   0.000   0.051
   58       -0.009  -0.114  -0.000  -0.123
   59       -0.000   0.001  -0.000   0.001
   60        0.003   0.043   0.000   0.046
   61       -0.009  -0.116  -0.000  -0.126
   62        0.000   0.001  -0.000   0.000
   63        0.005   0.047   0.000   0.051
   64       -0.009  -0.114  -0.000  -0.123
   65        0.000   0.001  -0.000   0.001
   66        0.000   0.001  -0.000   0.001
   67       -0.009  -0.117  -0.000  -0.126
   68        0.004   0.039   0.000   0.043
   69        0.000   0.001  -0.000   0.000
   70       -0.009  -0.116  -0.000  -0.126
   71        0.003   0.034  -0.000   0.037
   72        0.000   0.000  -0.000  -0.000
   73       -0.009  -0.117  -0.000  -0.127
   74       -0.000  -0.005  -0.000  -0.005
   75        0.004   0.042   0.000   0.046
   76       -0.009  -0.117  -0.000  -0.127
   77        0.003   0.035  -0.000   0.038
   78        0.009   0.109   0.000   0.118
   79       -0.009  -0.118  -0.000  -0.128
   80        0.004   0.043   0.000   0.047
   81        0.014   0.224   0.000   0.238
   82       -0.008  -0.116  -0.000  -0.125
   83        0.009   0.111   0.000   0.120
   84        0.009   0.111   0.000   0.120
   85       -0.009  -0.114  -0.000  -0.123
   86        0.005   0.047   0.000   0.051
   87        0.004   0.043   0.000   0.047
   88       -0.009  -0.118  -0.000  -0.128
   89        0.003   0.043   0.000   0.046
   90       -0.000   0.001  -0.000   0.001
   91       -0.009  -0.114  -0.000  -0.123
   92        0.005   0.046   0.000   0.051
   93       -0.000  -0.005  -0.000  -0.005
   94       -0.009  -0.117  -0.000  -0.127
   95        0.000   0.000  -0.000  -0.000
   96        0.003   0.034  -0.000   0.037
   97       -0.009  -0.119  -0.000  -0.128
   98        0.004   0.041   0.000   0.045
   99        0.004   0.039   0.000   0.043
  100       -0.009  -0.117  -0.000  -0.126
  101        0.009   0.117   0.000   0.127
  102        0.009   0.117   0.000   0.127
  103       -0.008  -0.116  -0.000  -0.125
  104        0.014   0.224   0.000   0.238
  105        0.004   0.041   0.000   0.045
  106       -0.009  -0.119  -0.000  -0.128
  107        0.009   0.109   0.000   0.118
  108        0.003   0.035  -0.000   0.038
--------------------------------------------------
tot          -0.02   -0.24   -1.35   -1.61
 

 total amount of memory used by VASP MPI-rank0   154452. kBytes
=======================================================================

   base      :      30000. kBytes
   nonlr-proj:      42527. kBytes
   fftplans  :       9702. kBytes
   grid      :      59236. kBytes
   one-center:       1679. kBytes
   wavefun   :      11308. kBytes
 
  
  
 General timing and accounting informations for this job:
 ========================================================
  
                  Total CPU time used (sec):     2119.343
                            User time (sec):     2108.890
                          System time (sec):       10.452
                         Elapsed time (sec):     2130.370
  
                   Maximum memory used (kb):      210348.
                   Average memory used (kb):           0.
  
                          Minor page faults:        40298
                          Major page faults:           13
                 Voluntary context switches:         1277
