 vasp.5.4.4.18Apr17-6-g9f103f2a35 (build May 12 2020 05:39:39) gamma-only       
  
 MD_VERSION_INFO: Compiled 2020-05-12T12:39:39-UTC in devlin.sd.materialsdesign.
 com:/home/medea2/data/build/wwolf/vasp-gpu5.4.4/13047/x86_64/src/src/build/gam 
 from svn 13047
 
 This VASP executable licensed from Materials Design, Inc.
 
 executed on                        Lin64 date 2023.04.01  14:46:00
 running on   16 total cores
 distrk:  each k-point on   16 cores,    1 groups
 distr:  one band on NCORES_PER_BAND=   1 cores,   16 groups


--------------------------------------------------------------------------------------------------------


 INCAR:
 POTCAR:    PAW_PBE Ta_pv 07Sep2000               
 POTCAR:    PAW_PBE Ni 02Aug2007                  
 POTCAR:    PAW_PBE Li_sv 10Sep2004               
 POTCAR:    PAW_PBE O 08Apr2002                   

 ----------------------------------------------------------------------------- 
|                                                                             |
|           W    W    AA    RRRRR   N    N  II  N    N   GGGG   !!!           |
|           W    W   A  A   R    R  NN   N  II  NN   N  G    G  !!!           |
|           W    W  A    A  R    R  N N  N  II  N N  N  G       !!!           |
|           W WW W  AAAAAA  RRRRR   N  N N  II  N  N N  G  GGG   !            |
|           WW  WW  A    A  R   R   N   NN  II  N   NN  G    G                |
|           W    W  A    A  R    R  N    N  II  N    N   GGGG   !!!           |
|                                                                             |
|      For optimal performance we recommend to set                            |
|        NCORE= 4 - approx SQRT( number of cores)                             |
|      NCORE specifies how many cores store one orbital (NPAR=cpu/NCORE).     |
|      This setting can  greatly improve the performance of VASP for DFT.     |
|      The default,   NCORE=1            might be grossly inefficient         |
|      on modern multi-core architectures or massively parallel machines.     |
|      Do your own testing !!!!                                               |
|      Unfortunately you need to use the default for GW and RPA calculations. |
|      (for HF NCORE is supported but not extensively tested yet)             |
|                                                                             |
 ----------------------------------------------------------------------------- 

 POTCAR:    PAW_PBE Ta_pv 07Sep2000               
  local pseudopotential read in
  partial core-charges read in
  partial kinetic energy density read in
  atomic valenz-charges read in
  non local Contribution for L=           1  read in
    real space projection operators read in
  non local Contribution for L=           1  read in
    real space projection operators read in
  non local Contribution for L=           2  read in
    real space projection operators read in
  non local Contribution for L=           2  read in
    real space projection operators read in
  non local Contribution for L=           0  read in
    real space projection operators read in
  non local Contribution for L=           0  read in
    real space projection operators read in
    PAW grid and wavefunctions read in
 
   number of l-projection  operators is LMAX  =           6
   number of lm-projection operators is LMMAX =          18
 
 POTCAR:    PAW_PBE Ni 02Aug2007                  
  local pseudopotential read in
  partial core-charges read in
  partial kinetic energy density read in
  atomic valenz-charges read in
  non local Contribution for L=           2  read in
    real space projection operators read in
  non local Contribution for L=           2  read in
    real space projection operators read in
  non local Contribution for L=           0  read in
    real space projection operators read in
  non local Contribution for L=           0  read in
    real space projection operators read in
  non local Contribution for L=           1  read in
    real space projection operators read in
  non local Contribution for L=           1  read in
    real space projection operators read in
    PAW grid and wavefunctions read in
 
   number of l-projection  operators is LMAX  =           6
   number of lm-projection operators is LMMAX =          18
 
 POTCAR:    PAW_PBE Li_sv 10Sep2004               
  local pseudopotential read in
  atomic valenz-charges read in
  non local Contribution for L=           0  read in
    real space projection operators read in
  non local Contribution for L=           0  read in
    real space projection operators read in
  non local Contribution for L=           1  read in
    real space projection operators read in
    PAW grid and wavefunctions read in
 
   number of l-projection  operators is LMAX  =           3
   number of lm-projection operators is LMMAX =           5
 
 POTCAR:    PAW_PBE O 08Apr2002                   
  local pseudopotential read in
  partial core-charges read in
  partial kinetic energy density read in
  kinetic energy density of atom read in
  atomic valenz-charges read in
  non local Contribution for L=           0  read in
    real space projection operators read in
  non local Contribution for L=           0  read in
    real space projection operators read in
  non local Contribution for L=           1  read in
    real space projection operators read in
  non local Contribution for L=           1  read in
    real space projection operators read in
    PAW grid and wavefunctions read in
 
   number of l-projection  operators is LMAX  =           4
   number of lm-projection operators is LMMAX =           8
 
 Optimization of the real space projectors (new method)

 maximal supplied QI-value         = 15.12
 optimisation between [QCUT,QGAM] = [ 11.34, 22.83] = [ 36.00,145.93] Ry 
 Optimized for a Real-space Cutoff    1.61 Angstroem

   l    n(q)    QCUT    max X(q) W(low)/X(q) W(high)/X(q)  e(spline) 
   1     11    11.338     4.092    0.40E-05    0.64E-05    0.47E-07
   1     11    11.338     4.834    0.13E-04    0.44E-04    0.21E-06
   2     10    11.338    62.294    0.15E-03    0.31E-03    0.77E-06
   2     10    11.338    50.966    0.15E-03    0.31E-03    0.77E-06
   0     11    11.338   103.792    0.33E-04    0.19E-04    0.90E-07
   0     11    11.338    56.335    0.26E-04    0.17E-04    0.79E-07
 Optimization of the real space projectors (new method)

 maximal supplied QI-value         = 16.25
 optimisation between [QCUT,QGAM] = [ 11.38, 22.75] = [ 36.24,144.96] Ry 
 Optimized for a Real-space Cutoff    1.47 Angstroem

   l    n(q)    QCUT    max X(q) W(low)/X(q) W(high)/X(q)  e(spline) 
   2      9    11.376    60.317    0.17E-03    0.16E-04    0.16E-06
   2      9    11.376    55.921    0.17E-03    0.16E-04    0.17E-06
   0     10    11.376    51.690    0.45E-04    0.60E-04    0.21E-06
   0     10    11.376    30.015    0.37E-04    0.55E-04    0.19E-06
   1     10    11.376    18.849    0.83E-04    0.11E-03    0.92E-07
   1     10    11.376    14.624    0.69E-04    0.92E-04    0.82E-07
 Optimization of the real space projectors (new method)

 maximal supplied QI-value         = 22.11
 optimisation between [QCUT,QGAM] = [ 11.28, 22.77] = [ 35.61,145.23] Ry 
 Optimized for a Real-space Cutoff    1.10 Angstroem

   l    n(q)    QCUT    max X(q) W(low)/X(q) W(high)/X(q)  e(spline) 
   0      7    11.276    10.506    0.54E-04    0.58E-04    0.16E-07
   0      7    11.276     8.367    0.11E-03    0.14E-03    0.35E-07
   1      7    11.276     8.983    0.23E-03    0.43E-03    0.86E-07
 Optimization of the real space projectors (new method)

 maximal supplied QI-value         = 24.76
 optimisation between [QCUT,QGAM] = [ 11.39, 22.77] = [ 36.31,145.25] Ry 
 Optimized for a Real-space Cutoff    1.10 Angstroem

   l    n(q)    QCUT    max X(q) W(low)/X(q) W(high)/X(q)  e(spline) 
   0      7    11.387    20.381    0.22E-03    0.48E-03    0.18E-06
   0      7    11.387    15.268    0.22E-03    0.52E-03    0.19E-06
   1      7    11.387     5.964    0.22E-03    0.73E-03    0.24E-06
   1      7    11.387     5.382    0.19E-03    0.60E-03    0.21E-06

 ----------------------------------------------------------------------------- 
|                                                                             |
|  ADVICE TO THIS USER RUNNING 'VASP/VAMP'   (HEAR YOUR MASTER'S VOICE ...):  |
|                                                                             |
|      You enforced a specific xc-type in the INCAR file,                     |
|      a different type was found on the POTCAR file                          |
|          I HOPE YOU KNOW, WHAT YOU ARE  DOING                               |
|                                                                             |
 ----------------------------------------------------------------------------- 

  PAW_PBE Ta_pv 07Sep2000               :
 energy of atom  1       EATOM=-1047.1984
 kinetic energy error for atom=    0.0019 (will be added to EATOM!!)
  PAW_PBE Ni 02Aug2007                  :
 energy of atom  2       EATOM=-1077.6739
 kinetic energy error for atom=    0.0030 (will be added to EATOM!!)
  PAW_PBE Li_sv 10Sep2004               :
 energy of atom  3       EATOM= -202.7858
 kinetic energy error for atom=    0.0143 (will be added to EATOM!!)
  PAW_PBE O 08Apr2002                   :
 energy of atom  4       EATOM= -432.3788
 kinetic energy error for atom=    0.0224 (will be added to EATOM!!)
 
 
 POSCAR: ce868_1                                 
  positions in direct lattice
  No initial velocities read in
 exchange correlation table for  LEXCH =       14
   RHO(1)=    0.500       N(1)  =     2000
   RHO(2)=  100.500       N(2)  =     4000
 


--------------------------------------------------------------------------------------------------------


 ion  position               nearest neighbor table
   1  0.001  0.001  0.997-  93 2.14 105 2.15  72 2.16  57 2.16  60 2.17 108 2.18  22 2.82  18 2.83
                             7 2.84   4 2.86  10 2.90  13 2.90  30 3.07  36 3.10  54 3.10
   2  0.888  0.334  0.233-  71 2.08  59 2.10  56 2.10  74 2.12  77 2.16  80 2.17  14 2.74   5 2.85
                            11 2.88   8 2.96  26 3.00  39 3.03  19 3.03  36 3.07  40 3.09  30 3.09
   3  0.104  0.665  0.125-  94 2.07  61 2.09  55 2.10  58 2.12  64 2.12  79 2.19  12 2.73  15 2.73
                             6 2.88   9 2.88  40 2.94  31 2.95  47 2.98  29 2.99  24 3.00  27 3.01
   4  0.336  0.998  0.989-  66 2.09  63 2.11  60 2.12  99 2.12  96 2.16  93 2.17  18 2.74  20 2.83
                             1 2.86   7 2.93  23 3.00  13 3.03  48 3.04  33 3.07  32 3.09  30 3.11
   5  0.220  0.332  0.229-  80 2.14  86 2.15  62 2.16  65 2.16  59 2.17  83 2.18  16 2.80  14 2.82
                             8 2.83   2 2.85  21 2.94  19 2.94  30 3.06  42 3.08
   6  0.438  0.665  0.125- 100 2.07  67 2.09  61 2.09  70 2.12  64 2.12  85 2.20  17 2.72  15 2.73
                             9 2.87   3 2.88  43 2.94  31 2.95  50 2.99  24 3.00  25 3.01  34 3.03
   7  0.675  0.999  0.989-  66 2.09  99 2.12  69 2.12  72 2.12 102 2.16 105 2.17  22 2.74  20 2.84
                             1 2.84   4 2.93  23 2.99  10 3.02  33 3.07  35 3.09
   8  0.546  0.334  0.232-  71 2.09  65 2.10  68 2.10  74 2.11  89 2.16  86 2.17  16 2.75   5 2.83
                            11 2.89   2 2.96  26 3.00  21 3.02  36 3.07  43 3.09
   9  0.771  0.665  0.125- 106 2.08  67 2.09  55 2.10  70 2.12  58 2.12  73 2.20  17 2.73  12 2.73
                             6 2.87   3 2.88  37 2.95  53 2.98  28 2.99  34 3.00  29 3.00  25 3.00
  10  0.676  1.000  0.334-  90 2.09  72 2.10  69 2.11  75 2.11  78 2.14  57 2.15  13 2.70  20 2.88
                             1 2.90  23 2.96  18 3.02   7 3.02  45 3.04  39 3.04  29 3.09
  11  0.555  0.337  0.558-  77 2.14  89 2.14  95 2.16  92 2.17  98 2.17  74 2.19  21 2.83  19 2.84
                            14 2.85  16 2.87   2 2.88   8 2.89  37 3.08
  12  0.785  0.668  0.430-  97 2.06  76 2.08  82 2.10  79 2.13  73 2.13  58 2.20   3 2.73   9 2.73
                            15 2.88  17 2.88  29 2.93  38 2.96  41 2.96  40 2.98  49 2.98  37 3.01
  13  0.989  0.999  0.334-  84 2.08  60 2.10  63 2.10  81 2.10  78 2.14  57 2.16  10 2.70  20 2.89
                             1 2.90  23 2.97  22 3.02   4 3.03  39 3.04  42 3.06  29 3.08  30 3.09
  14  0.892  0.335  0.545- 104 2.10 101 2.11  83 2.12  77 2.15  98 2.15  80 2.18   2 2.74   5 2.82
                            11 2.85  16 2.91  26 2.99  21 2.99  39 3.05  40 3.06  51 3.06
  15  0.119  0.668  0.430- 103 2.06  88 2.10  82 2.10  79 2.11  85 2.13  64 2.20   6 2.73   3 2.73
                            17 2.87  12 2.88  41 2.98  43 2.99  32 2.99  40 2.99  44 3.00  27 3.01
  16  0.229  0.335  0.545- 104 2.10 107 2.11  83 2.11  92 2.14  89 2.14  86 2.19   8 2.75   5 2.80
                            11 2.87  14 2.91  26 2.99  19 3.00  43 3.06  54 3.08
  17  0.452  0.669  0.429-  91 2.06  76 2.09  88 2.10  73 2.11  85 2.12  70 2.20   6 2.72   9 2.73
                            15 2.87  12 2.88  38 2.98  35 2.99  43 2.99  46 2.99  44 2.99  37 3.01
  18  0.330  0.998  0.678-  90 2.09  87 2.11 108 2.12  75 2.15  96 2.16  93 2.17   4 2.74   1 2.83
                            20 2.85  22 2.92  23 3.00  10 3.02  48 3.05  45 3.06
  19  0.234  0.336  0.886- 107 2.08  59 2.09  92 2.10  56 2.11  95 2.15  62 2.16  21 2.71  11 2.84
                             5 2.94  26 2.96  16 3.00   2 3.03  48 3.04  54 3.08
  20  0.664  0.997  0.670-  78 2.14 102 2.15  96 2.15  81 2.17  99 2.18  75 2.18   4 2.83   7 2.84
                            18 2.85  22 2.86  10 2.88  13 2.89  48 3.10
  21  0.547  0.335  0.886- 101 2.08  65 2.09  98 2.11  68 2.12  62 2.15  95 2.16  19 2.71  11 2.83
                             5 2.94  26 2.96  14 2.99   8 3.02  51 3.04  48 3.05
  22  0.992  0.998  0.679-  84 2.09  87 2.10 108 2.11  81 2.13 102 2.16 105 2.18   7 2.74   1 2.82
                            20 2.86  18 2.92  23 3.01  13 3.02  42 3.08
  23  0.334  0.998  0.333-  90 2.03  84 2.05  63 2.06  69 2.09  66 2.10  87 2.15  10 2.96  13 2.97
                             7 2.99   4 3.00  18 3.00  22 3.01
  24  0.444  0.666  0.778-  97 2.05  94 2.06 100 2.06  91 2.07  76 2.07  61 2.08  47 2.76  50 2.81
                            46 2.81  49 2.81  31 2.84  27 2.88  25 2.88   3 3.00   6 3.00  17 3.01
  25  0.778  0.665  0.778-  97 2.05 100 2.05 106 2.06 103 2.07  82 2.08  67 2.09  53 2.78  50 2.82
                            49 2.83  52 2.84  27 2.87  24 2.88   9 3.00   6 3.01  15 3.01  12 3.01
  26  0.889  0.337  0.889- 101 2.04 107 2.06  71 2.07  56 2.07  68 2.11 104 2.15  21 2.96  19 2.96
                            14 2.99  16 2.99   8 3.00   2 3.00
  27  0.111  0.666  0.777-  94 2.05 103 2.06  91 2.07 106 2.07  88 2.07  55 2.09  53 2.79  47 2.79
                            46 2.83  25 2.87  24 2.88  15 3.01   3 3.01   9 3.01  17 3.01
  28  0.002  0.508  0.989-  58 1.99 106 2.01  94 2.08  59 2.21 107 2.21  71 2.27   9 2.99   3 3.03

  29  0.888  0.828  0.222-  73 2.00  79 2.01  55 2.13  72 2.14  60 2.14  78 2.15  12 2.93   3 2.99
                             9 3.00  13 3.08  10 3.09
  30  0.111  0.167  0.111-  57 2.02  62 2.03  93 2.04  80 2.04  63 2.16  56 2.17   5 3.06   1 3.07
                             2 3.09  13 3.09   4 3.11
  31  0.341  0.513  0.986-  64 1.98 100 1.99  94 2.00  95 2.09  65 2.28  24 2.84   3 2.95   6 2.95

  32  0.226  0.834  0.226-  85 1.99  79 2.07  60 2.10  66 2.12  84 2.20  61 2.21  15 2.99   6 3.05
                             4 3.09  13 3.10   3 3.10
  33  0.439  0.161  0.120-  86 2.02  99 2.09  69 2.09  62 2.09  63 2.10  68 2.23   7 3.07   4 3.07

  34  0.676  0.507  0.989-  70 1.99 106 2.02 100 2.07  65 2.20 101 2.21  71 2.26   9 3.00   6 3.03

  35  0.548  0.835  0.226-  85 2.00  73 2.07  72 2.10  66 2.11  90 2.20  67 2.22  17 2.99   6 3.06
                             7 3.09
  36  0.784  0.172  0.101- 105 2.02  57 2.07  68 2.10  56 2.11  74 2.12  69 2.23   8 3.07   2 3.07
                             1 3.10
  37  0.665  0.504  0.335-  70 2.02  58 2.03  77 2.03  89 2.04  76 2.14  71 2.21   9 2.95  12 3.01
                            17 3.01  11 3.08   2 3.10
  38  0.553  0.822  0.567-  73 1.98  97 2.02  91 2.04  96 2.05  78 2.13  12 2.96  17 2.98
  39  0.780  0.167  0.443-  80 2.03  74 2.09  57 2.10  81 2.11  75 2.12  98 2.15   2 3.03  13 3.04
                            10 3.04  14 3.05
  40  0.998  0.505  0.336-  58 2.02  64 2.02  77 2.08  83 2.10  82 2.10  59 2.23   3 2.94  12 2.98
                            15 2.99  14 3.06   2 3.09
  41  0.880  0.822  0.567-  79 1.98  97 2.02 103 2.04 102 2.06  78 2.13  12 2.96  15 2.98
  42  0.119  0.161  0.440-  86 2.00  80 2.07  81 2.08  87 2.09  63 2.15 104 2.23  13 3.06  22 3.08
                             5 3.08
  43  0.333  0.505  0.336-  70 2.01  64 2.02  89 2.08  83 2.11  88 2.11  65 2.23   6 2.94  15 2.99
                            17 2.99  16 3.06   8 3.09
  44  0.219  0.826  0.561-  85 1.96  91 2.06 103 2.07 108 2.10  84 2.27  90 2.28  17 2.99  15 3.00

  45  0.437  0.159  0.439-  86 2.01  87 2.06  75 2.07  69 2.11  74 2.22  92 2.27  10 3.04  18 3.06

  46  0.332  0.517  0.676-  76 2.04  94 2.05  88 2.06  95 2.09  89 2.26  24 2.81  27 2.83  17 2.99

  47  0.233  0.813  0.871-  91 1.98  61 2.03  55 2.06  96 2.15 108 2.22  24 2.76  27 2.79   3 2.98

  48  0.442  0.166  0.780-  93 2.04  99 2.09  62 2.11  92 2.11  98 2.11  75 2.16   4 3.04  19 3.04
                            21 3.05  18 3.05  20 3.10
  49  0.659  0.517  0.676-  76 2.04 100 2.05  82 2.07  95 2.09  77 2.25  24 2.81  25 2.83  12 2.98

  50  0.564  0.815  0.873-  97 2.02  67 2.06  61 2.07  96 2.11 102 2.12  24 2.81  25 2.82   6 2.99

  51  0.784  0.175  0.785- 105 2.03  98 2.05 104 2.06  68 2.10  99 2.21  81 2.28  21 3.04  14 3.06

  52  0.993  0.514  0.681- 106 2.03  82 2.08  88 2.09 107 2.26  83 2.27 101 2.28  25 2.84  15 3.04

  53  0.895  0.813  0.872- 103 1.98  67 2.04  55 2.05 102 2.16 108 2.23  25 2.78  27 2.79   9 2.98

  54  0.103  0.173  0.782- 105 2.02  92 2.07 104 2.08  93 2.09  56 2.15  87 2.21  19 3.08  16 3.08
                             1 3.10
  55  0.999  0.744  0.002-  53 2.05  47 2.06  27 2.09   3 2.10   9 2.10  29 2.13
  56  0.001  0.259  0.003-  26 2.07   2 2.10  19 2.11  36 2.11  54 2.15  30 2.17
  57  0.892  0.091  0.214-  30 2.02  36 2.07  39 2.10  10 2.15  13 2.16   1 2.16
  58  0.894  0.574  0.213-  28 1.99  40 2.02  37 2.03   9 2.12   3 2.12  12 2.20
  59  0.111  0.416  0.106-  19 2.09   2 2.10   5 2.17  28 2.21  40 2.23
  60  0.110  0.916  0.117-  13 2.10  32 2.10   4 2.12  29 2.14   1 2.17
  61  0.332  0.744  0.002-  47 2.03  50 2.07  24 2.08   6 2.09   3 2.09  32 2.21
  62  0.330  0.244  0.007-  30 2.03  33 2.09  48 2.11  21 2.15  19 2.16   5 2.16
  63  0.222  0.074  0.218-  23 2.06  13 2.10  33 2.10   4 2.11  42 2.15  30 2.16
  64  0.227  0.574  0.214-  31 1.98  43 2.02  40 2.02   3 2.12   6 2.12  15 2.20
  65  0.450  0.416  0.106-  21 2.09   8 2.10   5 2.16  34 2.20  43 2.23  31 2.28
  66  0.447  0.920  0.106-   4 2.09   7 2.09  23 2.10  35 2.11  32 2.12
  67  0.666  0.743  0.002-  53 2.04  50 2.06  25 2.09   6 2.09   9 2.09  35 2.22
  68  0.661  0.257  0.005-  36 2.10  51 2.10   8 2.10  26 2.11  21 2.12  33 2.23
  69  0.561  0.077  0.217-  23 2.09  33 2.09  10 2.11  45 2.11   7 2.12  36 2.23
  70  0.560  0.574  0.213-  34 1.99  43 2.01  37 2.02   9 2.12   6 2.12  17 2.20
  71  0.775  0.410  0.116-  26 2.07   2 2.08   8 2.09  37 2.21  34 2.26  28 2.27
  72  0.772  0.916  0.118-  35 2.10  10 2.10   7 2.12  29 2.14   1 2.16
  73  0.662  0.759  0.340-  38 1.98  29 2.00  35 2.07  17 2.11  12 2.13   9 2.20
  74  0.667  0.249  0.332-  39 2.09   8 2.11   2 2.12  36 2.12  11 2.19  45 2.22
  75  0.554  0.084  0.551-  45 2.07  10 2.11  39 2.12  18 2.15  48 2.16  20 2.18
  76  0.557  0.591  0.552-  49 2.04  46 2.04  24 2.07  12 2.08  17 2.09  37 2.14
  77  0.774  0.426  0.446-  37 2.03  40 2.08  11 2.14  14 2.15   2 2.16  49 2.25
  78  0.773  0.909  0.453-  41 2.13  38 2.13  13 2.14  20 2.14  10 2.14  29 2.15
  79  0.997  0.759  0.341-  41 1.98  29 2.01  32 2.07  15 2.11  12 2.13   3 2.19
  80  0.004  0.241  0.332-  39 2.03  30 2.04  42 2.07   5 2.14   2 2.17  14 2.18
  81  0.893  0.083  0.552-  42 2.08  13 2.10  39 2.11  22 2.13  20 2.17  51 2.28
  82  0.891  0.590  0.553-  49 2.07  25 2.08  52 2.08  12 2.10  15 2.10  40 2.10
  83  0.110  0.422  0.447-  40 2.10  43 2.11  16 2.11  14 2.12   5 2.18  52 2.27
  84  0.107  0.925  0.449-  23 2.05  13 2.08  22 2.09  32 2.20  44 2.27
  85  0.330  0.761  0.340-  44 1.96  32 1.99  35 2.00  17 2.12  15 2.13   6 2.20
  86  0.332  0.239  0.332-  42 2.00  45 2.01  33 2.02   5 2.15   8 2.17  16 2.19
  87  0.218  0.079  0.563-  45 2.06  42 2.09  22 2.10  18 2.11  23 2.15  54 2.21
  88  0.224  0.590  0.553-  46 2.06  27 2.07  52 2.09  15 2.10  17 2.10  43 2.11
  89  0.447  0.425  0.446-  37 2.04  43 2.08  11 2.14  16 2.14   8 2.16  46 2.26
  90  0.444  0.925  0.448-  23 2.03  10 2.09  18 2.09  35 2.20  44 2.28
  91  0.338  0.742  0.656-  47 1.98  38 2.04  44 2.06  17 2.06  27 2.07  24 2.07
  92  0.328  0.250  0.672-  54 2.07  19 2.10  48 2.11  16 2.14  11 2.17  45 2.27
  93  0.218  0.091  0.891-  30 2.04  48 2.04  54 2.09   1 2.14  18 2.17   4 2.17
  94  0.217  0.592  0.898-  31 2.00  46 2.05  27 2.05  24 2.06   3 2.07  28 2.08
  95  0.448  0.429  0.771-  31 2.09  49 2.09  46 2.09  19 2.15  11 2.16  21 2.16
  96  0.448  0.905  0.777-  38 2.05  50 2.11  20 2.15  47 2.15   4 2.16  18 2.16
  97  0.672  0.740  0.657-  50 2.02  41 2.02  38 2.02  24 2.05  25 2.05  12 2.06
  98  0.668  0.248  0.672-  51 2.05  48 2.11  21 2.11  39 2.15  14 2.15  11 2.17
  99  0.554  0.085  0.892-  48 2.09  33 2.09   7 2.12   4 2.12  20 2.18  51 2.21
 100  0.552  0.592  0.898-  31 1.99  49 2.05  25 2.05  24 2.06   6 2.07  34 2.07
 101  0.777  0.411  0.775-  26 2.04  21 2.08  14 2.11  34 2.21  52 2.28
 102  0.776  0.906  0.777-  41 2.06  50 2.12  20 2.15  53 2.16  22 2.16   7 2.16
 103  0.006  0.741  0.656-  53 1.98  41 2.04  27 2.06  15 2.06  44 2.07  25 2.07
 104  0.003  0.255  0.661-  51 2.06  54 2.08  16 2.10  14 2.10  26 2.15  42 2.23
 105  0.890  0.093  0.891-  54 2.02  36 2.02  51 2.03   1 2.15   7 2.17  22 2.18
 106  0.884  0.590  0.898-  28 2.01  34 2.02  52 2.03  25 2.06  27 2.07   9 2.08
 107  0.116  0.412  0.774-  26 2.06  19 2.08  16 2.11  28 2.21  52 2.26
 108  0.112  0.911  0.776-  44 2.10  22 2.11  18 2.12   1 2.18  47 2.22  53 2.23
 
  LATTYP: Found a triclinic cell.
 ALAT       =     8.7377155577
 B/A-ratio  =     1.0007055864
 C/A-ratio  =     1.7651777288
 COS(alpha) =     0.0028064148
 COS(beta)  =     0.0043168337
 COS(gamma) =     0.5128852072
  
  Lattice vectors:
  
 A1 = (  -4.3105742889,  -0.0175059764,  -7.6004155154)
 A2 = (   4.3168601713,  -0.0108893841,  -7.6039496720)
 A3 = (  -0.0117483320, -15.4235781647,  -0.0343561197)


Analysis of symmetry for initial positions (statically):
=====================================================================
 Subroutine PRICEL returns:
 Original cell was already a primitive cell.
 

 Routine SETGRP: Setting up the symmetry group for a 
 triclinic supercell.


 Subroutine GETGRP returns: Found  1 space group operations
 (whereof  1 operations were pure point group operations)
 out of a pool of  2 trial point group operations.


The static configuration has the point symmetry C_1 .


Analysis of symmetry for dynamics (positions and initial velocities):
=====================================================================
 Subroutine PRICEL returns:
 Original cell was already a primitive cell.
 

 Routine SETGRP: Setting up the symmetry group for a 
 triclinic supercell.


 Subroutine GETGRP returns: Found  1 space group operations
 (whereof  1 operations were pure point group operations)
 out of a pool of  2 trial point group operations.


The dynamic configuration has the point symmetry C_1 .


Analysis of structural, dynamic, and magnetic symmetry:
=====================================================================
 Subroutine PRICEL returns:
 Original cell was already a primitive cell.
 

 Routine SETGRP: Setting up the symmetry group for a 
 triclinic supercell.


 Subroutine GETGRP returns: Found  1 space group operations
 (whereof  1 operations were pure point group operations)
 out of a pool of  2 trial point group operations.


The magnetic configuration has the point symmetry C_1 .


 Subroutine INISYM returns: Found  1 space group operations
 (whereof  1 operations are pure point group operations),
 and found     1 'primitive' translations

 
 
 KPOINTS: Automatic mesh                          

Automatic generation of k-mesh.
Space group operators:
 irot       det(A)        alpha          n_x          n_y          n_z        tau_x        tau_y        tau_z
    1     1.000000     0.000000     1.000000     0.000000     0.000000     0.000000     0.000000     0.000000
 
 Subroutine IBZKPT returns following result:
 ===========================================
 
 Found      1 irreducible k-points:
 
 Following reciprocal coordinates:
            Coordinates               Weight
  0.000000  0.000000  0.000000      1.000000
 
 Following cartesian coordinates:
            Coordinates               Weight
  0.000000  0.000000  0.000000      1.000000
 


--------------------------------------------------------------------------------------------------------




 Dimension of arrays:
   k-points           NKPTS =      1   k-points in BZ     NKDIM =      1   number of bands    NBANDS=    432
   number of dos      NEDOS =    301   number of ions     NIONS =    108
   non local maximal  LDIM  =      6   non local SUM 2l+1 LMDIM =     18
   total plane-waves  NPLWV = 458752
   max r-space proj   IRMAX =   7994   max aug-charges    IRDMAX=  25674
   dimension x,y,z NGX =    64 NGY =  112 NGZ =   64
   dimension x,y,z NGXF=   128 NGYF=  224 NGZF=  128
   support grid    NGXF=   128 NGYF=  224 NGZF=  128
   ions per type =              22   5  27  54
   NGX,Y,Z   is equivalent  to a cutoff of  12.33, 12.07, 12.18 a.u.
   NGXF,Y,Z  is equivalent  to a cutoff of  24.66, 24.14, 24.35 a.u.

 SYSTEM =  unknown system                          
 POSCAR =  ce868_1                                 

 Startparameter for this run:
   NWRITE =      1    write-flag & timer
   PREC   = accura    normal or accurate (medium, high low for compatibility)
   ISTART =      0    job   : 0-new  1-cont  2-samecut
   ICHARG =      2    charge: 1-file 2-atom 10-const
   ISPIN  =      2    spin polarized calculation?
   LNONCOLLINEAR =      F non collinear calculations
   LSORBIT =      F    spin-orbit coupling
   INIWAV =      1    electr: 0-lowe 1-rand  2-diag
   LASPH  =      F    aspherical Exc in radial PAW
   METAGGA=      F    non-selfconsistent MetaGGA calc.

 Electronic Relaxation 1
   ENCUT  =  500.0 eV  36.75 Ry    6.06 a.u.  15.73 28.12 15.93*2*pi/ulx,y,z
   ENINI  =  500.0     initial cutoff
   ENAUG  =  628.9 eV  augmentation charge cutoff
   NELM   =     80;   NELMIN=  2; NELMDL= -5     # of ELM steps 
   EDIFF  = 0.1E-04   stopping-criterion for ELM
   LREAL  =      T    real-space projection
   NLSPLINE    = F    spline interpolate recip. space projectors
   LCOMPAT=      F    compatible to vasp.4.4
   GGA_COMPAT  = T    GGA compatible to vasp.4.4-vasp.4.6
   LMAXPAW     = -100 max onsite density
   LMAXMIX     =    2 max onsite mixed and CHGCAR
   VOSKOWN=      1    Vosko Wilk Nusair interpolation
   ROPT   =   -0.00025  -0.00025  -0.00025  -0.00025
 Ionic relaxation
   EDIFFG = -.2E-01   stopping-criterion for IOM
   NSW    =     20    number of steps for IOM
   NBLOCK =      1;   KBLOCK =     20    inner block; outer block 
   IBRION =      1    ionic relax: 0-MD 1-quasi-New 2-CG
   NFREE  =      0    steps in history (QN), initial steepest desc. (CG)
   ISIF   =      3    stress and relaxation
   IWAVPR =     11    prediction:  0-non 1-charg 2-wave 3-comb
   ISYM   =      2    0-nonsym 1-usesym 2-fastsym
   LCORR  =      T    Harris-Foulkes like correction to forces

   POTIM  = 0.5000    time-step for ionic-motion
   TEIN   =    0.0    initial temperature
   TEBEG  =    0.0;   TEEND  =   0.0 temperature during run
   SMASS  =  -3.00    Nose mass-parameter (am)
   estimated Nose-frequenzy (Omega)   =  0.10E-29 period in steps =****** mass=  -0.170E-26a.u.
   SCALEE = 1.0000    scale energy and forces
   NPACO  =    256;   APACO  = 16.0  distance and # of slots for P.C.
   PSTRESS=    0.0 pullay stress

  Mass of Ions in am
   POMASS = 180.95 58.69  7.01 16.00
  Ionic Valenz
   ZVAL   =  11.00 10.00  3.00  6.00
  Atomic Wigner-Seitz radii
   RWIGS  =   1.34  1.15  1.23  0.73
  virtual crystal weights 
   VCA    =   1.00  1.00  1.00  1.00
   NELECT =     697.0000    total number of electrons
   NUPDOWN=      -1.0000    fix difference up-down

 DOS related values:
   EMIN   =  10.00;   EMAX   =-10.00  energy-range for DOS
   EFERMI =   0.00
   ISMEAR =     0;   SIGMA  =   0.05  broadening in eV -4-tet -1-fermi 0-gaus

 Electronic relaxation 2 (details)
   IALGO  =     38    algorithm
   LDIAG  =      T    sub-space diagonalisation (order eigenvalues)
   LSUBROT=      F    optimize rotation matrix (better conditioning)
   TURBO    =      0    0=normal 1=particle mesh
   IRESTART =      0    0=no restart 2=restart with 2 vectors
   NREBOOT  =      0    no. of reboots
   NMIN     =      0    reboot dimension
   EREF     =   0.00    reference energy to select bands
   IMIX   =      4    mixing-type and parameters
     AMIX     =   0.40;   BMIX     =  1.00
     AMIX_MAG =   1.60;   BMIX_MAG =  1.00
     AMIN     =   0.10
     WC   =   100.;   INIMIX=   1;  MIXPRE=   1;  MAXMIX= -45

 Intra band minimization:
   WEIMIN = 0.0010     energy-eigenvalue tresh-hold
   EBREAK =  0.58E-08  absolut break condition
   DEPER  =   0.30     relativ break condition  

   TIME   =   0.40     timestep for ELM

  volume/ion in A,a.u.               =       9.37        63.21
  Fermi-wavevector in a.u.,A,eV,Ry     =   1.445944  2.732438 28.446431  2.090754
  Thomas-Fermi vector in A             =   2.564068
 
 Write flags
   LWAVE        =      F    write WAVECAR
   LDOWNSAMPLE  =      F    k-point downsampling of WAVECAR
   LCHARG       =      T    write CHGCAR
   LVTOT        =      F    write LOCPOT, total local potential
   LVHAR        =      F    write LOCPOT, Hartree potential only
   LELF         =      F    write electronic localiz. function (ELF)
   LORBIT       =      0    0 simple, 1 ext, 2 COOP (PROOUT), +10 PAW based schemes


 Dipole corrections
   LMONO  =      F    monopole corrections only (constant potential shift)
   LDIPOL =      F    correct potential (dipole corrections)
   IDIPOL =      0    1-x, 2-y, 3-z, 4-all directions 
   EPSILON=  1.0000000 bulk dielectric constant

 Exchange correlation treatment:
   GGA     =    PS    GGA type
   LEXCH   =    14    internal setting for exchange type
   VOSKOWN=      1    Vosko Wilk Nusair interpolation
   LHFCALC =     F    Hartree Fock is set to
   LHFONE  =     F    Hartree Fock one center treatment
   AEXX    =    0.0000 exact exchange contribution

 Linear response parameters
   LEPSILON=     F    determine dielectric tensor
   LRPA    =     F    only Hartree local field effects (RPA)
   LNABLA  =     F    use nabla operator in PAW spheres
   LVEL    =     F    velocity operator in full k-point grid
   LINTERFAST=   F  fast interpolation
   KINTER  =     0    interpolate to denser k-point grid
   CSHIFT  =0.1000    complex shift for real part using Kramers Kronig
   OMEGAMAX=  -1.0    maximum frequency
   DEG_THRESHOLD= 0.2000000E-02 threshold for treating states as degnerate
   RTIME   =   -0.100 relaxation time in fs
  (WPLASMAI=    0.000 imaginary part of plasma frequency in eV, 0.658/RTIME)
   DFIELD  = 0.0000000 0.0000000 0.0000000 field for delta impulse in time
 
 Orbital magnetization related:
   ORBITALMAG=     F  switch on orbital magnetization
   LCHIMAG   =     F  perturbation theory with respect to B field
   DQ        =  0.001000  dq finite difference perturbation B field
   LLRAUG    =     F  two centre corrections for induced B field



--------------------------------------------------------------------------------------------------------


 quasi-Newton-method for relaxation of ions
 charge density and potential will be updated during run
 spin polarized calculation
 Variant of blocked Davidson
 Davidson routine will perform the subspace rotation
 perform sub-space diagonalisation
    after iterative eigenvector-optimisation
 modified Broyden-mixing scheme, WC =      100.0
 initial mixing is a Kerker type mixing with AMIX =  0.4000 and BMIX =      1.0000
 Hartree-type preconditioning will be used
 using additional bands           83
 real space projection scheme for non local part
 use partial core corrections
 calculate Harris-corrections to forces 
   (improved forces if not selfconsistent)
 use gradient corrections 
 use of overlap-Matrix (Vanderbilt PP)
 Gauss-broadening in eV      SIGMA  =   0.05


--------------------------------------------------------------------------------------------------------


  energy-cutoff  :      500.00
  volume of cell :     1011.59
      direct lattice vectors                 reciprocal lattice vectors
     8.627434460  0.006616592 -0.003534157     0.115882345  0.000058129 -0.065722785
     0.011748332 15.423578165  0.034356120    -0.000049774  0.064836106 -0.000121107
     4.310574289  0.017505976  7.600415515     0.000054110 -0.000293051  0.131541741

  length of vectors
     8.627437721 15.423620903  8.737715558     0.133222393  0.064836238  0.131542078


 
 k-points in units of 2pi/SCALE and weight: Automatic mesh                          
   0.00000000  0.00000000  0.00000000       1.000
 
 k-points in reciprocal lattice and weights: Automatic mesh                          
   0.00000000  0.00000000  0.00000000       1.000
 
 position of ions in fractional coordinates (direct lattice) 
   0.00073573  0.00101546  0.99661489
   0.88796930  0.33433629  0.23309399
   0.10423783  0.66536327  0.12479603
   0.33599536  0.99775249  0.98879948
   0.21995325  0.33150132  0.22871490
   0.43764991  0.66548764  0.12489037
   0.67499880  0.99858131  0.98946470
   0.54573196  0.33352374  0.23239079
   0.77074429  0.66509073  0.12464917
   0.67603354  0.99962146  0.33432932
   0.55535912  0.33678687  0.55829822
   0.78543933  0.66805316  0.42956902
   0.98906679  0.99896471  0.33436459
   0.89184193  0.33490120  0.54529086
   0.11876301  0.66841332  0.42976505
   0.22943011  0.33478690  0.54470113
   0.45168892  0.66885865  0.42931585
   0.33014786  0.99835340  0.67825561
   0.23377230  0.33570512  0.88614133
   0.66392685  0.99662941  0.67016343
   0.54749559  0.33487713  0.88587391
   0.99157157  0.99845876  0.67865273
   0.33370999  0.99822447  0.33293116
   0.44416413  0.66641588  0.77786998
   0.77844882  0.66544804  0.77753493
   0.88886332  0.33681948  0.88881883
   0.11102357  0.66612428  0.77743033
   0.00158973  0.50758951  0.98904562
   0.88848451  0.82846092  0.22226797
   0.11148083  0.16659349  0.11072886
   0.34110203  0.51327064  0.98553595
   0.22627323  0.83445055  0.22595621
   0.43863996  0.16065451  0.11982160
   0.67566943  0.50733399  0.98944698
   0.54783261  0.83474951  0.22560128
   0.78413627  0.17216950  0.10114511
   0.66542799  0.50369086  0.33500141
   0.55269221  0.82214279  0.56743535
   0.77974065  0.16727426  0.44300401
   0.99845961  0.50499948  0.33636734
   0.88007579  0.82207053  0.56736660
   0.11931720  0.16060710  0.44042704
   0.33265971  0.50518307  0.33623467
   0.21911557  0.82593719  0.56108713
   0.43693922  0.15853451  0.43885111
   0.33159796  0.51741373  0.67606040
   0.23280559  0.81308671  0.87142080
   0.44220559  0.16645122  0.78033503
   0.65868303  0.51713300  0.67626479
   0.56357866  0.81522969  0.87293954
   0.78380761  0.17490558  0.78474144
   0.99332074  0.51426451  0.68062231
   0.89527546  0.81296490  0.87175455
   0.10292064  0.17269984  0.78214573
   0.99860135  0.74379825  0.00189988
   0.00083297  0.25918272  0.00314398
   0.89170949  0.09103301  0.21434465
   0.89353131  0.57426561  0.21305268
   0.11093898  0.41607231  0.10627433
   0.11030525  0.91589790  0.11743281
   0.33184998  0.74356739  0.00237307
   0.33034091  0.24415286  0.00738684
   0.22181062  0.07435389  0.21846430
   0.22686947  0.57413147  0.21360504
   0.45009176  0.41593269  0.10577495
   0.44706675  0.92049538  0.10647876
   0.66562176  0.74327702  0.00176020
   0.66135102  0.25660401  0.00464401
   0.56087639  0.07689321  0.21745436
   0.56015690  0.57427591  0.21337998
   0.77511801  0.41014482  0.11576854
   0.77177356  0.91591900  0.11778285
   0.66229932  0.75946038  0.34020991
   0.66749289  0.24897272  0.33205621
   0.55428407  0.08435885  0.55147677
   0.55702542  0.59132882  0.55238942
   0.77390319  0.42605820  0.44617558
   0.77334088  0.90871437  0.45317975
   0.99715864  0.75934311  0.34050283
   0.00437816  0.24050521  0.33247060
   0.89321382  0.08259365  0.55159367
   0.89106387  0.58963091  0.55253804
   0.10954513  0.42232361  0.44746458
   0.10697002  0.92457600  0.44880318
   0.32954007  0.76058841  0.34018586
   0.33182621  0.23906900  0.33241826
   0.21756634  0.07875797  0.56345957
   0.22378140  0.59011296  0.55315633
   0.44666250  0.42504815  0.44588915
   0.44418240  0.92507221  0.44802531
   0.33788525  0.74179465  0.65587215
   0.32773185  0.25014016  0.67190432
   0.21757262  0.09144378  0.89092287
   0.21673710  0.59185079  0.89810068
   0.44769909  0.42874073  0.77146283
   0.44753833  0.90527755  0.77671149
   0.67170236  0.73954535  0.65730695
   0.66809486  0.24824841  0.67172250
   0.55363131  0.08548020  0.89226190
   0.55177013  0.59155048  0.89835150
   0.77689840  0.41109822  0.77502074
   0.77568030  0.90613265  0.77688523
   0.00557688  0.74133367  0.65622474
   0.00333723  0.25484201  0.66129488
   0.88998672  0.09284414  0.89053055
   0.88435211  0.59025444  0.89837807
   0.11580475  0.41165598  0.77412602
   0.11232490  0.91129871  0.77557687
 
 position of ions in cartesian coordinates  (Angst):
   4.30234191  0.03311361  7.57471956
   8.66959379  5.16661777  1.77995945
   1.44506451 10.26515678  0.97099259
   7.17279349 15.40844656  7.54837835
   2.88741940  5.11839574  1.74894002
   4.32196350 10.26928271  0.97053556
  10.10040067 15.42348463  7.55226469
   5.71392283  5.15180859  1.77579645
   7.19466906 10.26536067  0.96751149
   7.28533031 15.42806552  2.57299566
   7.20186705  5.20790675  4.25290642
   8.63586403 10.31648709  3.28507889
   9.98614848 15.42000792  2.57213485
  10.04875909  5.18082164  4.15279111
   2.88500700 10.31763435  3.28893731
   4.33130111  5.17466549  4.15064606
   5.75537239 10.32669790  3.28436190
   5.78372921 15.41223968  5.18815722
   5.84057721  5.19483370  6.74574965
   8.62848337 15.38771640  5.12541443
   8.54604187  5.18413423  6.74257995
  11.49183197 15.41824803  5.18884154
   4.32591304 15.40422945  2.56353089
   7.19289253 10.29507364  5.93346078
  10.07545616 10.28235205  5.92969960
  11.50388670  5.21640246  6.76382285
   4.31684561 10.28836417  5.93128661
   4.28303324  7.84617121  7.53459086
   8.63317751 12.78760151  1.71465159
   1.44105573  2.57214375  0.84691486
   7.19709141  7.93597954  7.50691120
   2.93596189 12.87566602  1.74522988
   4.30272484  2.48286729  0.91466319
  10.10033876  7.84669732  7.53525028
   5.70866793 12.88239847  1.74140610
   7.20310049  2.66242869  0.77188868
   7.19090236  7.77898274  2.56110305
   7.22394686 12.69397403  4.33903677
   8.63872824  2.59288207  3.37000572
  10.07001416  7.80139379  2.57035266
  10.04813003 12.69502449  4.33735474
   2.92978166  2.48563574  3.35252466
   4.32529943  7.79981776  2.57170366
   4.31871636 12.75017899  4.29209694
   5.66322731  2.45574297  3.33935320
   5.78112699  7.99440025  5.15494436
   5.77439148 12.55750188  6.65027190
   7.18074739  2.58385982  5.93502626
   8.60390974  7.99223816  5.15533220
   8.63468628 12.59276948  6.66071958
  10.14698991  2.71659369  5.96759999
  11.50972436  7.95028622  5.18716995
  11.49124409 12.56001227  6.65046308
   4.26146729  2.67802269  5.95020210
   8.63229566 11.47867104  0.03646469
   0.02378372  3.99758549  0.03279712
   8.61818321  1.41370714  1.62908450
   8.63400888  8.86687235  1.63586055
   1.42011033  6.41991827  0.82163162
   1.46861444 14.12920847  0.92361501
   2.88197892 11.47070702  0.04240960
   2.88470446  3.76802577  0.06336372
   2.85623672  1.15209510  1.66219005
   2.88480696  8.86040207  1.64241020
   4.34397446  6.42000012  0.81663271
   4.32683798 14.20215452  0.83932747
   5.75892785 11.46842618  0.03656195
   5.72879560  3.96220919  0.04177501
   5.77718084  1.19348628  1.65340302
   5.75925398  8.86483114  1.63952672
   7.19112724  6.33305597  0.89124060
   7.17689805 14.13391670  0.92393845
   7.18936646 11.72393441  2.60948812
   7.19302914  3.85027970  2.52995988
   7.16022215  1.31443693  4.19239192
   7.19376306  9.13376200  4.21673627
   8.60507751  6.58427329  3.40302241
   8.63608861 14.02867735  3.47284120
  10.07960457 11.72434644  2.61052696
   1.47373704  3.71530010  2.53516206
  10.08479952  1.28945583  4.19202193
  10.07627859  9.10978695  4.21662696
   2.87888434  6.52229933  3.41503899
   2.86833851 14.26883472  3.44247745
   4.31841742 11.73913051  2.61052011
   4.29853115  3.69531427  2.53355766
   4.30679895  1.22603316  4.28446376
   4.32201366  9.11281758  4.22370107
   5.78058336  6.56652447  3.40196724
   5.77426898 14.27870563  3.43539060
   5.75098333 11.45484510  5.00919191
   5.72671727  3.87198712  5.11418761
   5.71855705  1.42742635  6.77375672
   5.74816808  9.14561311  6.84550606
   7.19297939  6.62918361  5.87658569
   7.21981569 13.97917732  5.93285021
   8.63712695 11.42238669  5.01883995
   8.66237086  3.84505843  5.11153781
   8.62358330  1.33769361  6.78254134
   8.63972124  9.14320242  6.84621802
  10.04825422  6.35931344  5.90185772
  10.05159800 13.99454025  5.93304038
   2.88552909 11.44554256  5.01303033
   2.88234641  3.94217435  5.03485945
  11.51809095  1.45346714  6.76844662
  11.50914978  9.12541388  6.84520004
   4.34086188  6.36352625  5.89741304
   4.32296367 14.06980732  5.92561819
 


--------------------------------------------------------------------------------------------------------


 use serial FFT for orbitals x direction half grid
 k-point  1 :   0.0000 0.0000 0.0000  plane waves:   12842

 maximum and minimum number of plane-waves per node :     12842    12842

 maximum number of plane-waves:     12842
 maximum index in each direction: 
   IXMAX=   15   IYMAX=   28   IZMAX=   15
   IXMIN=    0   IYMIN=  -28   IZMIN=  -13

 The following grids will avoid any aliasing or wrap around errors in the Hartre
 e energy
  - symmetry arguments have not been applied
  - exchange correlation energies might require even more grid points
  - we recommend to set PREC=Normal or Accurate and rely on VASP defaults
 NGX is ok and might be reduce to    64
 WARNING: aliasing errors must be expected set NGY to   120 to avoid them
 NGZ is ok and might be reduce to    60

 serial   3D FFT for wavefunctions
 parallel 3D FFT for charge:
    minimum data exchange during FFTs selected (reduces bandwidth)


 total amount of memory used by VASP MPI-rank0   155849. kBytes
=======================================================================

   base      :      30000. kBytes
   nonlr-proj:      43676. kBytes
   fftplans  :       9702. kBytes
   grid      :      59236. kBytes
   one-center:       1679. kBytes
   wavefun   :      11556. kBytes
 
     INWAV:  cpu time    0.0000: real time    0.0000
 Broyden mixing: mesh for mixing (old mesh)
   NGX = 31   NGY = 57   NGZ = 31
  (NGX  =128   NGY  =224   NGZ  =128)
  gives a total of  54777 points

 initial charge density was supplied:
 charge density of overlapping atoms calculated
 number of electron     697.0000000 magnetization      12.5000000
 keeping initial charge density in first step


--------------------------------------------------------------------------------------------------------


 Maximum index for non-local projection operator         7726
 Maximum index for augmentation-charges         1591 (set IRDMAX)


--------------------------------------------------------------------------------------------------------


 First call to EWALD:  gamma=   0.177
 Maximum number of real-space cells 4x 2x 3
 Maximum number of reciprocal cells 2x 4x 2

    FEWALD:  cpu time    0.0055: real time    0.0056


--------------------------------------- Iteration      1(   1)  ---------------------------------------


    POTLOK:  cpu time    0.3132: real time    0.3576
    SETDIJ:  cpu time    0.0421: real time    0.0423
     EDDAV:  cpu time    6.2952: real time    6.3101
    --------------------------------------------
      LOOP:  cpu time    6.6511: real time    6.7104

 eigenvalue-minimisations  :  1760
 total energy-change (2. order) : 0.1091308E+05  (-0.3797618E+05)
 number of electron     697.0000000 magnetization      12.5000000
 augmentation part      697.0000000 magnetization      12.5000000

 Free energy of the ion-electron system (eV)
  ---------------------------------------------------
  alpha Z        PSCENC =      4339.30562441
  Ewald energy   TEWEN  =    -45739.48624501
  -Hartree energ DENC   =    -11769.70340083
  -exchange      EXHF   =         0.00000000
  -V(xc)+E(xc)   XCENC  =      2575.95832902
  PAW double counting   =     43705.32444516   -44171.67351699
  entropy T*S    EENTRO =        -0.00079638
  eigenvalues    EBANDS =      4852.24435939
  atomic energy  EATOM  =     57121.10803460
  Solvation  Ediel_sol  =         0.00000000
  ---------------------------------------------------
  free energy    TOTEN  =     10913.07683337 eV

  energy without entropy =    10913.07762975  energy(sigma->0) =    10913.07723156


--------------------------------------------------------------------------------------------------------




--------------------------------------- Iteration      1(   2)  ---------------------------------------


     EDDAV:  cpu time    6.6739: real time    6.6897
    --------------------------------------------
      LOOP:  cpu time    6.6738: real time    6.6896

 eigenvalue-minimisations  :  1888
 total energy-change (2. order) :-0.1006249E+05  (-0.9436604E+04)
 number of electron     697.0000000 magnetization      12.5000000
 augmentation part      697.0000000 magnetization      12.5000000

 Free energy of the ion-electron system (eV)
  ---------------------------------------------------
  alpha Z        PSCENC =      4339.30562441
  Ewald energy   TEWEN  =    -45739.48624501
  -Hartree energ DENC   =    -11769.70340083
  -exchange      EXHF   =         0.00000000
  -V(xc)+E(xc)   XCENC  =      2575.95832902
  PAW double counting   =     43705.32444516   -44171.67351699
  entropy T*S    EENTRO =        -0.03203508
  eigenvalues    EBANDS =     -5210.21920666
  atomic energy  EATOM  =     57121.10803460
  Solvation  Ediel_sol  =         0.00000000
  ---------------------------------------------------
  free energy    TOTEN  =       850.58202861 eV

  energy without entropy =      850.61406369  energy(sigma->0) =      850.59804615


--------------------------------------------------------------------------------------------------------




--------------------------------------- Iteration      1(   3)  ---------------------------------------


     EDDAV:  cpu time    7.0112: real time    7.0277
    --------------------------------------------
      LOOP:  cpu time    7.0112: real time    7.0278

 eigenvalue-minimisations  :  2000
 total energy-change (2. order) :-0.1668991E+04  (-0.1575665E+04)
 number of electron     697.0000000 magnetization      12.5000000
 augmentation part      697.0000000 magnetization      12.5000000

 Free energy of the ion-electron system (eV)
  ---------------------------------------------------
  alpha Z        PSCENC =      4339.30562441
  Ewald energy   TEWEN  =    -45739.48624501
  -Hartree energ DENC   =    -11769.70340083
  -exchange      EXHF   =         0.00000000
  -V(xc)+E(xc)   XCENC  =      2575.95832902
  PAW double counting   =     43705.32444516   -44171.67351699
  entropy T*S    EENTRO =        -0.03581676
  eigenvalues    EBANDS =     -6879.20682417
  atomic energy  EATOM  =     57121.10803460
  Solvation  Ediel_sol  =         0.00000000
  ---------------------------------------------------
  free energy    TOTEN  =      -818.40937057 eV

  energy without entropy =     -818.37355381  energy(sigma->0) =     -818.39146219


--------------------------------------------------------------------------------------------------------




--------------------------------------- Iteration      1(   4)  ---------------------------------------


     EDDAV:  cpu time    7.8896: real time    7.9082
    --------------------------------------------
      LOOP:  cpu time    7.8896: real time    7.9082

 eigenvalue-minimisations  :  2304
 total energy-change (2. order) :-0.1622704E+03  (-0.1588880E+03)
 number of electron     697.0000000 magnetization      12.5000000
 augmentation part      697.0000000 magnetization      12.5000000

 Free energy of the ion-electron system (eV)
  ---------------------------------------------------
  alpha Z        PSCENC =      4339.30562441
  Ewald energy   TEWEN  =    -45739.48624501
  -Hartree energ DENC   =    -11769.70340083
  -exchange      EXHF   =         0.00000000
  -V(xc)+E(xc)   XCENC  =      2575.95832902
  PAW double counting   =     43705.32444516   -44171.67351699
  entropy T*S    EENTRO =        -0.05859910
  eigenvalues    EBANDS =     -7041.45441056
  atomic energy  EATOM  =     57121.10803460
  Solvation  Ediel_sol  =         0.00000000
  ---------------------------------------------------
  free energy    TOTEN  =      -980.67973931 eV

  energy without entropy =     -980.62114021  energy(sigma->0) =     -980.65043976


--------------------------------------------------------------------------------------------------------




--------------------------------------- Iteration      1(   5)  ---------------------------------------


     EDDAV:  cpu time   10.4208: real time   10.4455
    CHARGE:  cpu time    0.4136: real time    0.4146
    MIXING:  cpu time    0.0065: real time    0.0065
    --------------------------------------------
      LOOP:  cpu time   10.8405: real time   10.8662

 eigenvalue-minimisations  :  3216
 total energy-change (2. order) :-0.1623403E+02  (-0.1611154E+02)
 number of electron     697.0000083 magnetization      13.3498259
 augmentation part      164.6419022 magnetization       9.3028370

 Broyden mixing:
  rms(total) = 0.13685E+02    rms(broyden)= 0.13684E+02
  rms(prec ) = 0.14466E+02
  weight for this iteration     100.00

 Free energy of the ion-electron system (eV)
  ---------------------------------------------------
  alpha Z        PSCENC =      4339.30562441
  Ewald energy   TEWEN  =    -45739.48624501
  -Hartree energ DENC   =    -11769.70340083
  -exchange      EXHF   =         0.00000000
  -V(xc)+E(xc)   XCENC  =      2575.95832902
  PAW double counting   =     43705.32444516   -44171.67351699
  entropy T*S    EENTRO =        -0.07952707
  eigenvalues    EBANDS =     -7057.66750979
  atomic energy  EATOM  =     57121.10803460
  Solvation  Ediel_sol  =         0.00000000
  ---------------------------------------------------
  free energy    TOTEN  =      -996.91376650 eV

  energy without entropy =     -996.83423943  energy(sigma->0) =     -996.87400297


--------------------------------------------------------------------------------------------------------




--------------------------------------- Iteration      1(   6)  ---------------------------------------


    POTLOK:  cpu time    0.2915: real time    0.2922
    SETDIJ:  cpu time    0.0441: real time    0.0442
     EDDAV:  cpu time    8.3023: real time    8.3220
    CHARGE:  cpu time    0.3496: real time    0.3504
    MIXING:  cpu time    0.0063: real time    0.0064
    --------------------------------------------
      LOOP:  cpu time    8.9937: real time    9.0152

 eigenvalue-minimisations  :  2464
 total energy-change (2. order) : 0.1436125E+02  (-0.1047331E+03)
 number of electron     697.0000070 magnetization      11.9452528
 augmentation part      174.3732821 magnetization      13.1140019

 Broyden mixing:
  rms(total) = 0.15564E+02    rms(broyden)= 0.15563E+02
  rms(prec ) = 0.16056E+02
  weight for this iteration     100.00

 eigenvalues of (default mixing * dielectric matrix)
  average eigenvalue GAMMA=   0.3539
  0.3539

 Free energy of the ion-electron system (eV)
  ---------------------------------------------------
  alpha Z        PSCENC =      4339.30562441
  Ewald energy   TEWEN  =    -45739.48624501
  -Hartree energ DENC   =    -11875.99852684
  -exchange      EXHF   =         0.00000000
  -V(xc)+E(xc)   XCENC  =      2615.94034686
  PAW double counting   =     58288.71412177   -58724.86154032
  entropy T*S    EENTRO =        -0.03285641
  eigenvalues    EBANDS =     -7007.24147483
  atomic energy  EATOM  =     57121.10803460
  Solvation  Ediel_sol  =         0.00000000
  ---------------------------------------------------
  free energy    TOTEN  =      -982.55251576 eV

  energy without entropy =     -982.51965935  energy(sigma->0) =     -982.53608756


--------------------------------------------------------------------------------------------------------




--------------------------------------- Iteration      1(   7)  ---------------------------------------


    POTLOK:  cpu time    0.2895: real time    0.2901
    SETDIJ:  cpu time    0.0445: real time    0.0446
     EDDAV:  cpu time    8.1780: real time    8.1974
    CHARGE:  cpu time    0.4047: real time    0.4056
    MIXING:  cpu time    0.0066: real time    0.0066
    --------------------------------------------
      LOOP:  cpu time    8.9232: real time    8.9443

 eigenvalue-minimisations  :  2416
 total energy-change (2. order) : 0.9100553E+02  (-0.2789724E+02)
 number of electron     697.0000069 magnetization      10.1823017
 augmentation part      169.5374070 magnetization       8.6060787

 Broyden mixing:
  rms(total) = 0.62983E+01    rms(broyden)= 0.62981E+01
  rms(prec ) = 0.66601E+01
  weight for this iteration     100.00

 eigenvalues of (default mixing * dielectric matrix)
  average eigenvalue GAMMA=   0.7488
  0.8991  0.5985

 Free energy of the ion-electron system (eV)
  ---------------------------------------------------
  alpha Z        PSCENC =      4339.30562441
  Ewald energy   TEWEN  =    -45739.48624501
  -Hartree energ DENC   =    -11954.25490060
  -exchange      EXHF   =         0.00000000
  -V(xc)+E(xc)   XCENC  =      2608.35910732
  PAW double counting   =     63303.93895485   -63818.81814888
  entropy T*S    EENTRO =        -0.04089109
  eigenvalues    EBANDS =     -6751.65851924
  atomic energy  EATOM  =     57121.10803460
  Solvation  Ediel_sol  =         0.00000000
  ---------------------------------------------------
  free energy    TOTEN  =      -891.54698364 eV

  energy without entropy =     -891.50609254  energy(sigma->0) =     -891.52653809


--------------------------------------------------------------------------------------------------------




--------------------------------------- Iteration      1(   8)  ---------------------------------------


    POTLOK:  cpu time    0.2936: real time    0.2943
    SETDIJ:  cpu time    0.0441: real time    0.0442
     EDDAV:  cpu time    7.6070: real time    7.6250
    CHARGE:  cpu time    0.4163: real time    0.4173
    MIXING:  cpu time    0.0068: real time    0.0068
    --------------------------------------------
      LOOP:  cpu time    8.3678: real time    8.3875

 eigenvalue-minimisations  :  2208
 total energy-change (2. order) :-0.9727558E+02  (-0.2979480E+02)
 number of electron     697.0000077 magnetization       9.3777988
 augmentation part      148.9203705 magnetization       7.7014598

 Broyden mixing:
  rms(total) = 0.12382E+02    rms(broyden)= 0.12382E+02
  rms(prec ) = 0.15416E+02
  weight for this iteration     100.00

 eigenvalues of (default mixing * dielectric matrix)
  average eigenvalue GAMMA=   0.6534
  1.2448  0.4227  0.2928

 Free energy of the ion-electron system (eV)
  ---------------------------------------------------
  alpha Z        PSCENC =      4339.30562441
  Ewald energy   TEWEN  =    -45739.48624501
  -Hartree energ DENC   =    -11923.14368676
  -exchange      EXHF   =         0.00000000
  -V(xc)+E(xc)   XCENC  =      2599.02455666
  PAW double counting   =     72206.32449641   -72782.95259273
  entropy T*S    EENTRO =        -0.01192698
  eigenvalues    EBANDS =     -6808.99081949
  atomic energy  EATOM  =     57121.10803460
  Solvation  Ediel_sol  =         0.00000000
  ---------------------------------------------------
  free energy    TOTEN  =      -988.82255889 eV

  energy without entropy =     -988.81063191  energy(sigma->0) =     -988.81659540


--------------------------------------------------------------------------------------------------------




--------------------------------------- Iteration      1(   9)  ---------------------------------------


    POTLOK:  cpu time    0.2915: real time    0.2922
    SETDIJ:  cpu time    0.0438: real time    0.0439
     EDDAV:  cpu time    7.7788: real time    7.7972
    CHARGE:  cpu time    0.3287: real time    0.3295
    MIXING:  cpu time    0.0060: real time    0.0060
    --------------------------------------------
      LOOP:  cpu time    8.4489: real time    8.4689

 eigenvalue-minimisations  :  2288
 total energy-change (2. order) : 0.8840334E+02  (-0.2488419E+02)
 number of electron     697.0000073 magnetization       8.5330368
 augmentation part      166.7350949 magnetization       7.9831743

 Broyden mixing:
  rms(total) = 0.74844E+01    rms(broyden)= 0.74840E+01
  rms(prec ) = 0.89530E+01
  weight for this iteration     100.00

 eigenvalues of (default mixing * dielectric matrix)
  average eigenvalue GAMMA=   0.6374
  1.5147  0.4362  0.4362  0.1626

 Free energy of the ion-electron system (eV)
  ---------------------------------------------------
  alpha Z        PSCENC =      4339.30562441
  Ewald energy   TEWEN  =    -45739.48624501
  -Hartree energ DENC   =    -11769.34545605
  -exchange      EXHF   =         0.00000000
  -V(xc)+E(xc)   XCENC  =      2591.87408228
  PAW double counting   =     75838.73857637   -76387.55617491
  entropy T*S    EENTRO =        -0.02385982
  eigenvalues    EBANDS =     -6895.03380151
  atomic energy  EATOM  =     57121.10803460
  Solvation  Ediel_sol  =         0.00000000
  ---------------------------------------------------
  free energy    TOTEN  =      -900.41921965 eV

  energy without entropy =     -900.39535982  energy(sigma->0) =     -900.40728973


--------------------------------------------------------------------------------------------------------




--------------------------------------- Iteration      1(  10)  ---------------------------------------


    POTLOK:  cpu time    0.2765: real time    0.2772
    SETDIJ:  cpu time    0.0448: real time    0.0450
     EDDAV:  cpu time    8.0514: real time    8.0704
    CHARGE:  cpu time    0.4048: real time    0.4058
    MIXING:  cpu time    0.0074: real time    0.0075
    --------------------------------------------
      LOOP:  cpu time    8.7851: real time    8.8058

 eigenvalue-minimisations  :  2368
 total energy-change (2. order) :-0.1015693E+01  (-0.1736621E+02)
 number of electron     697.0000070 magnetization       7.1362253
 augmentation part      170.9629392 magnetization       6.8129479

 Broyden mixing:
  rms(total) = 0.47389E+01    rms(broyden)= 0.47385E+01
  rms(prec ) = 0.55443E+01
  weight for this iteration     100.00

 eigenvalues of (default mixing * dielectric matrix)
  average eigenvalue GAMMA=   0.6198
  1.7518  0.4646  0.4646  0.2664  0.1517

 Free energy of the ion-electron system (eV)
  ---------------------------------------------------
  alpha Z        PSCENC =      4339.30562441
  Ewald energy   TEWEN  =    -45739.48624501
  -Hartree energ DENC   =    -11734.47300471
  -exchange      EXHF   =         0.00000000
  -V(xc)+E(xc)   XCENC  =      2590.82083244
  PAW double counting   =     78422.80889501   -78968.74920132
  entropy T*S    EENTRO =        -0.04611928
  eigenvalues    EBANDS =     -6932.72372880
  atomic energy  EATOM  =     57121.10803460
  Solvation  Ediel_sol  =         0.00000000
  ---------------------------------------------------
  free energy    TOTEN  =      -901.43491266 eV

  energy without entropy =     -901.38879337  energy(sigma->0) =     -901.41185302


--------------------------------------------------------------------------------------------------------




--------------------------------------- Iteration      1(  11)  ---------------------------------------


    POTLOK:  cpu time    0.2839: real time    0.2846
    SETDIJ:  cpu time    0.0419: real time    0.0420
     EDDAV:  cpu time    7.1818: real time    7.1988
    CHARGE:  cpu time    0.4031: real time    0.4040
    MIXING:  cpu time    0.0078: real time    0.0079
    --------------------------------------------
      LOOP:  cpu time    7.9185: real time    7.9372

 eigenvalue-minimisations  :  2048
 total energy-change (2. order) : 0.9486532E+01  (-0.1096662E+02)
 number of electron     697.0000061 magnetization       6.6702360
 augmentation part      166.7367696 magnetization       5.7066925

 Broyden mixing:
  rms(total) = 0.56068E+01    rms(broyden)= 0.56064E+01
  rms(prec ) = 0.67894E+01
  weight for this iteration     100.00

 eigenvalues of (default mixing * dielectric matrix)
  average eigenvalue GAMMA=   0.5714
  1.8580  0.4879  0.4879  0.2117  0.2117  0.1710

 Free energy of the ion-electron system (eV)
  ---------------------------------------------------
  alpha Z        PSCENC =      4339.30562441
  Ewald energy   TEWEN  =    -45739.48624501
  -Hartree energ DENC   =    -11767.86093172
  -exchange      EXHF   =         0.00000000
  -V(xc)+E(xc)   XCENC  =      2592.84672010
  PAW double counting   =     81688.67435755   -82252.01288178
  entropy T*S    EENTRO =        -0.03513428
  eigenvalues    EBANDS =     -6874.48792416
  atomic energy  EATOM  =     57121.10803460
  Solvation  Ediel_sol  =         0.00000000
  ---------------------------------------------------
  free energy    TOTEN  =      -891.94838029 eV

  energy without entropy =     -891.91324601  energy(sigma->0) =     -891.93081315


--------------------------------------------------------------------------------------------------------




--------------------------------------- Iteration      1(  12)  ---------------------------------------


    POTLOK:  cpu time    0.2903: real time    0.2910
    SETDIJ:  cpu time    0.0446: real time    0.0447
     EDDAV:  cpu time    7.9140: real time    7.9327
    CHARGE:  cpu time    0.4078: real time    0.4088
    MIXING:  cpu time    0.0081: real time    0.0081
    --------------------------------------------
      LOOP:  cpu time    8.6647: real time    8.6852

 eigenvalue-minimisations  :  2384
 total energy-change (2. order) : 0.1231046E+01  (-0.1835569E+02)
 number of electron     697.0000070 magnetization       6.1684762
 augmentation part      168.0771213 magnetization       5.0807440

 Broyden mixing:
  rms(total) = 0.40706E+01    rms(broyden)= 0.40698E+01
  rms(prec ) = 0.48359E+01
  weight for this iteration     100.00

 eigenvalues of (default mixing * dielectric matrix)
  average eigenvalue GAMMA=   0.5403
  1.9142  0.5061  0.5061  0.2912  0.2912  0.1617  0.1118

 Free energy of the ion-electron system (eV)
  ---------------------------------------------------
  alpha Z        PSCENC =      4339.30562441
  Ewald energy   TEWEN  =    -45739.48624501
  -Hartree energ DENC   =    -11763.28771515
  -exchange      EXHF   =         0.00000000
  -V(xc)+E(xc)   XCENC  =      2593.05957781
  PAW double counting   =     82788.17387625   -83351.96626228
  entropy T*S    EENTRO =        -0.02846796
  eigenvalues    EBANDS =     -6877.59575672
  atomic energy  EATOM  =     57121.10803460
  Solvation  Ediel_sol  =         0.00000000
  ---------------------------------------------------
  free energy    TOTEN  =      -890.71733405 eV

  energy without entropy =     -890.68886610  energy(sigma->0) =     -890.70310007


--------------------------------------------------------------------------------------------------------




--------------------------------------- Iteration      1(  13)  ---------------------------------------


    POTLOK:  cpu time    0.2635: real time    0.2641
    SETDIJ:  cpu time    0.0432: real time    0.0433
     EDDAV:  cpu time    7.5458: real time    7.5637
    CHARGE:  cpu time    0.3813: real time    0.3822
    MIXING:  cpu time    0.0069: real time    0.0069
    --------------------------------------------
      LOOP:  cpu time    8.2406: real time    8.2601

 eigenvalue-minimisations  :  2352
 total energy-change (2. order) :-0.6006826E+01  (-0.9294662E+01)
 number of electron     697.0000076 magnetization       5.6826518
 augmentation part      166.6611158 magnetization       4.6863006

 Broyden mixing:
  rms(total) = 0.66723E+01    rms(broyden)= 0.66718E+01
  rms(prec ) = 0.85550E+01
  weight for this iteration     100.00

 eigenvalues of (default mixing * dielectric matrix)
  average eigenvalue GAMMA=   0.5269
  1.9611  0.6264  0.6264  0.3238  0.3000  0.1639  0.1068  0.1068

 Free energy of the ion-electron system (eV)
  ---------------------------------------------------
  alpha Z        PSCENC =      4339.30562441
  Ewald energy   TEWEN  =    -45739.48624501
  -Hartree energ DENC   =    -11770.74495994
  -exchange      EXHF   =         0.00000000
  -V(xc)+E(xc)   XCENC  =      2593.54889165
  PAW double counting   =     83632.47866905   -84199.35806448
  entropy T*S    EENTRO =        -0.01883184
  eigenvalues    EBANDS =     -6873.55727862
  atomic energy  EATOM  =     57121.10803460
  Solvation  Ediel_sol  =         0.00000000
  ---------------------------------------------------
  free energy    TOTEN  =      -896.72416018 eV

  energy without entropy =     -896.70532834  energy(sigma->0) =     -896.71474426


--------------------------------------------------------------------------------------------------------




--------------------------------------- Iteration      1(  14)  ---------------------------------------


    POTLOK:  cpu time    0.2539: real time    0.2545
    SETDIJ:  cpu time    0.0443: real time    0.0444
     EDDAV:  cpu time    7.6174: real time    7.6355
    CHARGE:  cpu time    0.4051: real time    0.4060
    MIXING:  cpu time    0.0088: real time    0.0089
    --------------------------------------------
      LOOP:  cpu time    8.3296: real time    8.3493

 eigenvalue-minimisations  :  2224
 total energy-change (2. order) : 0.1324353E+02  (-0.9890208E+01)
 number of electron     697.0000069 magnetization       5.4272951
 augmentation part      169.4636341 magnetization       4.1849657

 Broyden mixing:
  rms(total) = 0.31984E+01    rms(broyden)= 0.31979E+01
  rms(prec ) = 0.40264E+01
  weight for this iteration     100.00

 eigenvalues of (default mixing * dielectric matrix)
  average eigenvalue GAMMA=   0.5347
  2.0029  0.7062  0.7062  0.4100  0.4100  0.1877  0.1877  0.1006  0.1006

 Free energy of the ion-electron system (eV)
  ---------------------------------------------------
  alpha Z        PSCENC =      4339.30562441
  Ewald energy   TEWEN  =    -45739.48624501
  -Hartree energ DENC   =    -11776.14426705
  -exchange      EXHF   =         0.00000000
  -V(xc)+E(xc)   XCENC  =      2593.94978499
  PAW double counting   =     84314.29146663   -84881.69600835
  entropy T*S    EENTRO =        -0.02314054
  eigenvalues    EBANDS =     -6854.78587651
  atomic energy  EATOM  =     57121.10803460
  Solvation  Ediel_sol  =         0.00000000
  ---------------------------------------------------
  free energy    TOTEN  =      -883.48062683 eV

  energy without entropy =     -883.45748629  energy(sigma->0) =     -883.46905656


--------------------------------------------------------------------------------------------------------




--------------------------------------- Iteration      1(  15)  ---------------------------------------


    POTLOK:  cpu time    0.2906: real time    0.2913
    SETDIJ:  cpu time    0.0448: real time    0.0449
     EDDAV:  cpu time    7.9893: real time    8.0082
    CHARGE:  cpu time    0.4039: real time    0.4048
    MIXING:  cpu time    0.0093: real time    0.0093
    --------------------------------------------
      LOOP:  cpu time    8.7379: real time    8.7586

 eigenvalue-minimisations  :  2352
 total energy-change (2. order) :-0.1797572E+01  (-0.5938598E+01)
 number of electron     697.0000070 magnetization       4.8261528
 augmentation part      168.2256773 magnetization       4.5636773

 Broyden mixing:
  rms(total) = 0.41315E+01    rms(broyden)= 0.41310E+01
  rms(prec ) = 0.49857E+01
  weight for this iteration     100.00

 eigenvalues of (default mixing * dielectric matrix)
  average eigenvalue GAMMA=   0.5267
  2.0898  0.7122  0.7122  0.5370  0.5370  0.2154  0.1787  0.0994  0.0994  0.0856

 Free energy of the ion-electron system (eV)
  ---------------------------------------------------
  alpha Z        PSCENC =      4339.30562441
  Ewald energy   TEWEN  =    -45739.48624501
  -Hartree energ DENC   =    -11784.15517084
  -exchange      EXHF   =         0.00000000
  -V(xc)+E(xc)   XCENC  =      2594.26148566
  PAW double counting   =     84483.97479141   -85053.19891767
  entropy T*S    EENTRO =        -0.02904522
  eigenvalues    EBANDS =     -6847.05875618
  atomic energy  EATOM  =     57121.10803460
  Solvation  Ediel_sol  =         0.00000000
  ---------------------------------------------------
  free energy    TOTEN  =      -885.27819883 eV

  energy without entropy =     -885.24915361  energy(sigma->0) =     -885.26367622


--------------------------------------------------------------------------------------------------------




--------------------------------------- Iteration      1(  16)  ---------------------------------------


    POTLOK:  cpu time    0.2882: real time    0.2889
    SETDIJ:  cpu time    0.0444: real time    0.0445
     EDDAV:  cpu time    7.8674: real time    7.8861
    CHARGE:  cpu time    0.4014: real time    0.4024
    MIXING:  cpu time    0.0093: real time    0.0093
    --------------------------------------------
      LOOP:  cpu time    8.6107: real time    8.6310

 eigenvalue-minimisations  :  2320
 total energy-change (2. order) : 0.7490921E+01  (-0.4115653E+01)
 number of electron     697.0000070 magnetization       4.3025809
 augmentation part      168.1812479 magnetization       4.3193257

 Broyden mixing:
  rms(total) = 0.28603E+01    rms(broyden)= 0.28591E+01
  rms(prec ) = 0.34938E+01
  weight for this iteration     100.00

 eigenvalues of (default mixing * dielectric matrix)
  average eigenvalue GAMMA=   0.5181
  2.1461  0.6204  0.6204  0.6544  0.6544  0.2936  0.2661  0.1613  0.1030  0.1030
  0.0760

 Free energy of the ion-electron system (eV)
  ---------------------------------------------------
  alpha Z        PSCENC =      4339.30562441
  Ewald energy   TEWEN  =    -45739.48624501
  -Hartree energ DENC   =    -11795.70810135
  -exchange      EXHF   =         0.00000000
  -V(xc)+E(xc)   XCENC  =      2594.88378909
  PAW double counting   =     84962.43413176   -85533.89797981
  entropy T*S    EENTRO =        -0.01548870
  eigenvalues    EBANDS =     -6826.41104288
  atomic energy  EATOM  =     57121.10803460
  Solvation  Ediel_sol  =         0.00000000
  ---------------------------------------------------
  free energy    TOTEN  =      -877.78727789 eV

  energy without entropy =     -877.77178919  energy(sigma->0) =     -877.77953354


--------------------------------------------------------------------------------------------------------




--------------------------------------- Iteration      1(  17)  ---------------------------------------


    POTLOK:  cpu time    0.2912: real time    0.2919
    SETDIJ:  cpu time    0.0448: real time    0.0449
     EDDAV:  cpu time    8.0586: real time    8.0777
    CHARGE:  cpu time    0.4025: real time    0.4035
    MIXING:  cpu time    0.0096: real time    0.0096
    --------------------------------------------
      LOOP:  cpu time    8.8068: real time    8.8276

 eigenvalue-minimisations  :  2384
 total energy-change (2. order) : 0.1040487E+01  (-0.8144753E+00)
 number of electron     697.0000070 magnetization       4.1279483
 augmentation part      169.4135147 magnetization       4.3729652

 Broyden mixing:
  rms(total) = 0.21783E+01    rms(broyden)= 0.21776E+01
  rms(prec ) = 0.26798E+01
  weight for this iteration     100.00

 eigenvalues of (default mixing * dielectric matrix)
  average eigenvalue GAMMA=   0.4771
  2.1473  0.6217  0.6217  0.6520  0.6520  0.3044  0.2583  0.1617  0.1029  0.1029
  0.0761  0.0245

 Free energy of the ion-electron system (eV)
  ---------------------------------------------------
  alpha Z        PSCENC =      4339.30562441
  Ewald energy   TEWEN  =    -45739.48624501
  -Hartree energ DENC   =    -11795.94430192
  -exchange      EXHF   =         0.00000000
  -V(xc)+E(xc)   XCENC  =      2594.78288719
  PAW double counting   =     85210.64105924   -85780.87977112
  entropy T*S    EENTRO =        -0.04005237
  eigenvalues    EBANDS =     -6826.23402587
  atomic energy  EATOM  =     57121.10803460
  Solvation  Ediel_sol  =         0.00000000
  ---------------------------------------------------
  free energy    TOTEN  =      -876.74679085 eV

  energy without entropy =     -876.70673848  energy(sigma->0) =     -876.72676467


--------------------------------------------------------------------------------------------------------




--------------------------------------- Iteration      1(  18)  ---------------------------------------


    POTLOK:  cpu time    0.2912: real time    0.2919
    SETDIJ:  cpu time    0.0441: real time    0.0443
     EDDAV:  cpu time    8.2778: real time    8.2974
    CHARGE:  cpu time    0.4053: real time    0.4062
    MIXING:  cpu time    0.0103: real time    0.0103
    --------------------------------------------
      LOOP:  cpu time    9.0287: real time    9.0501

 eigenvalue-minimisations  :  2464
 total energy-change (2. order) : 0.7381261E+00  (-0.1574963E+00)
 number of electron     697.0000070 magnetization       4.1569365
 augmentation part      168.8296317 magnetization       4.8330080

 Broyden mixing:
  rms(total) = 0.21456E+01    rms(broyden)= 0.21455E+01
  rms(prec ) = 0.26043E+01
  weight for this iteration     100.00

 eigenvalues of (default mixing * dielectric matrix)
  average eigenvalue GAMMA=   0.4538
  2.1450  0.6273  0.6273  0.6549  0.6549  0.2943  0.2693  0.1078  0.1608  0.1036
  0.1036  0.0767  0.0732

 Free energy of the ion-electron system (eV)
  ---------------------------------------------------
  alpha Z        PSCENC =      4339.30562441
  Ewald energy   TEWEN  =    -45739.48624501
  -Hartree energ DENC   =    -11798.63526677
  -exchange      EXHF   =         0.00000000
  -V(xc)+E(xc)   XCENC  =      2594.89542748
  PAW double counting   =     85218.02165089   -85787.73287352
  entropy T*S    EENTRO =        -0.03084786
  eigenvalues    EBANDS =     -6823.45416893
  atomic energy  EATOM  =     57121.10803460
  Solvation  Ediel_sol  =         0.00000000
  ---------------------------------------------------
  free energy    TOTEN  =      -876.00866471 eV

  energy without entropy =     -875.97781685  energy(sigma->0) =     -875.99324078


--------------------------------------------------------------------------------------------------------




--------------------------------------- Iteration      1(  19)  ---------------------------------------


    POTLOK:  cpu time    0.2916: real time    0.2923
    SETDIJ:  cpu time    0.0438: real time    0.0439
     EDDAV:  cpu time    8.4318: real time    8.4518
    CHARGE:  cpu time    0.4078: real time    0.4087
    MIXING:  cpu time    0.0102: real time    0.0102
    --------------------------------------------
      LOOP:  cpu time    9.1851: real time    9.2069

 eigenvalue-minimisations  :  2512
 total energy-change (2. order) : 0.1085169E+00  (-0.7404778E-02)
 number of electron     697.0000070 magnetization       3.6701048
 augmentation part      168.8417662 magnetization       4.3707247

 Broyden mixing:
  rms(total) = 0.21675E+01    rms(broyden)= 0.21674E+01
  rms(prec ) = 0.26178E+01
  weight for this iteration     100.00

 eigenvalues of (default mixing * dielectric matrix)
  average eigenvalue GAMMA=   0.5020
  2.1519  0.6560  0.6560  0.6087  0.6087  0.5362  0.5362  0.3112  0.3112  0.2029
  0.1675  0.1028  0.1028  0.0761

 Free energy of the ion-electron system (eV)
  ---------------------------------------------------
  alpha Z        PSCENC =      4339.30562441
  Ewald energy   TEWEN  =    -45739.48624501
  -Hartree energ DENC   =    -11798.86023157
  -exchange      EXHF   =         0.00000000
  -V(xc)+E(xc)   XCENC  =      2594.88502552
  PAW double counting   =     85211.67223230   -85781.51261830
  entropy T*S    EENTRO =        -0.02703274
  eigenvalues    EBANDS =     -6822.98493698
  atomic energy  EATOM  =     57121.10803460
  Solvation  Ediel_sol  =         0.00000000
  ---------------------------------------------------
  free energy    TOTEN  =      -875.90014776 eV

  energy without entropy =     -875.87311503  energy(sigma->0) =     -875.88663140


--------------------------------------------------------------------------------------------------------




--------------------------------------- Iteration      1(  20)  ---------------------------------------


    POTLOK:  cpu time    0.2913: real time    0.2920
    SETDIJ:  cpu time    0.0446: real time    0.0447
     EDDAV:  cpu time    8.7439: real time    8.7647
    CHARGE:  cpu time    0.3474: real time    0.3482
    MIXING:  cpu time    0.0102: real time    0.0102
    --------------------------------------------
      LOOP:  cpu time    9.4374: real time    9.4599

 eigenvalue-minimisations  :  2624
 total energy-change (2. order) : 0.9348328E-01  (-0.9372508E-01)
 number of electron     697.0000070 magnetization       2.6048006
 augmentation part      168.9932847 magnetization       2.8914659

 Broyden mixing:
  rms(total) = 0.21310E+01    rms(broyden)= 0.21310E+01
  rms(prec ) = 0.26269E+01
  weight for this iteration     100.00

 eigenvalues of (default mixing * dielectric matrix)
  average eigenvalue GAMMA=   0.5196
  2.1689  0.7689  0.7689  0.6765  0.6765  0.6143  0.6143  0.3124  0.2585  0.2585
  0.2288  0.1661  0.1028  0.1028  0.0761

 Free energy of the ion-electron system (eV)
  ---------------------------------------------------
  alpha Z        PSCENC =      4339.30562441
  Ewald energy   TEWEN  =    -45739.48624501
  -Hartree energ DENC   =    -11798.53916527
  -exchange      EXHF   =         0.00000000
  -V(xc)+E(xc)   XCENC  =      2594.84930145
  PAW double counting   =     85253.06359262   -85822.20655510
  entropy T*S    EENTRO =        -0.03481754
  eigenvalues    EBANDS =     -6823.86643464
  atomic energy  EATOM  =     57121.10803460
  Solvation  Ediel_sol  =         0.00000000
  ---------------------------------------------------
  free energy    TOTEN  =      -875.80666449 eV

  energy without entropy =     -875.77184694  energy(sigma->0) =     -875.78925572


--------------------------------------------------------------------------------------------------------




--------------------------------------- Iteration      1(  21)  ---------------------------------------


    POTLOK:  cpu time    0.2913: real time    0.2920
    SETDIJ:  cpu time    0.0448: real time    0.0449
     EDDAV:  cpu time    8.1009: real time    8.1201
[...]
      8.62796     15.43967      5.13094        -0.002776      0.001222     -0.000351
      8.54689      5.20785      6.74269         0.002554      0.001810     -0.003075
     11.49232     15.47031      5.19767         0.000275      0.000116      0.007948
      4.32591     15.45671      2.56973        -0.003416     -0.002490      0.003824
      7.18461     10.33074      5.93322        -0.001971     -0.003542     -0.008605
     10.08530     10.31887      5.92951         0.003067     -0.004145     -0.008835
     11.50477      5.24687      6.77224         0.003710      0.012266      0.009403
      4.31645     10.32393      5.93050        -0.000446     -0.003152     -0.008352
      4.28744      7.87626      7.54074         0.005994      0.001908      0.001328
      8.63192     12.83490      1.71277        -0.002753      0.000753     -0.008604
      1.44141      2.58231      0.84800        -0.000156      0.001694      0.003030
      7.19815      7.96615      7.51303         0.002278      0.000961     -0.000657
      2.93605     12.92451      1.75562        -0.002855      0.004611      0.010133
      4.29784      2.49265      0.91816        -0.006451      0.000111      0.006066
     10.09809      7.87809      7.54095        -0.001019      0.003607     -0.001149
      5.70923     12.93228      1.75257        -0.000682      0.006224      0.012068
      7.20759      2.67405      0.77149         0.006950      0.003047      0.000692
      7.19222      7.80495      2.55773         0.001035     -0.003783     -0.007574
      7.22621     12.73809      4.33304         0.001296     -0.001452     -0.011970
      8.64027      2.60782      3.37927         0.004271      0.006004      0.014041
     10.07203      7.83131      2.57299         0.004458      0.002574      0.001516
     10.04507     12.73990      4.33161        -0.004745     -0.001463     -0.011962
      2.92738      2.49663      3.35479        -0.004457      0.000969      0.003893
      4.32430      7.82900      2.57281        -0.000859      0.002614     -0.000986
      4.31873     12.79138      4.29178        -0.001843     -0.005881     -0.004588
      5.65582      2.46227      3.34235        -0.010641     -0.007237      0.004097
      5.78186      8.02551      5.15866         0.001502      0.002402     -0.000142
      5.77420     12.60130      6.64859        -0.003048     -0.006025     -0.014907
      7.17910      2.59294      5.93847        -0.001884     -0.002721      0.001538
      8.60320      8.02420      5.15773        -0.000966      0.004203     -0.000991
      8.63456     12.63225      6.66065        -0.001111     -0.013027     -0.011899
     10.15066      2.73490      5.97717         0.008446      0.011283      0.013041
     11.51161      7.97865      5.18401         0.004448     -0.002309     -0.007747
     11.48960     12.60353      6.64891        -0.001303     -0.007325     -0.014242
      4.26402      2.69047      5.95659         0.003832      0.003995      0.005780
      8.63202     11.51272      0.03388        -0.001207     -0.005208     -0.010729
      0.02744      4.01831      0.03772         0.003694      0.006470      0.006042
      8.61541      1.41230      1.62976        -0.002324     -0.011175      0.001699
      8.63495      8.90557      1.63755         0.001820     -0.002033     -0.003003
      1.42145      6.44049      0.82355         0.003202      0.000847      0.001189
      1.46859     14.18182      0.93242        -0.004568      0.001894      0.009423
      2.88193     11.50328      0.03936        -0.001523     -0.005088     -0.012532
      2.88591      3.79354      0.06564         0.002455      0.013968      0.005519
      2.85289      1.15137      1.66247        -0.004775     -0.003159      0.001694
      2.88616      8.89834      1.64311         0.001212      0.000353     -0.005888
      4.34517      6.43897      0.81848         0.001792     -0.001586      0.001459
      4.32762     14.25656      0.84586        -0.002289      0.001993      0.010521
      5.76109     11.50151      0.03408         0.001446     -0.006218     -0.012076
      5.72996      3.98530      0.04465         0.003363      0.009549      0.005085
      5.77505      1.19311      1.65391        -0.003107     -0.004275      0.002730
      5.75956      8.90282      1.64017        -0.000753     -0.001271     -0.005440
      7.19167      6.35565      0.89982         0.002103      0.004864      0.006399
      7.17772     14.18953      0.93274        -0.000131      0.005368      0.009972
      7.19110     11.75752      2.60528        -0.000225     -0.001435     -0.010402
      7.19476      3.87592      2.53527         0.004435      0.012806      0.005917
      7.15630      1.31732      4.19649        -0.004358     -0.002423      0.004227
      7.19280      9.17086      4.21544        -0.000823     -0.000779     -0.006966
      8.60539      6.60568      3.40382         0.001585      0.000668      0.000013
      8.63560     14.07910      3.47932        -0.001831     -0.009397      0.006962
     10.07770     11.75919      2.60643        -0.001603     -0.000843     -0.010749
      1.47490      3.73176      2.53974         0.001717      0.001998      0.003743
     10.08347      1.29194      4.19532        -0.001361     -0.003686      0.003671
     10.07740      9.14745      4.21421         0.001375     -0.000031     -0.007103
      2.88039      6.55047      3.41754         0.002637      0.011873      0.000920
      2.86602     14.32034      3.44998        -0.003513     -0.003292      0.005890
      4.31875     11.77618      2.60733         0.000026      0.000249     -0.009651
      4.29959      3.71306      2.53691         0.002068      0.001874      0.003791
      4.30407      1.22391      4.28710        -0.002905     -0.006060      0.001651
      4.32302      9.14992      4.22221         0.000536      0.001099     -0.006614
      5.78222      6.58640      3.40200         0.002317     -0.000776     -0.001252
      5.77693     14.33064      3.44262        -0.000918     -0.003229      0.005418
      5.75000     11.49561      5.00140        -0.000763     -0.001990     -0.012456
      5.72580      3.89050      5.11938         0.001216      0.004850      0.005668
      5.71787      1.43161      6.77803        -0.000956     -0.001140      0.004406
      5.74604      9.17642      6.85551        -0.000904     -0.003130     -0.003022
      7.19288      6.65869      5.88023         0.001441      0.009666      0.000361
      7.22050     14.03106      5.94070        -0.001193     -0.002714      0.006461
      8.63733     11.45549      5.01597        -0.000035     -0.004179     -0.009825
      8.66416      3.86253      5.11710         0.004851      0.003190      0.006498
      8.61989      1.33765      6.78889        -0.005032     -0.013007      0.004496
      8.64020      9.18337      6.84984         0.000849      0.001085     -0.005313
     10.04754      6.38573      5.90499         0.002169      0.005097      0.001359
     10.05046     14.04734      5.94141        -0.002865     -0.001765      0.006663
      2.88782     11.48727      5.00425        -0.000411     -0.000680     -0.012186
      2.88438      3.96510      5.04271         0.003128      0.006705      0.008688
     11.51496      1.45733      6.77348        -0.003117     -0.000992      0.004328
     11.51234      9.15575      6.85422         0.001922     -0.004325     -0.003812
      4.34312      6.38910      5.89900         0.001913      0.004186      0.000475
      4.32309     14.11448      5.93179        -0.002810     -0.016566      0.006383
 -----------------------------------------------------------------------------------
    total drift:                                0.002590     -0.056825     -0.014230


--------------------------------------------------------------------------------------------------------



  FREE ENERGIE OF THE ION-ELECTRON SYSTEM (eV)
  ---------------------------------------------------
  free  energy   TOTEN  =      -875.2365561234 eV

  energy  without entropy=     -875.2009174889  energy(sigma->0) =     -875.21873681
 
 d Force = 0.4732418E-03[ 0.456E-03, 0.491E-03]  d Energy = 0.4761388E-03-0.290E-05
 d Force =-0.1247261E+01[-0.125E+01,-0.125E+01]  d Ewald  =-0.2493715E+01 0.125E+01


--------------------------------------------------------------------------------------------------------


    POTLOK:  cpu time    0.3307: real time    0.3315


--------------------------------------------------------------------------------------------------------


 Quasi-Newton relaxation of ions (Broydens 2nd method)
  g(Force)  = 0.461E-03   g(Stress)= 0.316E-04

 retain information from N=  1 steps
 eigenvalues of (default step * inverse Hessian matrix)
  average eigenvalue of G=   0.2679
 eigenvalue spectrum of G is  0.2679


--------------------------------------------------------------------------------------------------------


  
 reached required accuracy - stopping structural energy minimisation
     LOOP+:  cpu time   54.6516: real time   54.8928
    4ORBIT:  cpu time    0.0000: real time    0.0000

volume of typ            1:    21.8 %

volume of typ            2:     3.1 %

volume of typ            3:    20.7 %

volume of typ            4:     8.7 %
 
total charge     
 
# of ion       s       p       d       tot
------------------------------------------
    1        0.223   6.060   2.279   8.562
    2        0.239   6.098   2.147   8.484
    3        0.242   6.099   2.207   8.548
    4        0.236   6.092   2.161   8.489
    5        0.224   6.063   2.276   8.564
    6        0.242   6.099   2.208   8.549
    7        0.235   6.091   2.160   8.486
    8        0.239   6.098   2.145   8.481
    9        0.242   6.099   2.205   8.545
   10        0.241   6.100   2.147   8.488
   11        0.223   6.059   2.279   8.562
   12        0.242   6.100   2.209   8.551
   13        0.242   6.102   2.141   8.486
   14        0.234   6.084   2.183   8.501
   15        0.242   6.098   2.208   8.549
   16        0.234   6.087   2.175   8.496
   17        0.242   6.100   2.209   8.551
   18        0.235   6.089   2.170   8.494
   19        0.241   6.100   2.144   8.485
   20        0.224   6.061   2.278   8.563
   21        0.239   6.097   2.152   8.487
   22        0.236   6.091   2.161   8.489
   23        0.207   0.228   7.981   8.416
   24        0.210   0.234   7.935   8.379
   25        0.209   0.234   7.933   8.377
   26        0.206   0.226   7.978   8.410
   27        0.209   0.233   7.933   8.374
   28        2.081   0.267   0.105   2.453
   29        2.083   0.280   0.115   2.479
   30        2.089   0.290   0.121   2.500
   31        2.090   0.297   0.121   2.508
   32        2.078   0.262   0.106   2.447
   33        2.080   0.263   0.106   2.449
   34        2.079   0.265   0.104   2.448
   35        2.078   0.261   0.105   2.445
   36        2.080   0.261   0.105   2.446
   37        2.089   0.296   0.124   2.508
   38        2.090   0.298   0.122   2.510
   39        2.079   0.263   0.108   2.450
   40        2.085   0.286   0.119   2.490
   41        2.090   0.298   0.122   2.510
   42        2.081   0.267   0.109   2.457
   43        2.085   0.284   0.117   2.486
   44        2.083   0.274   0.109   2.466
   45        2.077   0.255   0.103   2.435
   46        2.078   0.257   0.101   2.436
   47        2.079   0.261   0.103   2.443
   48        2.078   0.261   0.107   2.447
   49        2.077   0.255   0.100   2.433
   50        2.080   0.264   0.104   2.449
   51        2.078   0.255   0.103   2.436
   52        2.069   0.229   0.087   2.385
   53        2.079   0.261   0.103   2.442
   54        2.081   0.265   0.107   2.454
   55        1.242   2.848   0.005   4.095
   56        1.243   2.842   0.005   4.090
   57        1.244   2.840   0.006   4.090
   58        1.243   2.856   0.007   4.106
   59        1.248   2.839   0.007   4.094
   60        1.247   2.840   0.006   4.094
   61        1.243   2.847   0.005   4.096
   62        1.244   2.842   0.006   4.092
   63        1.243   2.843   0.005   4.091
   64        1.243   2.856   0.006   4.105
   65        1.249   2.839   0.007   4.094
   66        1.246   2.834   0.005   4.085
   67        1.243   2.847   0.005   4.096
   68        1.243   2.839   0.005   4.087
   69        1.242   2.840   0.005   4.087
   70        1.243   2.856   0.007   4.105
   71        1.247   2.833   0.006   4.086
   72        1.247   2.840   0.007   4.094
   73        1.243   2.854   0.007   4.104
   74        1.245   2.841   0.006   4.093
   75        1.244   2.843   0.006   4.093
   76        1.243   2.853   0.005   4.101
   77        1.247   2.835   0.006   4.088
   78        1.248   2.833   0.007   4.088
   79        1.243   2.854   0.007   4.104
   80        1.244   2.840   0.006   4.090
   81        1.245   2.843   0.006   4.095
   82        1.242   2.848   0.005   4.096
   83        1.247   2.834   0.007   4.088
   84        1.246   2.836   0.006   4.088
   85        1.242   2.859   0.006   4.107
   86        1.242   2.844   0.006   4.092
   87        1.244   2.839   0.005   4.087
   88        1.242   2.848   0.005   4.096
   89        1.247   2.836   0.006   4.089
   90        1.246   2.837   0.006   4.088
   91        1.240   2.842   0.004   4.086
   92        1.245   2.843   0.006   4.094
   93        1.244   2.840   0.006   4.090
   94        1.240   2.841   0.004   4.085
   95        1.246   2.832   0.006   4.084
   96        1.246   2.833   0.006   4.084
   97        1.241   2.845   0.005   4.090
   98        1.244   2.843   0.006   4.093
   99        1.245   2.840   0.006   4.091
  100        1.241   2.839   0.004   4.084
  101        1.245   2.832   0.006   4.083
  102        1.246   2.832   0.006   4.084
  103        1.240   2.842   0.004   4.087
  104        1.244   2.838   0.005   4.088
  105        1.242   2.844   0.006   4.092
  106        1.240   2.840   0.004   4.084
  107        1.245   2.832   0.005   4.082
  108        1.247   2.832   0.006   4.086
--------------------------------------------------
tot         129.62  295.85   91.25  516.72
 
magnetization (x)
 
# of ion       s       p       d       tot
------------------------------------------
    1       -0.000  -0.000  -0.009  -0.010
    2        0.000   0.000   0.020   0.021
    3        0.000   0.001   0.046   0.047
    4        0.000   0.000   0.016   0.017
    5       -0.000   0.000  -0.006  -0.006
    6       -0.000  -0.000  -0.011  -0.011
    7        0.000   0.000   0.014   0.015
    8        0.000   0.000   0.014   0.015
    9        0.000   0.001   0.046   0.047
   10        0.000   0.000   0.020   0.021
   11       -0.000  -0.000  -0.013  -0.013
   12       -0.001  -0.000  -0.019  -0.020
   13        0.000   0.000   0.021   0.022
   14        0.000   0.000   0.014   0.015
   15        0.001   0.001   0.050   0.052
   16        0.000   0.000   0.015   0.016
   17        0.000   0.001   0.047   0.048
   18        0.000   0.000   0.016   0.016
   19        0.000   0.000   0.020   0.021
   20       -0.000  -0.000  -0.013  -0.013
   21        0.000   0.001   0.023   0.024
   22        0.000   0.000   0.013   0.014
   23       -0.003  -0.001  -1.355  -1.358
   24        0.002   0.001   1.470   1.472
   25        0.002   0.001   1.473   1.476
   26       -0.002  -0.001  -1.359  -1.362
   27       -0.002  -0.001  -1.469  -1.473
   28        0.003   0.006   0.001   0.011
   29       -0.001  -0.002  -0.000  -0.004
   30       -0.002  -0.004  -0.001  -0.006
   31       -0.000  -0.000  -0.000  -0.000
   32        0.001   0.002   0.001   0.003
   33       -0.001  -0.001  -0.000  -0.002
   34       -0.000  -0.000  -0.000  -0.001
   35        0.001   0.002   0.001   0.003
   36       -0.001  -0.001  -0.000  -0.002
   37        0.000   0.001   0.000   0.001
   38       -0.001  -0.001  -0.000  -0.002
   39       -0.000   0.000   0.000   0.000
   40        0.001   0.002   0.001   0.004
   41       -0.001  -0.001  -0.000  -0.002
   42       -0.000  -0.001  -0.000  -0.002
   43       -0.001  -0.002  -0.001  -0.004
   44        0.003   0.006   0.001   0.010
   45        0.000   0.000   0.000   0.001
   46       -0.000  -0.001  -0.000  -0.002
   47        0.000  -0.000   0.000  -0.000
   48        0.000   0.000   0.000   0.000
   49       -0.001  -0.002  -0.001  -0.004
   50       -0.001  -0.002  -0.000  -0.003
   51        0.000   0.000   0.000   0.001
   52        0.000   0.000   0.000   0.000
   53        0.000  -0.000   0.000  -0.000
   54       -0.000  -0.001  -0.000  -0.002
   55       -0.005  -0.054  -0.000  -0.059
   56       -0.004  -0.047  -0.000  -0.051
   57       -0.000  -0.000   0.000  -0.000
   58        0.000   0.002   0.000   0.002
   59        0.000  -0.000   0.000  -0.000
   60        0.000  -0.000   0.000  -0.000
   61        0.005   0.059   0.000   0.064
   62       -0.000  -0.000   0.000  -0.000
   63       -0.004  -0.048  -0.000  -0.052
   64        0.000   0.005   0.000   0.006
   65        0.000   0.001   0.000   0.001
   66       -0.003  -0.037  -0.000  -0.041
   67        0.005   0.059   0.000   0.064
   68       -0.004  -0.044  -0.000  -0.048
   69       -0.004  -0.046  -0.000  -0.050
   70        0.000   0.005   0.000   0.005
   71       -0.003  -0.039  -0.000  -0.043
   72        0.000   0.000   0.000   0.000
   73       -0.000   0.004   0.000   0.004
   74       -0.000   0.000  -0.000   0.000
   75       -0.000  -0.001   0.000  -0.001
   76        0.005   0.060   0.000   0.065
   77        0.000   0.000   0.000   0.000
   78        0.000   0.000   0.000   0.000
   79        0.000   0.004   0.000   0.004
   80       -0.000  -0.000   0.000  -0.000
   81       -0.000  -0.000   0.000  -0.000
   82        0.005   0.059   0.000   0.065
   83        0.000   0.001   0.000   0.001
   84       -0.004  -0.045  -0.000  -0.049
   85        0.000   0.005   0.000   0.005
   86        0.000  -0.000   0.000  -0.000
   87       -0.003  -0.038  -0.000  -0.041
   88       -0.005  -0.055  -0.000  -0.060
   89        0.000  -0.000   0.000  -0.000
   90       -0.004  -0.046  -0.000  -0.050
   91       -0.000  -0.000   0.000  -0.001
   92       -0.000   0.000  -0.000   0.000
   93       -0.000  -0.000   0.000  -0.000
   94       -0.000  -0.001   0.000  -0.002
   95        0.000   0.001   0.000   0.001
   96       -0.000  -0.000   0.000  -0.000
   97        0.009   0.106   0.000   0.115
   98        0.000  -0.000   0.000  -0.000
   99       -0.000   0.000  -0.000   0.000
  100        0.009   0.107   0.000   0.117
  101       -0.004  -0.045  -0.000  -0.050
  102       -0.000  -0.000   0.000  -0.000
  103       -0.000  -0.000   0.000  -0.000
  104       -0.003  -0.039  -0.000  -0.042
  105        0.000  -0.000   0.000  -0.000
  106       -0.000  -0.002   0.000  -0.002
  107       -0.004  -0.044  -0.000  -0.048
  108        0.000   0.001   0.000   0.001
--------------------------------------------------
tot          -0.01   -0.15   -0.91   -1.08
 

 total amount of memory used by VASP MPI-rank0   155849. kBytes
=======================================================================

   base      :      30000. kBytes
   nonlr-proj:      43676. kBytes
   fftplans  :       9702. kBytes
   grid      :      59236. kBytes
   one-center:       1679. kBytes
   wavefun   :      11556. kBytes
 
  
  
 General timing and accounting informations for this job:
 ========================================================
  
                  Total CPU time used (sec):     1390.540
                            User time (sec):     1382.218
                          System time (sec):        8.321
                         Elapsed time (sec):     1399.527
  
                   Maximum memory used (kb):      222328.
                   Average memory used (kb):           0.
  
                          Minor page faults:        39303
                          Major page faults:           13
                 Voluntary context switches:         1291
