 vasp.5.4.4.18Apr17-6-g9f103f2a35 (build May 12 2020 05:39:39) gamma-only       
  
 MD_VERSION_INFO: Compiled 2020-05-12T12:39:39-UTC in devlin.sd.materialsdesign.
 com:/home/medea2/data/build/wwolf/vasp-gpu5.4.4/13047/x86_64/src/src/build/gam 
 from svn 13047
 
 This VASP executable licensed from Materials Design, Inc.
 
 executed on                        Lin64 date 2023.04.01  14:00:51
 running on   16 total cores
 distrk:  each k-point on   16 cores,    1 groups
 distr:  one band on NCORES_PER_BAND=   1 cores,   16 groups


--------------------------------------------------------------------------------------------------------


 INCAR:
 POTCAR:    PAW_PBE Ta_pv 07Sep2000               
 POTCAR:    PAW_PBE Ni 02Aug2007                  
 POTCAR:    PAW_PBE Li_sv 10Sep2004               
 POTCAR:    PAW_PBE O 08Apr2002                   

 ----------------------------------------------------------------------------- 
|                                                                             |
|           W    W    AA    RRRRR   N    N  II  N    N   GGGG   !!!           |
|           W    W   A  A   R    R  NN   N  II  NN   N  G    G  !!!           |
|           W    W  A    A  R    R  N N  N  II  N N  N  G       !!!           |
|           W WW W  AAAAAA  RRRRR   N  N N  II  N  N N  G  GGG   !            |
|           WW  WW  A    A  R   R   N   NN  II  N   NN  G    G                |
|           W    W  A    A  R    R  N    N  II  N    N   GGGG   !!!           |
|                                                                             |
|      For optimal performance we recommend to set                            |
|        NCORE= 4 - approx SQRT( number of cores)                             |
|      NCORE specifies how many cores store one orbital (NPAR=cpu/NCORE).     |
|      This setting can  greatly improve the performance of VASP for DFT.     |
|      The default,   NCORE=1            might be grossly inefficient         |
|      on modern multi-core architectures or massively parallel machines.     |
|      Do your own testing !!!!                                               |
|      Unfortunately you need to use the default for GW and RPA calculations. |
|      (for HF NCORE is supported but not extensively tested yet)             |
|                                                                             |
 ----------------------------------------------------------------------------- 

 POTCAR:    PAW_PBE Ta_pv 07Sep2000               
  local pseudopotential read in
  partial core-charges read in
  partial kinetic energy density read in
  atomic valenz-charges read in
  non local Contribution for L=           1  read in
    real space projection operators read in
  non local Contribution for L=           1  read in
    real space projection operators read in
  non local Contribution for L=           2  read in
    real space projection operators read in
  non local Contribution for L=           2  read in
    real space projection operators read in
  non local Contribution for L=           0  read in
    real space projection operators read in
  non local Contribution for L=           0  read in
    real space projection operators read in
    PAW grid and wavefunctions read in
 
   number of l-projection  operators is LMAX  =           6
   number of lm-projection operators is LMMAX =          18
 
 POTCAR:    PAW_PBE Ni 02Aug2007                  
  local pseudopotential read in
  partial core-charges read in
  partial kinetic energy density read in
  atomic valenz-charges read in
  non local Contribution for L=           2  read in
    real space projection operators read in
  non local Contribution for L=           2  read in
    real space projection operators read in
  non local Contribution for L=           0  read in
    real space projection operators read in
  non local Contribution for L=           0  read in
    real space projection operators read in
  non local Contribution for L=           1  read in
    real space projection operators read in
  non local Contribution for L=           1  read in
    real space projection operators read in
    PAW grid and wavefunctions read in
 
   number of l-projection  operators is LMAX  =           6
   number of lm-projection operators is LMMAX =          18
 
 POTCAR:    PAW_PBE Li_sv 10Sep2004               
  local pseudopotential read in
  atomic valenz-charges read in
  non local Contribution for L=           0  read in
    real space projection operators read in
  non local Contribution for L=           0  read in
    real space projection operators read in
  non local Contribution for L=           1  read in
    real space projection operators read in
    PAW grid and wavefunctions read in
 
   number of l-projection  operators is LMAX  =           3
   number of lm-projection operators is LMMAX =           5
 
 POTCAR:    PAW_PBE O 08Apr2002                   
  local pseudopotential read in
  partial core-charges read in
  partial kinetic energy density read in
  kinetic energy density of atom read in
  atomic valenz-charges read in
  non local Contribution for L=           0  read in
    real space projection operators read in
  non local Contribution for L=           0  read in
    real space projection operators read in
  non local Contribution for L=           1  read in
    real space projection operators read in
  non local Contribution for L=           1  read in
    real space projection operators read in
    PAW grid and wavefunctions read in
 
   number of l-projection  operators is LMAX  =           4
   number of lm-projection operators is LMMAX =           8
 
 Optimization of the real space projectors (new method)

 maximal supplied QI-value         = 15.12
 optimisation between [QCUT,QGAM] = [ 11.34, 22.83] = [ 36.00,145.93] Ry 
 Optimized for a Real-space Cutoff    1.61 Angstroem

   l    n(q)    QCUT    max X(q) W(low)/X(q) W(high)/X(q)  e(spline) 
   1     11    11.338     4.092    0.40E-05    0.64E-05    0.47E-07
   1     11    11.338     4.834    0.13E-04    0.44E-04    0.21E-06
   2     10    11.338    62.294    0.15E-03    0.31E-03    0.77E-06
   2     10    11.338    50.966    0.15E-03    0.31E-03    0.77E-06
   0     11    11.338   103.792    0.33E-04    0.19E-04    0.90E-07
   0     11    11.338    56.335    0.26E-04    0.17E-04    0.79E-07
 Optimization of the real space projectors (new method)

 maximal supplied QI-value         = 16.25
 optimisation between [QCUT,QGAM] = [ 11.38, 22.75] = [ 36.24,144.96] Ry 
 Optimized for a Real-space Cutoff    1.47 Angstroem

   l    n(q)    QCUT    max X(q) W(low)/X(q) W(high)/X(q)  e(spline) 
   2      9    11.376    60.317    0.17E-03    0.16E-04    0.16E-06
   2      9    11.376    55.921    0.17E-03    0.16E-04    0.17E-06
   0     10    11.376    51.690    0.45E-04    0.60E-04    0.21E-06
   0     10    11.376    30.015    0.37E-04    0.55E-04    0.19E-06
   1     10    11.376    18.849    0.83E-04    0.11E-03    0.92E-07
   1     10    11.376    14.624    0.69E-04    0.92E-04    0.82E-07
 Optimization of the real space projectors (new method)

 maximal supplied QI-value         = 22.11
 optimisation between [QCUT,QGAM] = [ 11.28, 22.77] = [ 35.61,145.23] Ry 
 Optimized for a Real-space Cutoff    1.10 Angstroem

   l    n(q)    QCUT    max X(q) W(low)/X(q) W(high)/X(q)  e(spline) 
   0      7    11.276    10.506    0.54E-04    0.58E-04    0.16E-07
   0      7    11.276     8.367    0.11E-03    0.14E-03    0.35E-07
   1      7    11.276     8.983    0.23E-03    0.43E-03    0.86E-07
 Optimization of the real space projectors (new method)

 maximal supplied QI-value         = 24.76
 optimisation between [QCUT,QGAM] = [ 11.39, 22.77] = [ 36.31,145.25] Ry 
 Optimized for a Real-space Cutoff    1.10 Angstroem

   l    n(q)    QCUT    max X(q) W(low)/X(q) W(high)/X(q)  e(spline) 
   0      7    11.387    20.381    0.22E-03    0.48E-03    0.18E-06
   0      7    11.387    15.268    0.22E-03    0.52E-03    0.19E-06
   1      7    11.387     5.964    0.22E-03    0.73E-03    0.24E-06
   1      7    11.387     5.382    0.19E-03    0.60E-03    0.21E-06

 ----------------------------------------------------------------------------- 
|                                                                             |
|  ADVICE TO THIS USER RUNNING 'VASP/VAMP'   (HEAR YOUR MASTER'S VOICE ...):  |
|                                                                             |
|      You enforced a specific xc-type in the INCAR file,                     |
|      a different type was found on the POTCAR file                          |
|          I HOPE YOU KNOW, WHAT YOU ARE  DOING                               |
|                                                                             |
 ----------------------------------------------------------------------------- 

  PAW_PBE Ta_pv 07Sep2000               :
 energy of atom  1       EATOM=-1047.1984
 kinetic energy error for atom=    0.0019 (will be added to EATOM!!)
  PAW_PBE Ni 02Aug2007                  :
 energy of atom  2       EATOM=-1077.6739
 kinetic energy error for atom=    0.0030 (will be added to EATOM!!)
  PAW_PBE Li_sv 10Sep2004               :
 energy of atom  3       EATOM= -202.7858
 kinetic energy error for atom=    0.0143 (will be added to EATOM!!)
  PAW_PBE O 08Apr2002                   :
 energy of atom  4       EATOM= -432.3788
 kinetic energy error for atom=    0.0224 (will be added to EATOM!!)
 
 
 POSCAR: ce694_1                                 
  positions in direct lattice
  No initial velocities read in
 exchange correlation table for  LEXCH =       14
   RHO(1)=    0.500       N(1)  =     2000
   RHO(2)=  100.500       N(2)  =     4000
 


--------------------------------------------------------------------------------------------------------


 ion  position               nearest neighbor table
   1  0.002  0.999  0.997- 108 2.03 105 2.10  93 2.10  60 2.12  72 2.12  57 2.16  47 3.01  27 3.01
                            23 3.01  53 3.01   7 3.03   4 3.03  29 3.04  54 3.04  36 3.06  30 3.06
   2  0.889  0.333  0.222-  80 2.12  56 2.12  74 2.13  77 2.13  59 2.13  71 2.13   5 3.03   8 3.03
                            17 3.04  30 3.04  14 3.04  11 3.04  36 3.04  40 3.04  19 3.04  28 3.04
   3  0.111  0.667  0.111-  55 2.12  79 2.12  61 2.13  94 2.13  58 2.13  64 2.13   9 3.03   6 3.03
                            12 3.04  29 3.04  20 3.04  18 3.04  32 3.04  28 3.04  15 3.04  40 3.04
   4  0.335  0.999  0.997-  96 2.03  99 2.10  93 2.10  66 2.12  60 2.12  63 2.16  47 3.01  24 3.01
                            23 3.01  50 3.01   7 3.03   1 3.03  48 3.04  32 3.04  30 3.06  33 3.06
   5  0.222  0.333  0.222-  86 2.09  65 2.10  62 2.10  83 2.10  80 2.12  59 2.12   8 3.03  33 3.03
                            21 3.03   2 3.03  25 3.03  17 3.03  30 3.04  14 3.04  40 3.04  31 3.04
   6  0.445  0.667  0.111-  67 2.09  70 2.10 100 2.10  85 2.10  61 2.12  64 2.12   9 3.03  26 3.03
                            35 3.03  22 3.03   3 3.03  18 3.03  34 3.04  15 3.04  32 3.04  31 3.04
   7  0.668  0.999  0.996- 102 2.03  99 2.10 105 2.10  66 2.12  72 2.12  69 2.16  50 3.01  53 3.01
                            24 3.01  27 3.01   4 3.03   1 3.03  51 3.04  35 3.05  36 3.06  33 3.07
   8  0.555  0.333  0.222-  86 2.09  65 2.10  89 2.10  68 2.10  74 2.12  71 2.12   5 3.03  21 3.03
                            33 3.03  25 3.03   2 3.03  11 3.03  43 3.04  19 3.04  36 3.04  37 3.04
   9  0.778  0.667  0.111-  67 2.09  70 2.10  73 2.10 106 2.10  55 2.12  58 2.12   6 3.03  35 3.03
                            26 3.03   3 3.03  22 3.03  12 3.03  29 3.04  20 3.04  28 3.04  37 3.04
  10  0.665  0.001  0.337-  75 2.03  90 2.10  78 2.10  69 2.12  57 2.12  72 2.16  39 3.01  23 3.01
                            24 3.01  45 3.01  16 3.03  13 3.03  38 3.04  36 3.04  29 3.06  35 3.06
  11  0.555  0.333  0.556-  92 2.09  95 2.10  98 2.10  89 2.10  74 2.12  77 2.13  17 3.03  21 3.03
                            25 3.03  14 3.03   8 3.03   2 3.04  46 3.04  45 3.04  39 3.04  48 3.04
  12  0.777  0.667  0.445-  97 2.09  76 2.10  73 2.10  82 2.11  58 2.12  79 2.12  18 3.03  22 3.03
                            26 3.03   9 3.03  15 3.03   3 3.04  37 3.04  40 3.04  29 3.04  38 3.04
  13  0.998  0.001  0.337-  81 2.03  84 2.10  78 2.10  57 2.12  63 2.12  60 2.16  39 3.01  27 3.01
                            24 3.01  42 3.01  16 3.03  10 3.03  30 3.04  41 3.04  32 3.06  29 3.06
  14  0.889  0.333  0.556- 104 2.09 101 2.09  98 2.10  83 2.11  80 2.12  77 2.13  19 3.03  25 3.03
                            21 3.03  11 3.03   2 3.04   5 3.04  52 3.04  42 3.04  49 3.04  51 3.04
  15  0.111  0.667  0.445- 103 2.09  88 2.09  85 2.10  82 2.11  64 2.12  79 2.12  20 3.03  22 3.03
                            26 3.03  12 3.03   6 3.04   3 3.04  43 3.04  40 3.04  52 3.04  32 3.04
  16  0.332  0.001  0.337-  87 2.03  90 2.10  84 2.10  69 2.12  63 2.12  66 2.16  45 3.01  42 3.01
                            23 3.01  27 3.01  10 3.03  13 3.03  44 3.04  33 3.05  32 3.06  35 3.07
  17  0.223  0.333  0.889-  92 2.09  95 2.10  62 2.10 107 2.11  59 2.12  56 2.12  11 3.03  25 3.03
                            21 3.03   5 3.03  19 3.03   2 3.04  31 3.04  28 3.04  30 3.04  48 3.04
  18  0.445  0.667  0.778-  97 2.09  76 2.10  91 2.10 100 2.10  61 2.12  94 2.13  12 3.03  26 3.03
                            22 3.03  20 3.03   6 3.03   3 3.04  49 3.04  50 3.04  47 3.04  38 3.04
  19  0.889  0.333  0.888- 104 2.09 101 2.09  68 2.10 107 2.11  71 2.12  56 2.12  14 3.03  25 3.03
                            21 3.03  17 3.03   8 3.04   2 3.04  34 3.04  28 3.04  52 3.04  36 3.04
  20  0.111  0.667  0.777- 103 2.09  88 2.09  91 2.10 106 2.11  55 2.12  94 2.13  15 3.03  22 3.03
                            26 3.03  18 3.03   3 3.04   9 3.04  52 3.04  53 3.04  46 3.04  44 3.04
  21  0.222  0.333  0.556-  86 2.07  92 2.07 104 2.07 107 2.08  89 2.08  83 2.08  14 3.03  11 3.03
                            19 3.03   8 3.03   5 3.03  17 3.03
  22  0.444  0.666  0.445-  88 2.07  70 2.07  76 2.07  91 2.08  85 2.08  73 2.08  15 3.03  20 3.03
                            12 3.03  18 3.03   9 3.03   6 3.03
  23  0.333  1.000  0.667-  87 2.08  96 2.08  75 2.08 108 2.08  90 2.08  93 2.08  16 3.01  10 3.01
                             4 3.01   1 3.01  24 3.03  27 3.03
  24  0.667  0.000  0.667- 102 2.08  75 2.08  96 2.08  81 2.08  99 2.08  78 2.08   7 3.01   4 3.01
                            10 3.01  13 3.01  23 3.03  27 3.03
  25  0.556  0.334  0.889- 101 2.07  65 2.07  95 2.07  98 2.08  68 2.08  62 2.08  19 3.03  14 3.03
                            17 3.03  11 3.03   5 3.03   8 3.03
  26  0.778  0.667  0.778-  67 2.07  97 2.07 103 2.07  82 2.08 100 2.08 106 2.08  20 3.03  18 3.03
                            15 3.03   6 3.03   9 3.03  12 3.03
  27  0.000  0.000  0.667-  87 2.08 102 2.08 108 2.08  81 2.08 105 2.08  84 2.08   7 3.01  16 3.01
                             1 3.01  13 3.01  23 3.03  24 3.03
  28  1.000  0.500  0.000-  58 2.17  59 2.17  71 2.17  94 2.17 107 2.22 106 2.22   3 3.04   9 3.04
                            19 3.04  17 3.04   2 3.04  20 3.05
  29  0.889  0.833  0.222-  55 2.17  79 2.17  60 2.17  72 2.17  78 2.21  73 2.22   3 3.04   9 3.04
                             1 3.04  12 3.04  10 3.06  13 3.06
  30  0.111  0.167  0.111-  80 2.17  56 2.17  57 2.17  63 2.17  93 2.21  62 2.22   2 3.04   5 3.04
                            13 3.04  17 3.04   4 3.06   1 3.06
  31  0.334  0.500  1.000-  59 2.17  64 2.17  94 2.18  95 2.19  65 2.20 100 2.22  17 3.04   6 3.04
                             5 3.04   3 3.04  18 3.05
  32  0.222  0.833  0.222-  61 2.17  79 2.17  60 2.17  66 2.18  84 2.21  85 2.22   3 3.04   6 3.04
                             4 3.04  15 3.04  13 3.06  16 3.06
  33  0.445  0.167  0.110-  63 2.18  69 2.18  62 2.19  68 2.19  99 2.21  86 2.22   5 3.03   8 3.03
                            16 3.05   4 3.06   7 3.07
  34  0.667  0.500  0.999-  71 2.17 100 2.19 106 2.19 101 2.20  65 2.20  70 2.22   6 3.04  19 3.04
                             9 3.04   8 3.05
  35  0.555  0.833  0.223-  72 2.18  66 2.18  73 2.19  85 2.19  90 2.21  67 2.22   9 3.03   6 3.03
                             7 3.05  10 3.06  16 3.07
  36  0.778  0.167  0.111-  74 2.17  56 2.17  57 2.17  69 2.18 105 2.21  68 2.22   2 3.04   8 3.04
                            10 3.04  19 3.04   1 3.06   7 3.06
  37  0.666  0.500  0.334-  58 2.17  71 2.17  77 2.18  76 2.19  70 2.20  89 2.22  12 3.04   8 3.04
                             9 3.04   2 3.04  11 3.05
  38  0.555  0.834  0.556-  90 2.19  91 2.20  78 2.20  73 2.20  96 2.23  97 2.23  10 3.04  18 3.04
                            12 3.04
  39  0.777  0.166  0.445-  57 2.17  80 2.18  74 2.18  81 2.21  75 2.21  98 2.22  13 3.01  10 3.01
                            11 3.04  14 3.04   2 3.05
  40  0.000  0.500  0.333-  59 2.17  58 2.17  64 2.17  77 2.17  82 2.22  83 2.22   2 3.04   5 3.04
                            15 3.04  12 3.04   3 3.04  14 3.05
  41  0.888  0.834  0.557-  79 2.18  78 2.20  84 2.20 103 2.20  97 2.21 102 2.22  13 3.04  12 3.05
                            15 3.05
  42  0.111  0.166  0.446-  63 2.17  80 2.18 104 2.20  86 2.21  87 2.21  81 2.22  16 3.01  13 3.01
                            14 3.04   5 3.05
  43  0.333  0.500  0.334-  64 2.17  89 2.19  83 2.19  88 2.20  70 2.20  65 2.22   8 3.04  15 3.04
                             5 3.04   6 3.05
  44  0.223  0.834  0.556-  90 2.19  91 2.20  84 2.20  85 2.20 108 2.23 103 2.23  16 3.04  20 3.04
                            15 3.04
  45  0.443  0.166  0.446-  69 2.17  74 2.18  92 2.20  86 2.21  87 2.21  75 2.22  16 3.01  10 3.01
                            11 3.04   8 3.05
  46  0.333  0.500  0.666-  94 2.17  89 2.18 107 2.19  88 2.20  76 2.20  95 2.22  11 3.04  20 3.04
                            17 3.05  18 3.05
  47  0.223  0.834  0.888-  60 2.17  55 2.18  61 2.18 108 2.21  96 2.21  91 2.22   1 3.01   4 3.01
                            18 3.04  20 3.04   3 3.05
  48  0.445  0.166  0.777-  99 2.19  98 2.20  93 2.20  62 2.20  75 2.23  92 2.23   4 3.04  11 3.04
                            17 3.04
  49  0.667  0.500  0.668-  77 2.17 100 2.18  82 2.19 101 2.20  95 2.20  76 2.22  18 3.04  14 3.04
                            12 3.05  11 3.05
  50  0.557  0.834  0.888-  66 2.17  61 2.18  97 2.20  67 2.21 102 2.21  96 2.22   7 3.01   4 3.01
                            18 3.04   6 3.05
  51  0.777  0.166  0.777-  99 2.19  98 2.20 105 2.20  68 2.20  81 2.23 104 2.23   7 3.04  14 3.04
                            19 3.04
  52  0.000  0.500  0.667- 106 2.19  83 2.19 107 2.19  82 2.19  88 2.22 101 2.22  20 3.04  14 3.04
                            19 3.04  15 3.04
  53  0.889  0.834  0.888-  72 2.17  55 2.18 103 2.20  67 2.21 102 2.21 108 2.22   7 3.01   1 3.01
                            20 3.04   9 3.05
  54  0.112  0.166  0.776-  56 2.18  93 2.20 105 2.20 104 2.20  92 2.21  87 2.22   1 3.04  17 3.05
                            19 3.05
  55  1.000  0.747  1.000-  20 2.12   9 2.12   3 2.12  29 2.17  53 2.18  47 2.18
  56  0.000  0.253  0.999-  17 2.12   2 2.12  19 2.12  30 2.17  36 2.17  54 2.18
  57  0.889  0.080  0.223-  13 2.12  10 2.12   1 2.16  39 2.17  36 2.17  30 2.17
  58  0.888  0.586  0.222-  12 2.12   9 2.12   3 2.13  37 2.17  28 2.17  40 2.17
  59  0.112  0.414  0.111-  17 2.12   5 2.12   2 2.13  31 2.17  40 2.17  28 2.17
  60  0.111  0.920  0.111-   1 2.12   4 2.12  13 2.16  47 2.17  32 2.17  29 2.17
  61  0.334  0.747  1.000-  18 2.12   6 2.12   3 2.13  32 2.17  50 2.18  47 2.18
  62  0.336  0.256  0.999-  25 2.08   5 2.10  17 2.10  33 2.19  48 2.20  30 2.22
  63  0.222  0.080  0.223-  13 2.12  16 2.12   4 2.16  42 2.17  30 2.17  33 2.18
  64  0.222  0.586  0.223-  15 2.12   6 2.12   3 2.13  40 2.17  43 2.17  31 2.17
  65  0.445  0.410  0.109-  25 2.07   8 2.10   5 2.10  31 2.20  34 2.20  43 2.22
  66  0.445  0.920  0.111-   4 2.12   7 2.12  16 2.16  50 2.17  32 2.18  35 2.18
  67  0.668  0.743  0.998-  26 2.07   9 2.09   6 2.09  50 2.21  53 2.21  35 2.22
  68  0.665  0.256  0.999-  25 2.08   8 2.10  19 2.10  33 2.19  51 2.20  36 2.22
  69  0.555  0.080  0.223-  10 2.12  16 2.12   7 2.16  45 2.17  36 2.18  33 2.18
  70  0.555  0.590  0.224-  22 2.07   6 2.10   9 2.10  37 2.20  43 2.20  34 2.22
  71  0.778  0.414  0.111-  19 2.12   8 2.12   2 2.13  28 2.17  34 2.17  37 2.17
  72  0.778  0.920  0.111-   1 2.12   7 2.12  10 2.16  53 2.17  29 2.17  35 2.18
  73  0.664  0.744  0.335-  22 2.08   9 2.10  12 2.10  35 2.19  38 2.20  29 2.22
  74  0.666  0.253  0.334-  11 2.12   8 2.12   2 2.13  36 2.17  45 2.18  39 2.18
  75  0.556  0.074  0.554-  10 2.03  24 2.08  23 2.08  39 2.21  45 2.22  48 2.23
  76  0.555  0.590  0.555-  22 2.07  18 2.10  12 2.10  37 2.19  46 2.20  49 2.22
  77  0.778  0.414  0.445-  14 2.13   2 2.13  11 2.13  40 2.17  49 2.17  37 2.18
  78  0.777  0.923  0.446-  24 2.08  10 2.10  13 2.10  41 2.20  38 2.20  29 2.21
  79  1.000  0.747  0.334-  12 2.12   3 2.12  15 2.12  29 2.17  32 2.17  41 2.18
  80  0.000  0.253  0.334-  14 2.12   5 2.12   2 2.12  30 2.17  42 2.18  39 2.18
  81  0.890  0.074  0.554-  13 2.03  27 2.08  24 2.08  39 2.21  42 2.22  51 2.23
  82  0.887  0.589  0.558-  26 2.08  15 2.11  12 2.11  49 2.19  52 2.19  40 2.22
  83  0.113  0.411  0.446-  21 2.08   5 2.10  14 2.11  52 2.19  43 2.19  40 2.22
  84  0.110  0.923  0.446-  27 2.08  16 2.10  13 2.10  41 2.20  44 2.20  32 2.21
  85  0.335  0.744  0.335-  22 2.08   6 2.10  15 2.10  35 2.19  44 2.20  32 2.22
  86  0.332  0.257  0.335-  21 2.07   5 2.09   8 2.09  45 2.21  42 2.21  33 2.22
  87  0.223  0.074  0.554-  16 2.03  23 2.08  27 2.08  42 2.21  45 2.21  54 2.22
  88  0.224  0.590  0.555-  22 2.07  20 2.09  15 2.09  43 2.20  46 2.20  52 2.22
  89  0.442  0.410  0.446-  21 2.08   8 2.10  11 2.10  46 2.18  43 2.19  37 2.22
  90  0.444  0.923  0.446-  23 2.08  10 2.10  16 2.10  38 2.19  44 2.19  35 2.21
  91  0.335  0.743  0.664-  22 2.08  20 2.10  18 2.10  44 2.20  38 2.20  47 2.22
  92  0.332  0.257  0.666-  21 2.07  17 2.09  11 2.09  45 2.20  54 2.21  48 2.23
  93  0.223  0.077  0.887-  23 2.08   4 2.10   1 2.10  54 2.20  48 2.20  30 2.21
  94  0.222  0.586  0.888-  20 2.13   3 2.13  18 2.13  28 2.17  46 2.17  31 2.18
  95  0.445  0.410  0.779-  25 2.07  11 2.10  17 2.10  31 2.19  49 2.20  46 2.22
  96  0.444  0.926  0.779-   4 2.03  23 2.08  24 2.08  47 2.21  50 2.22  38 2.23
  97  0.668  0.743  0.667-  26 2.07  12 2.09  18 2.09  50 2.20  41 2.21  38 2.23
  98  0.665  0.257  0.669-  25 2.08  14 2.10  11 2.10  51 2.20  48 2.20  39 2.22
  99  0.556  0.077  0.887-  24 2.08   4 2.10   7 2.10  48 2.19  51 2.19  33 2.21
 100  0.558  0.590  0.888-  26 2.08   6 2.10  18 2.10  49 2.18  34 2.19  31 2.22
 101  0.776  0.410  0.779-  25 2.07  14 2.09  19 2.09  34 2.20  49 2.20  52 2.22
 102  0.777  0.926  0.779-   7 2.03  24 2.08  27 2.08  53 2.21  50 2.21  41 2.22
 103  0.998  0.743  0.667-  26 2.07  15 2.09  20 2.09  53 2.20  41 2.20  44 2.23
 104  0.002  0.257  0.666-  21 2.07  19 2.09  14 2.09  42 2.20  54 2.20  51 2.23
 105  0.890  0.077  0.887-  27 2.08   7 2.10   1 2.10  54 2.20  51 2.20  36 2.21
 106  0.887  0.589  0.888-  26 2.08   9 2.10  20 2.11  52 2.19  34 2.19  28 2.22
 107  0.113  0.411  0.775-  21 2.08  19 2.11  17 2.11  46 2.19  52 2.19  28 2.22
 108  0.110  0.926  0.779-   1 2.03  27 2.08  23 2.08  47 2.21  53 2.22  44 2.23
 
  LATTYP: Found a triclinic cell.
 ALAT       =     9.0987885999
 B/A-ratio  =     0.9994685796
 C/A-ratio  =     1.6374574689
 COS(alpha) =     0.0000614976
 COS(beta)  =     0.0016657560
 COS(gamma) =     0.4997718473
  
  Lattice vectors:
  
 A1 = (  -4.5471473236,  -0.0075981954,   7.8810752738)
 A2 = (  -9.0939533117,  -0.0002803685,   0.0001971232)
 A3 = (  -0.0004566058, -14.8988727426,   0.0140249895)


Analysis of symmetry for initial positions (statically):
=====================================================================
 Subroutine PRICEL returns:
 Original cell was already a primitive cell.
 

 Routine SETGRP: Setting up the symmetry group for a 
 triclinic supercell.


 Subroutine GETGRP returns: Found  2 space group operations
 (whereof  1 operations were pure point group operations)
 out of a pool of  2 trial point group operations.


The static configuration has the point symmetry C_1 .
 The point group associated with its full space group is S_2 .


Analysis of symmetry for dynamics (positions and initial velocities):
=====================================================================
 Subroutine PRICEL returns:
 Original cell was already a primitive cell.
 

 Routine SETGRP: Setting up the symmetry group for a 
 triclinic supercell.


 Subroutine GETGRP returns: Found  2 space group operations
 (whereof  1 operations were pure point group operations)
 out of a pool of  2 trial point group operations.


The dynamic configuration has the point symmetry C_1 .
 The point group associated with its full space group is S_2 .


Analysis of structural, dynamic, and magnetic symmetry:
=====================================================================
 Subroutine PRICEL returns:
 Original cell was already a primitive cell.
 

 Routine SETGRP: Setting up the symmetry group for a 
 triclinic supercell.


 Subroutine GETGRP returns: Found  2 space group operations
 (whereof  1 operations were pure point group operations)
 out of a pool of  2 trial point group operations.


The magnetic configuration has the point symmetry C_1 .
 The point group associated with its full space group is S_2 .


 Subroutine INISYM returns: Found  2 space group operations
 (whereof  1 operations are pure point group operations),
 and found     1 'primitive' translations

 
 
 KPOINTS: Automatic mesh                          

Automatic generation of k-mesh.
Space group operators:
 irot       det(A)        alpha          n_x          n_y          n_z        tau_x        tau_y        tau_z
    1     1.000000     0.000001     1.000000     0.000000     0.000000     0.000000     0.000000     0.000000
    2    -1.000000     0.000001     1.000000     0.000000     0.000000    -1.000000    -0.000000     0.333333
 
 Subroutine IBZKPT returns following result:
 ===========================================
 
 Found      1 irreducible k-points:
 
 Following reciprocal coordinates:
            Coordinates               Weight
  0.000000  0.000000  0.000000      1.000000
 
 Following cartesian coordinates:
            Coordinates               Weight
  0.000000  0.000000  0.000000      1.000000
 


--------------------------------------------------------------------------------------------------------




 Dimension of arrays:
   k-points           NKPTS =      1   k-points in BZ     NKDIM =      1   number of bands    NBANDS=    432
   number of dos      NEDOS =    301   number of ions     NIONS =    108
   non local maximal  LDIM  =      6   non local SUM 2l+1 LMDIM =     18
   total plane-waves  NPLWV = 548800
   max r-space proj   IRMAX =   9053   max aug-charges    IRDMAX=  29070
   dimension x,y,z NGX =    70 NGY =  112 NGZ =   70
   dimension x,y,z NGXF=   140 NGYF=  224 NGZF=  140
   support grid    NGXF=   140 NGYF=  224 NGZF=  140
   ions per type =              20   7  27  54
   NGX,Y,Z   is equivalent  to a cutoff of  12.80, 12.50, 12.79 a.u.
   NGXF,Y,Z  is equivalent  to a cutoff of  25.59, 24.99, 25.58 a.u.

 SYSTEM =  unknown system                          
 POSCAR =  ce694_1                                 

 Startparameter for this run:
   NWRITE =      1    write-flag & timer
   PREC   = accura    normal or accurate (medium, high low for compatibility)
   ISTART =      0    job   : 0-new  1-cont  2-samecut
   ICHARG =      2    charge: 1-file 2-atom 10-const
   ISPIN  =      2    spin polarized calculation?
   LNONCOLLINEAR =      F non collinear calculations
   LSORBIT =      F    spin-orbit coupling
   INIWAV =      1    electr: 0-lowe 1-rand  2-diag
   LASPH  =      F    aspherical Exc in radial PAW
   METAGGA=      F    non-selfconsistent MetaGGA calc.

 Electronic Relaxation 1
   ENCUT  =  500.0 eV  36.75 Ry    6.06 a.u.  16.58 27.16 16.59*2*pi/ulx,y,z
   ENINI  =  500.0     initial cutoff
   ENAUG  =  628.9 eV  augmentation charge cutoff
   NELM   =     80;   NELMIN=  2; NELMDL= -5     # of ELM steps 
   EDIFF  = 0.1E-04   stopping-criterion for ELM
   LREAL  =      T    real-space projection
   NLSPLINE    = F    spline interpolate recip. space projectors
   LCOMPAT=      F    compatible to vasp.4.4
   GGA_COMPAT  = T    GGA compatible to vasp.4.4-vasp.4.6
   LMAXPAW     = -100 max onsite density
   LMAXMIX     =    2 max onsite mixed and CHGCAR
   VOSKOWN=      1    Vosko Wilk Nusair interpolation
   ROPT   =   -0.00025  -0.00025  -0.00025  -0.00025
 Ionic relaxation
   EDIFFG = -.2E-01   stopping-criterion for IOM
   NSW    =     20    number of steps for IOM
   NBLOCK =      1;   KBLOCK =     20    inner block; outer block 
   IBRION =      1    ionic relax: 0-MD 1-quasi-New 2-CG
   NFREE  =      0    steps in history (QN), initial steepest desc. (CG)
   ISIF   =      3    stress and relaxation
   IWAVPR =     11    prediction:  0-non 1-charg 2-wave 3-comb
   ISYM   =      2    0-nonsym 1-usesym 2-fastsym
   LCORR  =      T    Harris-Foulkes like correction to forces

   POTIM  = 0.5000    time-step for ionic-motion
   TEIN   =    0.0    initial temperature
   TEBEG  =    0.0;   TEEND  =   0.0 temperature during run
   SMASS  =  -3.00    Nose mass-parameter (am)
   estimated Nose-frequenzy (Omega)   =  0.10E-29 period in steps =****** mass=  -0.189E-26a.u.
   SCALEE = 1.0000    scale energy and forces
   NPACO  =    256;   APACO  = 16.0  distance and # of slots for P.C.
   PSTRESS=    0.0 pullay stress

  Mass of Ions in am
   POMASS = 180.95 58.69  7.01 16.00
  Ionic Valenz
   ZVAL   =  11.00 10.00  3.00  6.00
  Atomic Wigner-Seitz radii
   RWIGS  =   1.34  1.15  1.23  0.73
  virtual crystal weights 
   VCA    =   1.00  1.00  1.00  1.00
   NELECT =     695.0000    total number of electrons
   NUPDOWN=      -1.0000    fix difference up-down

 DOS related values:
   EMIN   =  10.00;   EMAX   =-10.00  energy-range for DOS
   EFERMI =   0.00
   ISMEAR =     0;   SIGMA  =   0.05  broadening in eV -4-tet -1-fermi 0-gaus

 Electronic relaxation 2 (details)
   IALGO  =     38    algorithm
   LDIAG  =      T    sub-space diagonalisation (order eigenvalues)
   LSUBROT=      F    optimize rotation matrix (better conditioning)
   TURBO    =      0    0=normal 1=particle mesh
   IRESTART =      0    0=no restart 2=restart with 2 vectors
   NREBOOT  =      0    no. of reboots
   NMIN     =      0    reboot dimension
   EREF     =   0.00    reference energy to select bands
   IMIX   =      4    mixing-type and parameters
     AMIX     =   0.40;   BMIX     =  1.00
     AMIX_MAG =   1.60;   BMIX_MAG =  1.00
     AMIN     =   0.10
     WC   =   100.;   INIMIX=   1;  MIXPRE=   1;  MAXMIX= -45

 Intra band minimization:
   WEIMIN = 0.0010     energy-eigenvalue tresh-hold
   EBREAK =  0.58E-08  absolut break condition
   DEPER  =   0.30     relativ break condition  

   TIME   =   0.40     timestep for ELM

  volume/ion in A,a.u.               =       9.89        66.72
  Fermi-wavevector in a.u.,A,eV,Ry     =   1.418756  2.681061 27.386756  2.012870
  Thomas-Fermi vector in A             =   2.539849
 
 Write flags
   LWAVE        =      F    write WAVECAR
   LDOWNSAMPLE  =      F    k-point downsampling of WAVECAR
   LCHARG       =      T    write CHGCAR
   LVTOT        =      F    write LOCPOT, total local potential
   LVHAR        =      F    write LOCPOT, Hartree potential only
   LELF         =      F    write electronic localiz. function (ELF)
   LORBIT       =      0    0 simple, 1 ext, 2 COOP (PROOUT), +10 PAW based schemes


 Dipole corrections
   LMONO  =      F    monopole corrections only (constant potential shift)
   LDIPOL =      F    correct potential (dipole corrections)
   IDIPOL =      0    1-x, 2-y, 3-z, 4-all directions 
   EPSILON=  1.0000000 bulk dielectric constant

 Exchange correlation treatment:
   GGA     =    PS    GGA type
   LEXCH   =    14    internal setting for exchange type
   VOSKOWN=      1    Vosko Wilk Nusair interpolation
   LHFCALC =     F    Hartree Fock is set to
   LHFONE  =     F    Hartree Fock one center treatment
   AEXX    =    0.0000 exact exchange contribution

 Linear response parameters
   LEPSILON=     F    determine dielectric tensor
   LRPA    =     F    only Hartree local field effects (RPA)
   LNABLA  =     F    use nabla operator in PAW spheres
   LVEL    =     F    velocity operator in full k-point grid
   LINTERFAST=   F  fast interpolation
   KINTER  =     0    interpolate to denser k-point grid
   CSHIFT  =0.1000    complex shift for real part using Kramers Kronig
   OMEGAMAX=  -1.0    maximum frequency
   DEG_THRESHOLD= 0.2000000E-02 threshold for treating states as degnerate
   RTIME   =   -0.100 relaxation time in fs
  (WPLASMAI=    0.000 imaginary part of plasma frequency in eV, 0.658/RTIME)
   DFIELD  = 0.0000000 0.0000000 0.0000000 field for delta impulse in time
 
 Orbital magnetization related:
   ORBITALMAG=     F  switch on orbital magnetization
   LCHIMAG   =     F  perturbation theory with respect to B field
   DQ        =  0.001000  dq finite difference perturbation B field
   LLRAUG    =     F  two centre corrections for induced B field



--------------------------------------------------------------------------------------------------------


 quasi-Newton-method for relaxation of ions
 charge density and potential will be updated during run
 spin polarized calculation
 Variant of blocked Davidson
 Davidson routine will perform the subspace rotation
 perform sub-space diagonalisation
    after iterative eigenvector-optimisation
 modified Broyden-mixing scheme, WC =      100.0
 initial mixing is a Kerker type mixing with AMIX =  0.4000 and BMIX =      1.0000
 Hartree-type preconditioning will be used
 using additional bands           84
 real space projection scheme for non local part
 use partial core corrections
 calculate Harris-corrections to forces 
   (improved forces if not selfconsistent)
 use gradient corrections 
 use of overlap-Matrix (Vanderbilt PP)
 Gauss-broadening in eV      SIGMA  =   0.05


--------------------------------------------------------------------------------------------------------


  energy-cutoff  :      500.00
  volume of cell :     1067.79
      direct lattice vectors                 reciprocal lattice vectors
     9.093953312  0.000280369 -0.000197123     0.109961804 -0.000063090 -0.063441591
     0.000456606 14.898872743 -0.014024989    -0.000002068  0.067119232  0.000063517
     4.546805988 -0.007317827  7.880878151     0.000002747  0.000119445  0.126887939

  length of vectors
     9.093953318 14.898879351  9.098447047     0.126950533  0.067119262  0.126887995


 
 k-points in units of 2pi/SCALE and weight: Automatic mesh                          
   0.00000000  0.00000000  0.00000000       1.000
 
 k-points in reciprocal lattice and weights: Automatic mesh                          
   0.00000000  0.00000000  0.00000000       1.000
 
 position of ions in fractional coordinates (direct lattice) 
   0.00159233  0.99854206  0.99682001
   0.88898043  0.33329170  0.22219261
   0.11101957  0.66670830  0.11114072
   0.33499915  0.99867054  0.99671913
   0.22240013  0.33321402  0.22218315
   0.44466409  0.66670644  0.11102426
   0.66840881  0.99856711  0.99647767
   0.55533592  0.33329356  0.22230907
   0.77759987  0.66678598  0.11115018
   0.66500085  0.00132946  0.33661420
   0.55525975  0.33312627  0.55581797
   0.77746986  0.66679385  0.44473633
   0.99840767  0.00145794  0.33651332
   0.88878748  0.33316514  0.55596710
   0.11112605  0.66667138  0.44484984
   0.33159120  0.00143289  0.33685566
   0.22253014  0.33320615  0.88859700
   0.44474024  0.66687373  0.77751537
   0.88887396  0.33332862  0.88848349
   0.11121251  0.66683486  0.77736624
   0.22218278  0.33255478  0.55551004
   0.44430649  0.66615020  0.44459374
   0.33337968  0.99998618  0.66659096
   0.66662031  0.00001382  0.66674238
   0.55569351  0.33384980  0.88873959
   0.77781722  0.66744522  0.77782330
   0.00000000  0.00000000  0.66666667
   0.99999435  0.49999868  0.00011072
   0.88894924  0.83332097  0.22217354
   0.11105076  0.16667903  0.11115979
   0.33394343  0.49969797  0.99970073
   0.22219834  0.83332434  0.22217997
   0.44479714  0.16707982  0.11039281
   0.66669721  0.50009274  0.99895720
   0.55520287  0.83292018  0.22294052
   0.77780166  0.16667566  0.11115336
   0.66605657  0.50030203  0.33363260
   0.55479120  0.83378382  0.55602940
   0.77739025  0.16608342  0.44522750
   0.00000565  0.50000132  0.33322261
   0.88812220  0.83388223  0.55708981
   0.11104174  0.16639115  0.44561444
   0.33330280  0.49990726  0.33437613
   0.22250994  0.83379082  0.55603062
   0.44333582  0.16639360  0.44561835
   0.33330257  0.49990755  0.66565214
   0.22260975  0.83391658  0.88810583
   0.44520879  0.16621618  0.77730394
   0.66669742  0.50009245  0.66768120
   0.55666418  0.83360640  0.88771498
   0.77749006  0.16620918  0.77730272
   0.00000000  0.50000000  0.66666667
   0.88895827  0.83360885  0.88771889
   0.11187779  0.16611777  0.77624353
   0.99976366  0.74705609  0.99973351
   0.00025240  0.25271351  0.99949760
   0.88859690  0.08036543  0.22273311
   0.88839366  0.58604472  0.22247911
   0.11160634  0.41395528  0.11085422
   0.11140310  0.91963457  0.11060022
   0.33383816  0.74704430  0.99973831
   0.33604089  0.25619307  0.99879013
   0.22199765  0.08035545  0.22272266
   0.22248105  0.58601420  0.22252041
   0.44537420  0.40998306  0.10918600
   0.44471527  0.91964336  0.11057678
   0.66754750  0.74303221  0.99823342
   0.66514255  0.25619938  0.99876224
   0.55528474  0.08035664  0.22275655
   0.55462581  0.59001694  0.22414733
   0.77751895  0.41398580  0.11081292
   0.77800235  0.91964455  0.11061067
   0.66395911  0.74380693  0.33454320
   0.66616184  0.25295570  0.33359502
   0.55627112  0.07445455  0.55415601
   0.55466592  0.59001385  0.55463589
   0.77753706  0.41396661  0.44495357
   0.77696119  0.92281531  0.44611207
   0.99974760  0.74728649  0.33383573
   0.00023634  0.25294391  0.33359982
   0.88958547  0.07444244  0.55415243
   0.88741809  0.58944214  0.55837670
   0.11257611  0.41056418  0.44579337
   0.11027513  0.92280507  0.44609041
   0.33485746  0.74380062  0.33457109
   0.33245251  0.25696779  0.33509991
   0.22292759  0.07429262  0.55412377
   0.22396977  0.59035866  0.55467723
   0.44168546  0.41039594  0.44581143
   0.44368401  0.92312618  0.44599734
   0.33466900  0.74339930  0.66395155
   0.33238420  0.25718675  0.66588180
   0.22303881  0.07718469  0.88722126
   0.22246294  0.58603339  0.88837976
   0.44533407  0.40998615  0.77869745
   0.44372887  0.92554545  0.77917733
   0.66761579  0.74281325  0.66745154
   0.66533099  0.25660070  0.66938179
   0.55631599  0.07687382  0.88733599
   0.55831454  0.58960406  0.88752190
   0.77603023  0.40964134  0.77865611
   0.77707241  0.92570738  0.77920957
   0.99835581  0.74285177  0.66736971
   0.00164419  0.25714823  0.66596363
   0.88972488  0.07719493  0.88724292
   0.88742390  0.58943582  0.88753996
   0.11258190  0.41055786  0.77495664
   0.11041452  0.92555756  0.77918091
 
 position of ions in cartesian coordinates  (Angst):
   4.54728371 14.86985697  7.84181218
   9.09476540  4.96429390  1.74622323
   1.51524650  9.93241994  0.86651401
   7.57881114 14.87186539  7.84094963
   3.03287222  4.96294974  1.74628117
   4.54886467  9.93248662  0.86553046
  10.60972510 14.87041965  7.83898244
   6.06114732  4.96422722  1.74720678
   7.57713968  9.93376410  0.86645608
   7.57800675  0.01753062  2.65266576
   7.57685482  4.95929420  4.37555215
   9.09270888  9.93144019  3.49540779
  10.60953418  0.01953904  2.65180321
  10.61061851  4.95996574  4.37666113
   3.03352543  9.92942787  3.49643542
   4.54709288  0.01897636  2.65463295
   6.06410901  4.95795582  6.99820760
   7.57996302  9.93010181  6.11806333
  12.12329254  4.95996813  6.99717998
   4.54619933  9.92943027  6.11695434
   4.54646805  4.95068851  4.37319906
   6.06228812  9.92175817  3.49435876
   6.06305561 14.89388231  5.23923162
   9.09376223 -0.00448630  5.25438385
   9.09452976  4.96763784  6.99925664
  10.61034988  9.93870749  6.12041641
   3.03120401 -0.00487855  5.25391879
   9.09463366  7.44969626 -0.00633703
   9.09462337 12.41416649  1.73906005
   1.51538853  2.48254734  0.87367720
   7.58253939  7.43771446  7.87144555
   3.03125105 12.41402972  1.73924211
   4.54697540  2.48861785  0.86756131
  10.60520622  7.44369482  7.86551475
   6.06303659 12.40809599  1.74517593
   7.57876085  2.48268412  0.87349514
   7.57427849  7.45168155  2.62216984
   7.57378379 12.41852565  4.37019678
   9.09398954  2.47141560  3.50630112
   1.51537824  7.44701757  2.61907427
  10.60990186 12.42007754  4.37848665
   3.03600678  2.47581077  3.50947758
   4.55161175  7.44570119  2.62810064
   4.55203907 12.41853677  4.37027179
   6.05789141  2.47594041  3.50944286
   6.05785741  7.44328129  5.23884651
   6.06282835 12.41798041  6.98731428
   7.58303405  2.47087036  6.12341870
   9.09896043  7.44611472  5.25476897
   9.09892648 12.41345560  6.98417254
  10.60477886  2.47085924  6.12334368
   3.03143231  7.44455782  5.24690630
  12.12081120 12.41358524  6.98413781
   4.54691598  2.46931847  6.11512882
  13.63773947 11.12325804  7.86810344
   4.54693238  3.75783235  7.87337444
   9.09361966  1.19597353  1.75403021
   9.09084741  8.73002672  1.74493636
   1.51916449  6.16668712  0.86780088
   1.51639224 13.70074031  0.85870703
   7.58186588 11.12289564  7.86827271
   7.59736209  3.80977319  7.86768397
   3.03154968  1.19563802  1.75407940
   3.03525699  8.72938500  1.74539354
   4.54684694  6.10761130  0.85464376
   4.54741098 13.70096489  0.85845648
  10.60975876 11.06322460  7.85640334
  10.59007041  3.80995968  7.86739921
   6.06260101  1.19574894  1.75428077
   6.06316505  8.78910253  1.75809348
   7.57475491  6.16732883  0.86734371
   7.57846222 13.70107582  0.85865784
   7.55945580 11.07962282  2.62593143
   7.57495201  3.76650036  2.62534269
   7.57837745  1.10538961  4.36608211
   7.56619717  8.78663805  4.36263359
   9.09419230  6.16459775  3.50066572
   9.09445518 13.74586113  3.50265923
  10.60988551 11.13156366  2.62024095
   1.51907842  3.76613797  2.62551195
  10.60950631  1.10530266  4.36598837
  10.60923834  8.77818613  4.39205688
   3.05088532  6.11371279  3.50746288
   3.03154479 13.74552181  3.50262010
   4.56674757 11.07943633  2.62621619
   4.54705921  3.82617141  2.63721205
   4.54682029  1.10288381  4.36589601
   4.55904994  8.79168231  4.36301974
   6.04387242  6.11129835  3.50754269
   6.06312655 13.75040014  3.50181640
   6.06266258 11.07104672  5.22202913
   6.05043918  3.82701304  5.24406077
   6.06236271  1.14353488  6.99095616
   6.06262559  8.72479826  6.99294968
   7.59062067  6.10275796  6.13098188
   7.57844039 13.78400640  6.12753336
   9.10637866 11.06238297  5.24955471
   9.09415526  3.81834929  5.27158635
   9.09369133  1.13899586  6.99179900
   9.11294547  8.77809766  6.98607270
  10.59776799  6.09771370  6.13059574
  10.60999764 13.78651220  6.12771946
  12.11374091 11.06305020  5.24884408
   3.04307702  3.82634581  5.24477140
  12.12527319  1.14387420  6.99099530
  12.10593266  8.77568321  6.98615252
   4.54757950  6.11120988  6.10155859
   4.54731153 13.78409335  6.12762711
 


--------------------------------------------------------------------------------------------------------


 use serial FFT for orbitals x direction half grid
 k-point  1 :   0.0000 0.0000 0.0000  plane waves:   13594

 maximum and minimum number of plane-waves per node :     13594    13594

 maximum number of plane-waves:     13594
 maximum index in each direction: 
   IXMAX=   16   IYMAX=   27   IZMAX=   16
   IXMIN=    0   IYMIN=  -27   IZMIN=  -14

 The following grids will avoid any aliasing or wrap around errors in the Hartre
 e energy
  - symmetry arguments have not been applied
  - exchange correlation energies might require even more grid points
  - we recommend to set PREC=Normal or Accurate and rely on VASP defaults
 NGX is ok and might be reduce to    70
 NGY is ok and might be reduce to   112
 NGZ is ok and might be reduce to    64

 serial   3D FFT for wavefunctions
 parallel 3D FFT for charge:
    minimum data exchange during FFTs selected (reduces bandwidth)


 total amount of memory used by VASP MPI-rank0   176128. kBytes
=======================================================================

   base      :      30000. kBytes
   nonlr-proj:      48854. kBytes
   fftplans  :      11817. kBytes
   grid      :      71572. kBytes
   one-center:       1679. kBytes
   wavefun   :      12206. kBytes
 
     INWAV:  cpu time    0.0000: real time    0.0000
 Broyden mixing: mesh for mixing (old mesh)
   NGX = 33   NGY = 55   NGZ = 33
  (NGX  =140   NGY  =224   NGZ  =140)
  gives a total of  59895 points

 initial charge density was supplied:
 charge density of overlapping atoms calculated
 number of electron     695.0000000 magnetization      17.5000000
 keeping initial charge density in first step


--------------------------------------------------------------------------------------------------------


 Maximum index for non-local projection operator         8749
 Maximum index for augmentation-charges         2102 (set IRDMAX)


--------------------------------------------------------------------------------------------------------


 First call to EWALD:  gamma=   0.173
 Maximum number of real-space cells 3x 2x 3
 Maximum number of reciprocal cells 2x 4x 2

    FEWALD:  cpu time    0.0049: real time    0.0049


--------------------------------------- Iteration      1(   1)  ---------------------------------------


    POTLOK:  cpu time    0.3646: real time    0.3703
    SETDIJ:  cpu time    0.0441: real time    0.0443
     EDDAV:  cpu time    7.2574: real time    7.5495
    --------------------------------------------
      LOOP:  cpu time    7.6667: real time    7.9647

 eigenvalue-minimisations  :  1744
 total energy-change (2. order) : 0.1106039E+05  (-0.3707311E+05)
 number of electron     695.0000000 magnetization      17.5000000
 augmentation part      695.0000000 magnetization      17.5000000

 Free energy of the ion-electron system (eV)
  ---------------------------------------------------
  alpha Z        PSCENC =      3894.19672547
  Ewald energy   TEWEN  =    -44108.25438120
  -Hartree energ DENC   =    -12935.08801862
  -exchange      EXHF   =         0.00000000
  -V(xc)+E(xc)   XCENC  =      2581.11691434
  PAW double counting   =     43987.65095644   -44620.13598605
  entropy T*S    EENTRO =        -0.01490860
  eigenvalues    EBANDS =      5081.44859969
  atomic energy  EATOM  =     57179.46551250
  Solvation  Ediel_sol  =         0.00000000
  ---------------------------------------------------
  free energy    TOTEN  =     11060.38541395 eV

  energy without entropy =    11060.40032256  energy(sigma->0) =    11060.39286826


--------------------------------------------------------------------------------------------------------




--------------------------------------- Iteration      1(   2)  ---------------------------------------


     EDDAV:  cpu time    8.2317: real time    8.2601
    --------------------------------------------
      LOOP:  cpu time    8.2316: real time    8.2601

 eigenvalue-minimisations  :  1888
 total energy-change (2. order) :-0.1004588E+05  (-0.9447166E+04)
 number of electron     695.0000000 magnetization      17.5000000
 augmentation part      695.0000000 magnetization      17.5000000

 Free energy of the ion-electron system (eV)
  ---------------------------------------------------
  alpha Z        PSCENC =      3894.19672547
  Ewald energy   TEWEN  =    -44108.25438120
  -Hartree energ DENC   =    -12935.08801862
  -exchange      EXHF   =         0.00000000
  -V(xc)+E(xc)   XCENC  =      2581.11691434
  PAW double counting   =     43987.65095644   -44620.13598605
  entropy T*S    EENTRO =        -0.03738809
  eigenvalues    EBANDS =     -4964.41172745
  atomic energy  EATOM  =     57179.46551250
  Solvation  Ediel_sol  =         0.00000000
  ---------------------------------------------------
  free energy    TOTEN  =      1014.50260733 eV

  energy without entropy =     1014.53999542  energy(sigma->0) =     1014.52130137


--------------------------------------------------------------------------------------------------------




--------------------------------------- Iteration      1(   3)  ---------------------------------------


     EDDAV:  cpu time    9.1087: real time    9.1398
    --------------------------------------------
      LOOP:  cpu time    9.1087: real time    9.1398

 eigenvalue-minimisations  :  2048
 total energy-change (2. order) :-0.1772314E+04  (-0.1664491E+04)
 number of electron     695.0000000 magnetization      17.5000000
 augmentation part      695.0000000 magnetization      17.5000000

 Free energy of the ion-electron system (eV)
  ---------------------------------------------------
  alpha Z        PSCENC =      3894.19672547
  Ewald energy   TEWEN  =    -44108.25438120
  -Hartree energ DENC   =    -12935.08801862
  -exchange      EXHF   =         0.00000000
  -V(xc)+E(xc)   XCENC  =      2581.11691434
  PAW double counting   =     43987.65095644   -44620.13598605
  entropy T*S    EENTRO =        -0.06537470
  eigenvalues    EBANDS =     -6736.69725174
  atomic energy  EATOM  =     57179.46551250
  Solvation  Ediel_sol  =         0.00000000
  ---------------------------------------------------
  free energy    TOTEN  =      -757.81090357 eV

  energy without entropy =     -757.74552887  energy(sigma->0) =     -757.77821622


--------------------------------------------------------------------------------------------------------




--------------------------------------- Iteration      1(   4)  ---------------------------------------


     EDDAV:  cpu time   10.0192: real time   10.0553
    --------------------------------------------
      LOOP:  cpu time   10.0191: real time   10.0553

 eigenvalue-minimisations  :  2240
 total energy-change (2. order) :-0.1864536E+03  (-0.1774321E+03)
 number of electron     695.0000000 magnetization      17.5000000
 augmentation part      695.0000000 magnetization      17.5000000

 Free energy of the ion-electron system (eV)
  ---------------------------------------------------
  alpha Z        PSCENC =      3894.19672547
  Ewald energy   TEWEN  =    -44108.25438120
  -Hartree energ DENC   =    -12935.08801862
  -exchange      EXHF   =         0.00000000
  -V(xc)+E(xc)   XCENC  =      2581.11691434
  PAW double counting   =     43987.65095644   -44620.13598605
  entropy T*S    EENTRO =        -0.07289418
  eigenvalues    EBANDS =     -6923.14329209
  atomic energy  EATOM  =     57179.46551250
  Solvation  Ediel_sol  =         0.00000000
  ---------------------------------------------------
  free energy    TOTEN  =      -944.26446340 eV

  energy without entropy =     -944.19156922  energy(sigma->0) =     -944.22801631


--------------------------------------------------------------------------------------------------------




--------------------------------------- Iteration      1(   5)  ---------------------------------------


     EDDAV:  cpu time   13.4643: real time   13.5223
    CHARGE:  cpu time    0.5721: real time    0.5734
    MIXING:  cpu time    0.0081: real time    0.0152
    --------------------------------------------
      LOOP:  cpu time   14.0441: real time   14.1104

 eigenvalue-minimisations  :  3296
 total energy-change (2. order) :-0.1935868E+02  (-0.1897154E+02)
 number of electron     695.0000024 magnetization      18.8287608
 augmentation part      168.2041620 magnetization      11.8085314

 Broyden mixing:
  rms(total) = 0.12884E+02    rms(broyden)= 0.12883E+02
  rms(prec ) = 0.13725E+02
  weight for this iteration     100.00

 Free energy of the ion-electron system (eV)
  ---------------------------------------------------
  alpha Z        PSCENC =      3894.19672547
  Ewald energy   TEWEN  =    -44108.25438120
  -Hartree energ DENC   =    -12935.08801862
  -exchange      EXHF   =         0.00000000
  -V(xc)+E(xc)   XCENC  =      2581.11691434
  PAW double counting   =     43987.65095644   -44620.13598605
  entropy T*S    EENTRO =        -0.08008683
  eigenvalues    EBANDS =     -6942.49477459
  atomic energy  EATOM  =     57179.46551250
  Solvation  Ediel_sol  =         0.00000000
  ---------------------------------------------------
  free energy    TOTEN  =      -963.62313856 eV

  energy without entropy =     -963.54305172  energy(sigma->0) =     -963.58309514


--------------------------------------------------------------------------------------------------------




--------------------------------------- Iteration      1(   6)  ---------------------------------------


    POTLOK:  cpu time    0.4034: real time    0.4047
    SETDIJ:  cpu time    0.0468: real time    0.0469
     EDDAV:  cpu time    9.5479: real time    9.5737
    CHARGE:  cpu time    0.5338: real time    0.5351
    MIXING:  cpu time    0.0071: real time    0.0071
    --------------------------------------------
      LOOP:  cpu time   10.5390: real time   10.5674

 eigenvalue-minimisations  :  2400
 total energy-change (2. order) :-0.2594541E+01  (-0.1055831E+03)
 number of electron     695.0000024 magnetization      17.0649824
 augmentation part      183.3471275 magnetization      16.8524146

 Broyden mixing:
  rms(total) = 0.15386E+02    rms(broyden)= 0.15386E+02
  rms(prec ) = 0.16013E+02
  weight for this iteration     100.00

 eigenvalues of (default mixing * dielectric matrix)
  average eigenvalue GAMMA=   0.3234
  0.3234

 Free energy of the ion-electron system (eV)
  ---------------------------------------------------
  alpha Z        PSCENC =      3894.19672547
  Ewald energy   TEWEN  =    -44108.25438120
  -Hartree energ DENC   =    -12983.27259135
  -exchange      EXHF   =         0.00000000
  -V(xc)+E(xc)   XCENC  =      2618.37799522
  PAW double counting   =     56666.52216996   -57253.13748795
  entropy T*S    EENTRO =        -0.04784871
  eigenvalues    EBANDS =     -6980.06777369
  atomic energy  EATOM  =     57179.46551250
  Solvation  Ediel_sol  =         0.00000000
  ---------------------------------------------------
  free energy    TOTEN  =      -966.21767975 eV

  energy without entropy =     -966.16983104  energy(sigma->0) =     -966.19375540


--------------------------------------------------------------------------------------------------------




--------------------------------------- Iteration      1(   7)  ---------------------------------------


    POTLOK:  cpu time    0.3410: real time    0.3418
    SETDIJ:  cpu time    0.0456: real time    0.0457
     EDDAV:  cpu time    9.4743: real time    9.4968
    CHARGE:  cpu time    0.5631: real time    0.5644
    MIXING:  cpu time    0.0074: real time    0.0074
    --------------------------------------------
      LOOP:  cpu time   10.4314: real time   10.4562

 eigenvalue-minimisations  :  2480
 total energy-change (2. order) : 0.1024451E+03  (-0.2782819E+02)
 number of electron     695.0000024 magnetization      13.6661082
 augmentation part      178.3877651 magnetization      12.4253496

 Broyden mixing:
  rms(total) = 0.67403E+01    rms(broyden)= 0.67402E+01
  rms(prec ) = 0.72340E+01
  weight for this iteration     100.00

 eigenvalues of (default mixing * dielectric matrix)
  average eigenvalue GAMMA=   0.7059
  0.7059  0.7059

 Free energy of the ion-electron system (eV)
  ---------------------------------------------------
  alpha Z        PSCENC =      3894.19672547
  Ewald energy   TEWEN  =    -44108.25438120
  -Hartree energ DENC   =    -13110.16081481
  -exchange      EXHF   =         0.00000000
  -V(xc)+E(xc)   XCENC  =      2612.04133042
  PAW double counting   =     60898.96571702   -61577.30559613
  entropy T*S    EENTRO =        -0.04187542
  eigenvalues    EBANDS =     -6652.67921221
  atomic energy  EATOM  =     57179.46551250
  Solvation  Ediel_sol  =         0.00000000
  ---------------------------------------------------
  free energy    TOTEN  =      -863.77259436 eV

  energy without entropy =     -863.73071894  energy(sigma->0) =     -863.75165665


--------------------------------------------------------------------------------------------------------




--------------------------------------- Iteration      1(   8)  ---------------------------------------


    POTLOK:  cpu time    0.3459: real time    0.3467
    SETDIJ:  cpu time    0.0457: real time    0.0458
     EDDAV:  cpu time   10.2513: real time   10.2851
    CHARGE:  cpu time    0.5603: real time    0.5617
    MIXING:  cpu time    0.0076: real time    0.0076
    --------------------------------------------
      LOOP:  cpu time   11.2107: real time   11.2470

 eigenvalue-minimisations  :  2512
 total energy-change (2. order) :-0.1633509E+03  (-0.4250957E+02)
 number of electron     695.0000030 magnetization      12.4027076
 augmentation part      139.5246694 magnetization      10.2997912

 Broyden mixing:
  rms(total) = 0.17573E+02    rms(broyden)= 0.17573E+02
  rms(prec ) = 0.22460E+02
  weight for this iteration     100.00

 eigenvalues of (default mixing * dielectric matrix)
  average eigenvalue GAMMA=   0.5630
  0.9668  0.5539  0.1683

 Free energy of the ion-electron system (eV)
  ---------------------------------------------------
  alpha Z        PSCENC =      3894.19672547
  Ewald energy   TEWEN  =    -44108.25438120
  -Hartree energ DENC   =    -13171.12406008
  -exchange      EXHF   =         0.00000000
  -V(xc)+E(xc)   XCENC  =      2605.54099673
  PAW double counting   =     67982.42059956   -68736.39508992
  entropy T*S    EENTRO =        -0.08089890
  eigenvalues    EBANDS =     -6672.89293226
  atomic energy  EATOM  =     57179.46551250
  Solvation  Ediel_sol  =         0.00000000
  ---------------------------------------------------
  free energy    TOTEN  =     -1027.12352810 eV

  energy without entropy =    -1027.04262921  energy(sigma->0) =    -1027.08307866


--------------------------------------------------------------------------------------------------------




--------------------------------------- Iteration      1(   9)  ---------------------------------------


    POTLOK:  cpu time    0.3530: real time    0.3539
    SETDIJ:  cpu time    0.0534: real time    0.0535
     EDDAV:  cpu time   10.0107: real time   10.0421
    CHARGE:  cpu time    0.5584: real time    0.5597
    MIXING:  cpu time    0.0079: real time    0.0080
    --------------------------------------------
      LOOP:  cpu time   10.9835: real time   11.0173

 eigenvalue-minimisations  :  2416
 total energy-change (2. order) : 0.1777508E+03  (-0.4976643E+01)
 number of electron     695.0000022 magnetization       7.8852190
 augmentation part      176.5810378 magnetization       6.1608788

 Broyden mixing:
  rms(total) = 0.28408E+01    rms(broyden)= 0.28399E+01
  rms(prec ) = 0.33782E+01
  weight for this iteration     100.00

 eigenvalues of (default mixing * dielectric matrix)
  average eigenvalue GAMMA=   0.8075
  1.9529  0.5673  0.5673  0.1426

 Free energy of the ion-electron system (eV)
  ---------------------------------------------------
  alpha Z        PSCENC =      3894.19672547
  Ewald energy   TEWEN  =    -44108.25438120
  -Hartree energ DENC   =    -12984.27285885
  -exchange      EXHF   =         0.00000000
  -V(xc)+E(xc)   XCENC  =      2597.51701689
  PAW double counting   =     70669.60025018   -71386.34869635
  entropy T*S    EENTRO =        -0.03679519
  eigenvalues    EBANDS =     -6711.23952007
  atomic energy  EATOM  =     57179.46551250
  Solvation  Ediel_sol  =         0.00000000
  ---------------------------------------------------
  free energy    TOTEN  =      -849.37274663 eV

  energy without entropy =     -849.33595143  energy(sigma->0) =     -849.35434903


--------------------------------------------------------------------------------------------------------




--------------------------------------- Iteration      1(  10)  ---------------------------------------


    POTLOK:  cpu time    0.3458: real time    0.3466
    SETDIJ:  cpu time    0.0461: real time    0.0462
     EDDAV:  cpu time   10.0705: real time   10.1034
    CHARGE:  cpu time    0.5689: real time    0.5702
    MIXING:  cpu time    0.0095: real time    0.0095
    --------------------------------------------
      LOOP:  cpu time   11.0408: real time   11.0760

 eigenvalue-minimisations  :  2432
 total energy-change (2. order) :-0.4421343E+01  (-0.6692225E+01)
 number of electron     695.0000024 magnetization       7.2830821
 augmentation part      173.5507331 magnetization       6.3781439

 Broyden mixing:
  rms(total) = 0.36225E+01    rms(broyden)= 0.36219E+01
  rms(prec ) = 0.49210E+01
  weight for this iteration     100.00

 eigenvalues of (default mixing * dielectric matrix)
  average eigenvalue GAMMA=   0.7020
  2.0172  0.5671  0.5671  0.1410  0.2179

 Free energy of the ion-electron system (eV)
  ---------------------------------------------------
  alpha Z        PSCENC =      3894.19672547
  Ewald energy   TEWEN  =    -44108.25438120
  -Hartree energ DENC   =    -12985.98748295
  -exchange      EXHF   =         0.00000000
  -V(xc)+E(xc)   XCENC  =      2598.70897104
  PAW double counting   =     78532.79330977   -79264.34133897
  entropy T*S    EENTRO =        -0.08847070
  eigenvalues    EBANDS =     -6700.28693450
  atomic energy  EATOM  =     57179.46551250
  Solvation  Ediel_sol  =         0.00000000
  ---------------------------------------------------
  free energy    TOTEN  =      -853.79408955 eV

  energy without entropy =     -853.70561885  energy(sigma->0) =     -853.74985420


--------------------------------------------------------------------------------------------------------




--------------------------------------- Iteration      1(  11)  ---------------------------------------


    POTLOK:  cpu time    0.3676: real time    0.3685
    SETDIJ:  cpu time    0.0563: real time    0.0564
     EDDAV:  cpu time   10.5688: real time   10.6109
    CHARGE:  cpu time    0.6014: real time    0.6040
    MIXING:  cpu time    0.0094: real time    0.0094
    --------------------------------------------
      LOOP:  cpu time   11.6034: real time   11.6492

 eigenvalue-minimisations  :  2592
 total energy-change (2. order) : 0.1884163E+01  (-0.7998708E+01)
 number of electron     695.0000021 magnetization       5.9138328
 augmentation part      173.3804448 magnetization       5.4722153

 Broyden mixing:
  rms(total) = 0.31053E+01    rms(broyden)= 0.31038E+01
  rms(prec ) = 0.37893E+01
  weight for this iteration     100.00

 eigenvalues of (default mixing * dielectric matrix)
  average eigenvalue GAMMA=   0.6925
  2.1860  0.6328  0.6328  0.4723  0.1428  0.0885

 Free energy of the ion-electron system (eV)
  ---------------------------------------------------
  alpha Z        PSCENC =      3894.19672547
  Ewald energy   TEWEN  =    -44108.25438120
  -Hartree energ DENC   =    -12994.23506935
  -exchange      EXHF   =         0.00000000
  -V(xc)+E(xc)   XCENC  =      2599.11455096
  PAW double counting   =     79063.20303402   -79796.85912255
  entropy T*S    EENTRO =        -0.03745115
  eigenvalues    EBANDS =     -6688.50372566
  atomic energy  EATOM  =     57179.46551250
  Solvation  Ediel_sol  =         0.00000000
  ---------------------------------------------------
  free energy    TOTEN  =      -851.90992697 eV

  energy without entropy =     -851.87247582  energy(sigma->0) =     -851.89120139


--------------------------------------------------------------------------------------------------------




--------------------------------------- Iteration      1(  12)  ---------------------------------------


    POTLOK:  cpu time    0.3451: real time    0.3460
    SETDIJ:  cpu time    0.0456: real time    0.0457
     EDDAV:  cpu time   10.2781: real time   10.3135
    CHARGE:  cpu time    0.6285: real time    0.6309
    MIXING:  cpu time    0.0105: real time    0.0105
    --------------------------------------------
      LOOP:  cpu time   11.3078: real time   11.3466

 eigenvalue-minimisations  :  2448
 total energy-change (2. order) : 0.1071318E+01  (-0.2458552E+01)
 number of electron     695.0000022 magnetization       5.3459029
 augmentation part      173.8809674 magnetization       5.6942030

 Broyden mixing:
  rms(total) = 0.31240E+01    rms(broyden)= 0.31236E+01
  rms(prec ) = 0.37744E+01
  weight for this iteration     100.00

 eigenvalues of (default mixing * dielectric matrix)
  average eigenvalue GAMMA=   0.6195
  2.2241  0.6492  0.6492  0.4907  0.1430  0.0900  0.0900

 Free energy of the ion-electron system (eV)
  ---------------------------------------------------
  alpha Z        PSCENC =      3894.19672547
  Ewald energy   TEWEN  =    -44108.25438120
  -Hartree energ DENC   =    -12999.12890484
  -exchange      EXHF   =         0.00000000
  -V(xc)+E(xc)   XCENC  =      2599.57041648
  PAW double counting   =     79883.31316466   -80615.76356263
  entropy T*S    EENTRO =        -0.00518826
  eigenvalues    EBANDS =     -6684.23239077
  atomic energy  EATOM  =     57179.46551250
  Solvation  Ediel_sol  =         0.00000000
  ---------------------------------------------------
  free energy    TOTEN  =      -850.83860860 eV

  energy without entropy =     -850.83342035  energy(sigma->0) =     -850.83601448


--------------------------------------------------------------------------------------------------------




--------------------------------------- Iteration      1(  13)  ---------------------------------------


    POTLOK:  cpu time    0.3927: real time    0.3937
    SETDIJ:  cpu time    0.0570: real time    0.0571
     EDDAV:  cpu time   10.4538: real time   10.4941
    CHARGE:  cpu time    0.5653: real time    0.5666
    MIXING:  cpu time    0.0100: real time    0.0101
    --------------------------------------------
      LOOP:  cpu time   11.4788: real time   11.5217

 eigenvalue-minimisations  :  2384
 total energy-change (2. order) : 0.2716061E+01  (-0.7875757E+00)
 number of electron     695.0000022 magnetization       4.4035255
 augmentation part      174.7655152 magnetization       2.3077188

 Broyden mixing:
  rms(total) = 0.13894E+01    rms(broyden)= 0.13886E+01
  rms(prec ) = 0.16450E+01
  weight for this iteration     100.00

 eigenvalues of (default mixing * dielectric matrix)
  average eigenvalue GAMMA=   0.5894
  2.2477  0.6922  0.6922  0.4397  0.3085  0.1387  0.0982  0.0982

 Free energy of the ion-electron system (eV)
  ---------------------------------------------------
  alpha Z        PSCENC =      3894.19672547
  Ewald energy   TEWEN  =    -44108.25438120
  -Hartree energ DENC   =    -13000.72577961
  -exchange      EXHF   =         0.00000000
  -V(xc)+E(xc)   XCENC  =      2599.71211015
  PAW double counting   =     80107.69769202   -80839.36912172
  entropy T*S    EENTRO =        -0.06705296
  eigenvalues    EBANDS =     -6680.77825195
  atomic energy  EATOM  =     57179.46551250
  Solvation  Ediel_sol  =         0.00000000
  ---------------------------------------------------
  free energy    TOTEN  =      -848.12254730 eV

  energy without entropy =     -848.05549434  energy(sigma->0) =     -848.08902082


--------------------------------------------------------------------------------------------------------




--------------------------------------- Iteration      1(  14)  ---------------------------------------


    POTLOK:  cpu time    0.4029: real time    0.4044
    SETDIJ:  cpu time    0.0532: real time    0.0548
     EDDAV:  cpu time   10.3815: real time   10.4274
    CHARGE:  cpu time    0.5628: real time    0.5641
    MIXING:  cpu time    0.0097: real time    0.0098
    --------------------------------------------
      LOOP:  cpu time   11.4101: real time   11.4605

 eigenvalue-minimisations  :  2368
 total energy-change (2. order) :-0.4331954E+00  (-0.1921570E+00)
 number of electron     695.0000022 magnetization       4.2920674
 augmentation part      174.6764044 magnetization       2.8685008

 Broyden mixing:
  rms(total) = 0.14929E+01    rms(broyden)= 0.14928E+01
  rms(prec ) = 0.17600E+01
  weight for this iteration     100.00

 eigenvalues of (default mixing * dielectric matrix)
  average eigenvalue GAMMA=   0.5263
  2.2476  0.6930  0.6930  0.4369  0.3178  0.1390  0.0979  0.0979  0.0140

 Free energy of the ion-electron system (eV)
  ---------------------------------------------------
  alpha Z        PSCENC =      3894.19672547
  Ewald energy   TEWEN  =    -44108.25438120
  -Hartree energ DENC   =    -13004.35775816
  -exchange      EXHF   =         0.00000000
  -V(xc)+E(xc)   XCENC  =      2599.58571003
  PAW double counting   =     80318.06890928   -81048.34670849
  entropy T*S    EENTRO =        -0.04982190
  eigenvalues    EBANDS =     -6678.86393023
  atomic energy  EATOM  =     57179.46551250
  Solvation  Ediel_sol  =         0.00000000
  ---------------------------------------------------
  free energy    TOTEN  =      -848.55574271 eV

  energy without entropy =     -848.50592081  energy(sigma->0) =     -848.53083176


--------------------------------------------------------------------------------------------------------




--------------------------------------- Iteration      1(  15)  ---------------------------------------


    POTLOK:  cpu time    0.3569: real time    0.3578
    SETDIJ:  cpu time    0.0466: real time    0.0468
     EDDAV:  cpu time   10.8197: real time   10.8540
    CHARGE:  cpu time    0.5628: real time    0.5641
    MIXING:  cpu time    0.0099: real time    0.0099
    --------------------------------------------
      LOOP:  cpu time   11.7959: real time   11.8326

 eigenvalue-minimisations  :  2592
 total energy-change (2. order) : 0.4443440E-01  (-0.4276852E-01)
 number of electron     695.0000021 magnetization       4.2466308
 augmentation part      174.4857801 magnetization       3.0293949

 Broyden mixing:
  rms(total) = 0.14704E+01    rms(broyden)= 0.14704E+01
  rms(prec ) = 0.17079E+01
  weight for this iteration     100.00

 eigenvalues of (default mixing * dielectric matrix)
  average eigenvalue GAMMA=   0.4895
  2.2492  0.6890  0.6890  0.4489  0.2937  0.1392  0.0968  0.0968  0.0963  0.0963

 Free energy of the ion-electron system (eV)
  ---------------------------------------------------
  alpha Z        PSCENC =      3894.19672547
  Ewald energy   TEWEN  =    -44108.25438120
  -Hartree energ DENC   =    -13004.89873064
  -exchange      EXHF   =         0.00000000
  -V(xc)+E(xc)   XCENC  =      2599.61056745
  PAW double counting   =     80331.08665845   -81061.21428147
  entropy T*S    EENTRO =        -0.03700768
  eigenvalues    EBANDS =     -6678.46637118
  atomic energy  EATOM  =     57179.46551250
  Solvation  Ediel_sol  =         0.00000000
  ---------------------------------------------------
  free energy    TOTEN  =      -848.51130831 eV

  energy without entropy =     -848.47430063  energy(sigma->0) =     -848.49280447


--------------------------------------------------------------------------------------------------------




--------------------------------------- Iteration      1(  16)  ---------------------------------------


    POTLOK:  cpu time    0.3459: real time    0.3468
    SETDIJ:  cpu time    0.0463: real time    0.0464
     EDDAV:  cpu time   10.3293: real time   10.3538
    CHARGE:  cpu time    0.5615: real time    0.5629
    MIXING:  cpu time    0.0100: real time    0.0100
    --------------------------------------------
      LOOP:  cpu time   11.2931: real time   11.3199

 eigenvalue-minimisations  :  2720
 total energy-change (2. order) : 0.4357060E-02  (-0.2761414E-02)
 number of electron     695.0000021 magnetization       4.4684037
 augmentation part      174.4637116 magnetization       3.2809780

 Broyden mixing:
  rms(total) = 0.14644E+01    rms(broyden)= 0.14644E+01
  rms(prec ) = 0.17001E+01
  weight for this iteration     100.00

 eigenvalues of (default mixing * dielectric matrix)
  average eigenvalue GAMMA=   0.5315
  2.2469  0.4895  0.6935  0.6935  0.4782  0.4023  0.4023  0.1413  0.0960  0.0960
  0.1067

 Free energy of the ion-electron system (eV)
  ---------------------------------------------------
  alpha Z        PSCENC =      3894.19672547
  Ewald energy   TEWEN  =    -44108.25438120
  -Hartree energ DENC   =    -13005.01681715
  -exchange      EXHF   =         0.00000000
  -V(xc)+E(xc)   XCENC  =      2599.62519272
  PAW double counting   =     80337.77782032   -81067.83693727
  entropy T*S    EENTRO =        -0.03357702
  eigenvalues    EBANDS =     -6678.43048961
  atomic energy  EATOM  =     57179.46551250
  Solvation  Ediel_sol  =         0.00000000
  ---------------------------------------------------
  free energy    TOTEN  =      -848.50695125 eV

  energy without entropy =     -848.47337423  energy(sigma->0) =     -848.49016274


--------------------------------------------------------------------------------------------------------




--------------------------------------- Iteration      1(  17)  ---------------------------------------


    POTLOK:  cpu time    0.3427: real time    0.3435
    SETDIJ:  cpu time    0.0459: real time    0.0460
     EDDAV:  cpu time    9.0917: real time    9.1133
    CHARGE:  cpu time    0.5535: real time    0.5549
    MIXING:  cpu time    0.0105: real time    0.0105
    --------------------------------------------
      LOOP:  cpu time   10.0443: real time   10.0681

 eigenvalue-minimisations  :  2352
 total energy-change (2. order) :-0.4878873E-01  (-0.1401531E-01)
 number of electron     695.0000021 magnetization       4.7922908
 augmentation part      174.4150069 magnetization       3.7396643

 Broyden mixing:
  rms(total) = 0.16367E+01    rms(broyden)= 0.16367E+01
  rms(prec ) = 0.18748E+01
  weight for this iteration     100.00

 eigenvalues of (default mixing * dielectric matrix)
  average eigenvalue GAMMA=   0.5164
  2.2473  0.6563  0.6920  0.6920  0.4740  0.4009  0.4009  0.2038  0.1403  0.0967
  0.0967  0.0961

 Free energy of the ion-electron system (eV)
  ---------------------------------------------------
  alpha Z        PSCENC =      3894.19672547
  Ewald energy   TEWEN  =    -44108.25438120
  -Hartree energ DENC   =    -13006.43306316
  -exchange      EXHF   =         0.00000000
  -V(xc)+E(xc)   XCENC  =      2599.51585998
  PAW double counting   =     80352.34965023   -81082.74938372
  entropy T*S    EENTRO =        -0.04116910
  eigenvalues    EBANDS =     -6676.60549097
  atomic energy  EATOM  =     57179.46551250
  Solvation  Ediel_sol  =         0.00000000
  ---------------------------------------------------
  free energy    TOTEN  =      -848.55573998 eV

  energy without entropy =     -848.51457088  energy(sigma->0) =     -848.53515543


--------------------------------------------------------------------------------------------------------




--------------------------------------- Iteration      1(  18)  ---------------------------------------


    POTLOK:  cpu time    0.3427: real time    0.3435
    SETDIJ:  cpu time    0.0460: real time    0.0461
     EDDAV:  cpu time    9.3142: real time    9.3363
    CHARGE:  cpu time    0.5394: real time    0.5407
    MIXING:  cpu time    0.0109: real time    0.0110
    --------------------------------------------
      LOOP:  cpu time   10.2532: real time   10.2775

 eigenvalue-minimisations  :  2384
 total energy-change (2. order) : 0.4184891E-01  (-0.9621354E-02)
 number of electron     695.0000021 magnetization       4.5427380
 augmentation part      174.5473952 magnetization       3.2553205

 Broyden mixing:
  rms(total) = 0.16512E+01    rms(broyden)= 0.16512E+01
  rms(prec ) = 0.18993E+01
  weight for this iteration     100.00

 eigenvalues of (default mixing * dielectric matrix)
  average eigenvalue GAMMA=   0.5631
  2.2526  0.7226  0.7226  0.6903  0.6903  0.4784  0.4784  0.4695  0.3811  0.1409
  0.0964  0.0964  0.1005

 Free energy of the ion-electron system (eV)
  ---------------------------------------------------
  alpha Z        PSCENC =      3894.19672547
  Ewald energy   TEWEN  =    -44108.25438120
  -Hartree energ DENC   =    -13006.32707079
  -exchange      EXHF   =         0.00000000
  -V(xc)+E(xc)   XCENC  =      2599.48515410
  PAW double counting   =     80366.87824671   -81097.59816494
  entropy T*S    EENTRO =        -0.04848554
  eigenvalues    EBANDS =     -6676.31142737
  atomic energy  EATOM  =     57179.46551250
  Solvation  Ediel_sol  =         0.00000000
  ---------------------------------------------------
  free energy    TOTEN  =      -848.51389107 eV

  energy without entropy =     -848.46540553  energy(sigma->0) =     -848.48964830


--------------------------------------------------------------------------------------------------------




--------------------------------------- Iteration      1(  19)  ---------------------------------------


    POTLOK:  cpu time    0.3417: real time    0.3425
    SETDIJ:  cpu time    0.0459: real time    0.0460
     EDDAV:  cpu time    8.9224: real time    8.9436
    CHARGE:  cpu time    0.5443: real time    0.5456
    MIXING:  cpu time    0.0113: real time    0.0114
    --------------------------------------------
      LOOP:  cpu time    9.8657: real time    9.8890

 eigenvalue-minimisations  :  2288
 total energy-change (2. order) : 0.5008161E-02  (-0.2822119E-02)
 number of electron     695.0000021 magnetization       4.4315101
 augmentation part      174.5105332 magnetization       3.2018234

 Broyden mixing:
  rms(total) = 0.16014E+01    rms(broyden)= 0.16014E+01
  rms(prec ) = 0.18436E+01
  weight for this iteration     100.00

 eigenvalues of (default mixing * dielectric matrix)
  average eigenvalue GAMMA=   0.6310
  2.2528  1.2086  1.2086  0.6963  0.6963  0.5483  0.5483  0.4631  0.3884  0.3884
  0.1409  0.0964  0.0964  0.1007

 Free energy of the ion-electron system (eV)
  ---------------------------------------------------
  alpha Z        PSCENC =      3894.19672547
  Ewald energy   TEWEN  =    -44108.25438120
  -Hartree energ DENC   =    -13006.20804171
  -exchange      EXHF   =         0.00000000
  -V(xc)+E(xc)   XCENC  =      2599.52863861
  PAW double counting   =     80372.33675630   -81102.88834333
  entropy T*S    EENTRO =        -0.04796130
  eigenvalues    EBANDS =     -6676.63778824
  atomic energy  EATOM  =     57179.46551250
  Solvation  Ediel_sol  =         0.00000000
  ---------------------------------------------------
  free energy    TOTEN  =      -848.50888291 eV

  energy without entropy =     -848.46092161  energy(sigma->0) =     -848.48490226


--------------------------------------------------------------------------------------------------------




--------------------------------------- Iteration      1(  20)  ---------------------------------------


    POTLOK:  cpu time    0.3412: real time    0.3420
    SETDIJ:  cpu time    0.0457: real time    0.0458
     EDDAV:  cpu time    9.2663: real time    9.2883
    CHARGE:  cpu time    0.5387: real time    0.5399
    MIXING:  cpu time    0.0118: real time    0.0118
    --------------------------------------------
      LOOP:  cpu time   10.2037: real time   10.2278

 eigenvalue-minimisations  :  2352
 total energy-change (2. order) :-0.1182316E-01  (-0.5478952E-03)
 number of electron     695.0000021 magnetization       1.5519977
 augmentation part      174.4910371 magnetization       0.3442409

 Broyden mixing:
  rms(total) = 0.15914E+01    rms(broyden)= 0.15914E+01
  rms(prec ) = 0.18317E+01
  weight for this iteration     100.00

 eigenvalues of (default mixing * dielectric matrix)
  average eigenvalue GAMMA=   0.7330
  2.2542  1.8323  1.8323  0.7204  0.7204  0.6734  0.6734  0.4829  0.4829  0.5012
[...]
     11.69212      5.02928      6.81230         0.046657     -0.078404     -0.073065
      4.42174     10.10884      5.96194         0.225966      0.036509     -0.196251
      4.36823      5.04450      4.24670         0.009561     -0.091755      0.044676
      5.82314     10.12235      3.40037         0.011460      0.024307      0.056709
      5.81503     15.17073      5.08237        -0.000655     -0.002308      0.002916
      8.73676     -0.00952      5.07481         0.000655      0.002308     -0.002916
      8.72865      5.03886      6.75681        -0.011460     -0.024307     -0.056709
     10.18356     10.11671      5.91048        -0.009561      0.091755     -0.044676
      2.91015     -0.00152      5.07974        -0.000000     -0.000000      0.000000
      8.73732      7.57701     -0.00641         0.025959      0.001312      0.005210
      8.73253     12.67234      1.68769        -0.001715      0.028193      0.000319
      1.45403      2.49116      0.84988         0.001715     -0.028193     -0.000319
      7.32410      7.53127      7.58670         0.007731     -0.021595     -0.040686
      2.89926     12.67661      1.68889        -0.008477      0.024160     -0.022303
      4.36713      2.56703      0.78861         0.000565     -0.009484     -0.003313
     10.15599      7.61439      7.53109        -0.001694     -0.002478     -0.026159
      5.81943     12.59647      1.74897        -0.000565      0.009484      0.003313
      7.28730      2.48689      0.84869         0.008477     -0.024160      0.022303
      7.22769      7.62994      2.57048        -0.007731      0.021595      0.040686
      7.22636     12.76392      4.28109        -0.012547      0.086282      0.045585
      8.73742      2.38189      3.46122        -0.013986     -0.073205      0.068176
      1.44925      7.58648      2.54399        -0.025959     -0.001312     -0.005210
     10.18573     12.81480      4.34211        -0.010304      0.107980      0.032574
      2.94099      2.42232      3.47873         0.000538     -0.034485      0.053252
      4.39580      7.54682      2.62609         0.001694      0.002478      0.026159
      4.40518     12.77256      4.28592         0.011603      0.117982      0.059767
      5.79430      2.42187      3.47647         0.017772     -0.040963      0.054875
      5.76235      7.53501      5.00864        -0.017084     -0.039175      0.002904
      5.81437     12.77932      6.69597         0.013986      0.073205     -0.068176
      7.32543      2.39729      5.87609         0.012547     -0.086282     -0.045585
      8.78944      7.62620      5.14854         0.017084      0.039175     -0.002904
      8.75749     12.73934      6.68071        -0.017772      0.040963     -0.054875
     10.14661      2.38865      5.87126        -0.011603     -0.117982     -0.059767
      2.90438      7.58392      5.08220        -0.000000     -0.000000      0.000000
     11.61080     12.73889      6.67846        -0.000538      0.034485     -0.053252
      4.36606      2.34641      5.81508         0.010304     -0.107980     -0.032574
     13.08481     11.41997      7.59031        -0.091204     -0.224339     -0.047367
      4.36217      3.68672      7.61742         0.003430      0.048029      0.006340
      8.74128      1.38331      1.76257         0.005314      0.060157     -0.004250
      8.73649      8.75112      1.70128         0.033320     -0.043287     -0.012880
      1.45008      6.41237      0.83629        -0.033320      0.043287      0.012880
      1.44529     13.78019      0.77500        -0.005314     -0.060157      0.004250
      7.27679     11.44414      7.60139         0.016429     -0.086164     -0.023988
      7.29482      3.81265      7.62315         0.030047     -0.068685      0.012250
      2.91809      1.40372      1.76449        -0.000536      0.056090     -0.007932
      2.92514      8.76385      1.71072         0.026994      0.060567      0.048582
      4.36283      6.24352      0.86811        -0.013887      0.078262      0.055495
      4.36387     13.75825      0.77709        -0.001920     -0.041266      0.012641
     10.18163     11.25235      7.63041        -0.030162     -0.022194      0.006090
     10.17482      3.84652      7.61737        -0.013142      0.124585      0.017881
      5.82269      1.40524      1.76048         0.001920      0.041266     -0.012641
      5.82373      8.91997      1.66946         0.013887     -0.078262     -0.055495
      7.26143      6.39964      0.82685        -0.026994     -0.060567     -0.048582
      7.26847     13.75978      0.77309         0.000536     -0.056090      0.007932
      7.25697     11.34856      2.53404        -0.030047      0.068685     -0.012250
      7.27500      3.71707      2.55579        -0.016429      0.086164      0.023988
      7.28254      1.13466      4.16286        -0.003093     -0.002370     -0.012333
      7.30379      8.93401      4.25277        -0.004256      0.001541     -0.015057
      8.73104      6.42852      3.38180        -0.010040      0.065219     -0.047156
      8.72886     13.98989      3.35258         0.003088      0.016586     -0.021987
     10.18962     11.47449      2.53976        -0.003430     -0.048029     -0.006340
      1.46698      3.74124      2.56688         0.091204      0.224339      0.047367
     10.19750      1.13175      4.16105         0.011358      0.006504     -0.013675
     10.19773      8.86916      4.24778         0.035103      0.004575     -0.062011
      2.91063      6.27035      3.38812        -0.063816     -0.242694     -0.029284
      2.90423     13.99607      3.35923         0.001576      0.013756     -0.020853
      4.37697     11.31469      2.53982         0.013142     -0.124585     -0.017881
      4.37016      3.90886      2.52677         0.030162      0.022194     -0.006090
      4.36834      1.15213      4.16182        -0.000176     -0.004633     -0.010706
      4.33276      8.92594      4.25675        -0.015280     -0.055732      0.014843
      5.81417      6.30931      3.37843         0.040178     -0.028964     -0.026046
      5.81332     13.99441      3.35740        -0.002343      0.021035     -0.025196
      5.81165     11.37564      5.06454        -0.009458      0.168119      0.046292
      5.85502      3.87018      5.10306         0.008791      0.033113      0.006690
      5.82293      1.17132      6.80461        -0.003088     -0.016586      0.021987
      5.82075      8.73270      6.77539         0.010040     -0.065219      0.047156
      7.24800      6.22720      5.90442         0.004256     -0.001541      0.015057
      7.26925     14.02655      5.99433         0.003093      0.002370      0.012333
      8.69677     11.29103      5.05413        -0.008791     -0.033113     -0.006690
      8.74014      3.78557      5.09264         0.009458     -0.168119     -0.046292
      8.73847      1.16680      6.79978         0.002343     -0.021035      0.025196
      8.73762      8.85190      6.77875        -0.040178      0.028964      0.026046
     10.21903      6.23527      5.90043         0.015280      0.055732     -0.014843
     10.18345     14.00908      5.99536         0.000176      0.004633      0.010706
     11.67354     11.29142      5.04835         0.026719      0.007052     -0.036421
      2.87825      3.86979      5.10883        -0.026719     -0.007052      0.036421
     11.64756      1.16514      6.79795        -0.001576     -0.013756      0.020853
     11.64116      8.89086      6.76906         0.063816      0.242694      0.029284
      4.35406      6.29205      5.90941        -0.035103     -0.004575      0.062011
      4.35429     14.02946      5.99614        -0.011358     -0.006504      0.013675
 -----------------------------------------------------------------------------------
    total drift:                               -0.000548      0.000089     -0.000621


--------------------------------------------------------------------------------------------------------



  FREE ENERGIE OF THE ION-ELECTRON SYSTEM (eV)
  ---------------------------------------------------
  free  energy   TOTEN  =      -855.1996951492 eV

  energy  without entropy=     -855.1564298009  energy(sigma->0) =     -855.17806248
 
 d Force = 0.3111702E-01[ 0.335E-01, 0.287E-01]  d Energy = 0.3167268E-01-0.556E-03
 d Force =-0.3057127E+01[-0.321E+01,-0.291E+01]  d Ewald  =-0.1275253E+02 0.970E+01


--------------------------------------------------------------------------------------------------------


    POTLOK:  cpu time    0.3950: real time    0.3959


--------------------------------------------------------------------------------------------------------


 Quasi-Newton relaxation of ions (Broydens 2nd method)
  g(Force)  = 0.535E-01   g(Stress)= 0.132E-02

 retain information from N=  2 steps
 eigenvalues of (default step * inverse Hessian matrix)
  average eigenvalue of G=   0.2322
 eigenvalue spectrum of G is  0.2657  0.1986


--------------------------------------------------------------------------------------------------------


     LOOP+:  cpu time  128.3671: real time  128.7820
    4ORBIT:  cpu time    0.0000: real time    0.0000

volume of typ            1:    19.9 %

volume of typ            2:     4.4 %

volume of typ            3:    20.8 %

volume of typ            4:     8.7 %
 
total charge     
 
# of ion       s       p       d       tot
------------------------------------------
    1        0.240   6.097   2.185   8.523
    2        0.213   6.051   2.327   8.591
    3        0.213   6.051   2.327   8.591
    4        0.240   6.097   2.187   8.525
    5        0.241   6.103   2.123   8.466
    6        0.240   6.103   2.122   8.466
    7        0.240   6.097   2.190   8.527
    8        0.240   6.103   2.122   8.466
    9        0.241   6.103   2.123   8.466
   10        0.240   6.097   2.187   8.525
   11        0.236   6.095   2.144   8.475
   12        0.236   6.095   2.142   8.473
   13        0.240   6.097   2.185   8.523
   14        0.239   6.100   2.126   8.466
   15        0.239   6.100   2.124   8.464
   16        0.240   6.097   2.190   8.527
   17        0.236   6.095   2.142   8.473
   18        0.236   6.095   2.144   8.475
   19        0.239   6.100   2.124   8.464
   20        0.239   6.100   2.126   8.466
   21        0.199   0.224   8.011   8.433
   22        0.197   0.225   8.015   8.437
   23        0.207   0.229   7.929   8.366
   24        0.207   0.229   7.929   8.366
   25        0.197   0.225   8.015   8.437
   26        0.199   0.224   8.011   8.433
   27        0.207   0.228   7.929   8.364
   28        2.085   0.292   0.122   2.499
   29        2.084   0.288   0.119   2.491
   30        2.084   0.288   0.119   2.491
   31        2.079   0.269   0.110   2.458
   32        2.084   0.288   0.119   2.491
   33        2.078   0.268   0.108   2.454
   34        2.075   0.253   0.100   2.428
   35        2.078   0.268   0.108   2.454
   36        2.084   0.288   0.119   2.491
   37        2.079   0.269   0.110   2.458
   38        2.067   0.229   0.087   2.383
   39        2.087   0.292   0.119   2.497
   40        2.085   0.292   0.122   2.499
   41        2.068   0.230   0.087   2.385
   42        2.081   0.271   0.107   2.458
   43        2.075   0.253   0.100   2.428
   44        2.067   0.230   0.087   2.384
   45        2.081   0.272   0.108   2.460
   46        2.075   0.253   0.100   2.427
   47        2.087   0.292   0.119   2.497
   48        2.067   0.229   0.087   2.383
   49        2.075   0.253   0.100   2.427
   50        2.081   0.272   0.108   2.460
   51        2.067   0.230   0.087   2.384
   52        2.074   0.253   0.098   2.425
   53        2.081   0.271   0.107   2.458
   54        2.068   0.230   0.087   2.385
   55        1.249   2.835   0.007   4.091
   56        1.247   2.836   0.007   4.090
   57        1.244   2.857   0.007   4.107
   58        1.245   2.844   0.007   4.096
   59        1.245   2.844   0.007   4.096
   60        1.244   2.857   0.007   4.107
   61        1.249   2.835   0.007   4.091
   62        1.248   2.833   0.006   4.087
   63        1.244   2.851   0.007   4.102
   64        1.245   2.839   0.007   4.091
   65        1.245   2.838   0.005   4.089
   66        1.244   2.851   0.007   4.101
   67        1.247   2.836   0.006   4.089
   68        1.248   2.834   0.006   4.088
   69        1.244   2.851   0.007   4.101
   70        1.245   2.838   0.005   4.089
   71        1.245   2.839   0.007   4.091
   72        1.244   2.851   0.007   4.102
   73        1.248   2.833   0.006   4.087
   74        1.249   2.835   0.007   4.091
   75        1.242   2.832   0.004   4.078
   76        1.245   2.837   0.005   4.087
   77        1.245   2.839   0.007   4.091
   78        1.243   2.842   0.005   4.091
   79        1.247   2.836   0.007   4.090
   80        1.249   2.835   0.007   4.091
   81        1.242   2.832   0.004   4.078
   82        1.246   2.835   0.006   4.087
   83        1.246   2.835   0.005   4.086
   84        1.243   2.842   0.005   4.091
   85        1.248   2.834   0.006   4.088
   86        1.247   2.836   0.006   4.089
   87        1.240   2.837   0.004   4.081
   88        1.244   2.842   0.005   4.091
   89        1.244   2.841   0.005   4.091
   90        1.243   2.846   0.005   4.094
   91        1.247   2.832   0.006   4.085
   92        1.245   2.832   0.005   4.083
   93        1.243   2.842   0.005   4.091
   94        1.245   2.839   0.007   4.091
   95        1.245   2.837   0.005   4.087
   96        1.242   2.832   0.004   4.078
   97        1.245   2.832   0.005   4.083
   98        1.247   2.832   0.006   4.085
   99        1.243   2.846   0.005   4.094
  100        1.244   2.841   0.005   4.091
  101        1.244   2.842   0.005   4.091
  102        1.240   2.837   0.004   4.081
  103        1.246   2.833   0.005   4.085
  104        1.246   2.833   0.005   4.085
  105        1.243   2.842   0.005   4.091
  106        1.246   2.835   0.005   4.086
  107        1.246   2.835   0.006   4.087
  108        1.242   2.832   0.004   4.078
--------------------------------------------------
tot         129.47  283.88  102.34  515.69
 
magnetization (x)
 
# of ion       s       p       d       tot
------------------------------------------
    1        0.000  -0.000  -0.029  -0.029
    2       -0.000  -0.000  -0.013  -0.014
    3       -0.000  -0.000  -0.013  -0.014
    4        0.000  -0.000  -0.030  -0.031
    5        0.001   0.001   0.041   0.042
    6        0.001   0.001   0.067   0.069
    7       -0.000  -0.001  -0.036  -0.036
    8        0.001   0.001   0.067   0.069
    9        0.001   0.001   0.041   0.042
   10        0.000  -0.000  -0.030  -0.031
   11       -0.000   0.000  -0.040  -0.040
   12       -0.000   0.000  -0.020  -0.020
   13        0.000  -0.000  -0.029  -0.029
   14        0.000   0.000   0.017   0.018
   15        0.001   0.001   0.067   0.068
   16       -0.000  -0.001  -0.036  -0.036
   17       -0.000   0.000  -0.020  -0.020
   18       -0.000   0.000  -0.040  -0.040
   19        0.001   0.001   0.067   0.068
   20        0.000   0.000   0.017   0.018
   21       -0.002  -0.001  -1.267  -1.270
   22       -0.002  -0.001  -1.250  -1.253
   23       -0.002   0.000  -1.478  -1.480
   24       -0.002   0.000  -1.478  -1.480
   25       -0.002  -0.001  -1.250  -1.253
   26       -0.002  -0.001  -1.267  -1.270
   27       -0.002   0.000  -1.481  -1.482
   28       -0.002  -0.003  -0.001  -0.006
   29       -0.002  -0.004  -0.001  -0.007
   30       -0.002  -0.004  -0.001  -0.007
   31       -0.001  -0.002  -0.000  -0.003
   32       -0.002  -0.003  -0.001  -0.006
   33       -0.001  -0.003  -0.001  -0.005
   34       -0.001  -0.001  -0.000  -0.002
   35       -0.001  -0.003  -0.001  -0.005
   36       -0.002  -0.003  -0.001  -0.006
   37       -0.001  -0.002  -0.000  -0.003
   38       -0.000  -0.000  -0.000  -0.001
   39       -0.004  -0.007  -0.002  -0.013
   40       -0.002  -0.003  -0.001  -0.006
   41        0.000   0.001   0.000   0.002
   42       -0.003  -0.005  -0.001  -0.009
   43       -0.001  -0.001  -0.000  -0.002
   44       -0.000  -0.000  -0.000  -0.001
   45       -0.003  -0.005  -0.001  -0.009
   46       -0.000  -0.001  -0.000  -0.002
   47       -0.004  -0.007  -0.002  -0.013
   48       -0.000  -0.000  -0.000  -0.001
   49       -0.000  -0.001  -0.000  -0.002
   50       -0.003  -0.005  -0.001  -0.009
   51       -0.000  -0.000  -0.000  -0.001
   52       -0.001  -0.003  -0.001  -0.005
   53       -0.003  -0.005  -0.001  -0.009
   54        0.000   0.001   0.000   0.002
   55       -0.000   0.004   0.000   0.004
   56       -0.000  -0.001  -0.000  -0.001
   57       -0.000  -0.002  -0.000  -0.002
   58       -0.000  -0.001  -0.000  -0.001
   59       -0.000  -0.001  -0.000  -0.001
   60       -0.000  -0.002  -0.000  -0.002
   61       -0.000  -0.002  -0.000  -0.003
   62       -0.004  -0.045  -0.000  -0.049
   63       -0.000  -0.004  -0.000  -0.004
   64        0.000   0.008   0.000   0.008
   65       -0.003  -0.043  -0.000  -0.046
   66       -0.000  -0.005  -0.000  -0.005
   67       -0.003  -0.044  -0.000  -0.047
   68       -0.003  -0.029   0.000  -0.033
   69       -0.000  -0.005  -0.000  -0.005
   70       -0.003  -0.043  -0.000  -0.046
   71        0.000   0.008   0.000   0.008
   72       -0.000  -0.004  -0.000  -0.004
   73       -0.004  -0.045  -0.000  -0.049
   74       -0.000  -0.002  -0.000  -0.003
   75       -0.009  -0.103  -0.000  -0.112
   76       -0.003  -0.037  -0.000  -0.040
   77       -0.000  -0.004  -0.000  -0.004
   78       -0.005  -0.057  -0.000  -0.062
   79       -0.000  -0.001  -0.000  -0.001
   80       -0.000   0.004   0.000   0.004
   81       -0.009  -0.102  -0.000  -0.111
   82       -0.004  -0.050  -0.000  -0.053
   83       -0.004  -0.035  -0.000  -0.039
   84       -0.005  -0.057  -0.000  -0.062
   85       -0.003  -0.029   0.000  -0.033
   86       -0.003  -0.044  -0.000  -0.047
   87       -0.009  -0.100  -0.000  -0.110
   88       -0.003  -0.040  -0.000  -0.043
   89       -0.004  -0.047  -0.000  -0.051
   90       -0.005  -0.057  -0.000  -0.062
   91       -0.004  -0.049  -0.000  -0.053
   92       -0.003  -0.037  -0.000  -0.041
   93       -0.005  -0.057  -0.000  -0.062
   94       -0.000  -0.004  -0.000  -0.004
   95       -0.003  -0.037  -0.000  -0.040
   96       -0.009  -0.103  -0.000  -0.112
   97       -0.003  -0.037  -0.000  -0.041
   98       -0.004  -0.049  -0.000  -0.053
   99       -0.005  -0.057  -0.000  -0.062
  100       -0.004  -0.047  -0.000  -0.051
  101       -0.003  -0.040  -0.000  -0.043
  102       -0.009  -0.100  -0.000  -0.110
  103       -0.003  -0.042  -0.000  -0.045
  104       -0.003  -0.042  -0.000  -0.045
  105       -0.005  -0.057  -0.000  -0.062
  106       -0.004  -0.035  -0.000  -0.039
  107       -0.004  -0.050  -0.000  -0.053
  108       -0.009  -0.102  -0.000  -0.111
--------------------------------------------------
tot          -0.22   -2.03   -9.45  -11.70
 

 total amount of memory used by VASP MPI-rank0   176128. kBytes
=======================================================================

   base      :      30000. kBytes
   nonlr-proj:      48854. kBytes
   fftplans  :      11817. kBytes
   grid      :      71572. kBytes
   one-center:       1679. kBytes
   wavefun   :      12206. kBytes
 
  
  
 General timing and accounting informations for this job:
 ========================================================
  
                  Total CPU time used (sec):     3418.153
                            User time (sec):     3397.965
                          System time (sec):       20.188
                         Elapsed time (sec):     3433.234
  
                   Maximum memory used (kb):      245668.
                   Average memory used (kb):           0.
  
                          Minor page faults:        42567
                          Major page faults:           39
                 Voluntary context switches:         1416
