 vasp.5.4.4.18Apr17-6-g9f103f2a35 (build May 12 2020 05:39:39) gamma-only       
  
 MD_VERSION_INFO: Compiled 2020-05-12T12:39:39-UTC in devlin.sd.materialsdesign.
 com:/home/medea2/data/build/wwolf/vasp-gpu5.4.4/13047/x86_64/src/src/build/gam 
 from svn 13047
 
 This VASP executable licensed from Materials Design, Inc.
 
 executed on                        Lin64 date 2023.04.01  14:46:49
 running on   16 total cores
 distrk:  each k-point on   16 cores,    1 groups
 distr:  one band on NCORES_PER_BAND=   1 cores,   16 groups


--------------------------------------------------------------------------------------------------------


 INCAR:
 POTCAR:    PAW_PBE Ta_pv 07Sep2000               
 POTCAR:    PAW_PBE Ni 02Aug2007                  
 POTCAR:    PAW_PBE Li_sv 10Sep2004               
 POTCAR:    PAW_PBE O 08Apr2002                   

 ----------------------------------------------------------------------------- 
|                                                                             |
|           W    W    AA    RRRRR   N    N  II  N    N   GGGG   !!!           |
|           W    W   A  A   R    R  NN   N  II  NN   N  G    G  !!!           |
|           W    W  A    A  R    R  N N  N  II  N N  N  G       !!!           |
|           W WW W  AAAAAA  RRRRR   N  N N  II  N  N N  G  GGG   !            |
|           WW  WW  A    A  R   R   N   NN  II  N   NN  G    G                |
|           W    W  A    A  R    R  N    N  II  N    N   GGGG   !!!           |
|                                                                             |
|      For optimal performance we recommend to set                            |
|        NCORE= 4 - approx SQRT( number of cores)                             |
|      NCORE specifies how many cores store one orbital (NPAR=cpu/NCORE).     |
|      This setting can  greatly improve the performance of VASP for DFT.     |
|      The default,   NCORE=1            might be grossly inefficient         |
|      on modern multi-core architectures or massively parallel machines.     |
|      Do your own testing !!!!                                               |
|      Unfortunately you need to use the default for GW and RPA calculations. |
|      (for HF NCORE is supported but not extensively tested yet)             |
|                                                                             |
 ----------------------------------------------------------------------------- 

 POTCAR:    PAW_PBE Ta_pv 07Sep2000               
  local pseudopotential read in
  partial core-charges read in
  partial kinetic energy density read in
  atomic valenz-charges read in
  non local Contribution for L=           1  read in
    real space projection operators read in
  non local Contribution for L=           1  read in
    real space projection operators read in
  non local Contribution for L=           2  read in
    real space projection operators read in
  non local Contribution for L=           2  read in
    real space projection operators read in
  non local Contribution for L=           0  read in
    real space projection operators read in
  non local Contribution for L=           0  read in
    real space projection operators read in
    PAW grid and wavefunctions read in
 
   number of l-projection  operators is LMAX  =           6
   number of lm-projection operators is LMMAX =          18
 
 POTCAR:    PAW_PBE Ni 02Aug2007                  
  local pseudopotential read in
  partial core-charges read in
  partial kinetic energy density read in
  atomic valenz-charges read in
  non local Contribution for L=           2  read in
    real space projection operators read in
  non local Contribution for L=           2  read in
    real space projection operators read in
  non local Contribution for L=           0  read in
    real space projection operators read in
  non local Contribution for L=           0  read in
    real space projection operators read in
  non local Contribution for L=           1  read in
    real space projection operators read in
  non local Contribution for L=           1  read in
    real space projection operators read in
    PAW grid and wavefunctions read in
 
   number of l-projection  operators is LMAX  =           6
   number of lm-projection operators is LMMAX =          18
 
 POTCAR:    PAW_PBE Li_sv 10Sep2004               
  local pseudopotential read in
  atomic valenz-charges read in
  non local Contribution for L=           0  read in
    real space projection operators read in
  non local Contribution for L=           0  read in
    real space projection operators read in
  non local Contribution for L=           1  read in
    real space projection operators read in
    PAW grid and wavefunctions read in
 
   number of l-projection  operators is LMAX  =           3
   number of lm-projection operators is LMMAX =           5
 
 POTCAR:    PAW_PBE O 08Apr2002                   
  local pseudopotential read in
  partial core-charges read in
  partial kinetic energy density read in
  kinetic energy density of atom read in
  atomic valenz-charges read in
  non local Contribution for L=           0  read in
    real space projection operators read in
  non local Contribution for L=           0  read in
    real space projection operators read in
  non local Contribution for L=           1  read in
    real space projection operators read in
  non local Contribution for L=           1  read in
    real space projection operators read in
    PAW grid and wavefunctions read in
 
   number of l-projection  operators is LMAX  =           4
   number of lm-projection operators is LMMAX =           8
 
 Optimization of the real space projectors (new method)

 maximal supplied QI-value         = 15.12
 optimisation between [QCUT,QGAM] = [ 11.34, 22.83] = [ 36.00,145.93] Ry 
 Optimized for a Real-space Cutoff    1.61 Angstroem

   l    n(q)    QCUT    max X(q) W(low)/X(q) W(high)/X(q)  e(spline) 
   1     11    11.338     4.092    0.40E-05    0.64E-05    0.47E-07
   1     11    11.338     4.834    0.13E-04    0.44E-04    0.21E-06
   2     10    11.338    62.294    0.15E-03    0.31E-03    0.77E-06
   2     10    11.338    50.966    0.15E-03    0.31E-03    0.77E-06
   0     11    11.338   103.792    0.33E-04    0.19E-04    0.90E-07
   0     11    11.338    56.335    0.26E-04    0.17E-04    0.79E-07
 Optimization of the real space projectors (new method)

 maximal supplied QI-value         = 16.25
 optimisation between [QCUT,QGAM] = [ 11.38, 22.75] = [ 36.24,144.96] Ry 
 Optimized for a Real-space Cutoff    1.47 Angstroem

   l    n(q)    QCUT    max X(q) W(low)/X(q) W(high)/X(q)  e(spline) 
   2      9    11.376    60.317    0.17E-03    0.16E-04    0.16E-06
   2      9    11.376    55.921    0.17E-03    0.16E-04    0.17E-06
   0     10    11.376    51.690    0.45E-04    0.60E-04    0.21E-06
   0     10    11.376    30.015    0.37E-04    0.55E-04    0.19E-06
   1     10    11.376    18.849    0.83E-04    0.11E-03    0.92E-07
   1     10    11.376    14.624    0.69E-04    0.92E-04    0.82E-07
 Optimization of the real space projectors (new method)

 maximal supplied QI-value         = 22.11
 optimisation between [QCUT,QGAM] = [ 11.28, 22.77] = [ 35.61,145.23] Ry 
 Optimized for a Real-space Cutoff    1.10 Angstroem

   l    n(q)    QCUT    max X(q) W(low)/X(q) W(high)/X(q)  e(spline) 
   0      7    11.276    10.506    0.54E-04    0.58E-04    0.16E-07
   0      7    11.276     8.367    0.11E-03    0.14E-03    0.35E-07
   1      7    11.276     8.983    0.23E-03    0.43E-03    0.86E-07
 Optimization of the real space projectors (new method)

 maximal supplied QI-value         = 24.76
 optimisation between [QCUT,QGAM] = [ 11.39, 22.77] = [ 36.31,145.25] Ry 
 Optimized for a Real-space Cutoff    1.10 Angstroem

   l    n(q)    QCUT    max X(q) W(low)/X(q) W(high)/X(q)  e(spline) 
   0      7    11.387    20.381    0.22E-03    0.48E-03    0.18E-06
   0      7    11.387    15.268    0.22E-03    0.52E-03    0.19E-06
   1      7    11.387     5.964    0.22E-03    0.73E-03    0.24E-06
   1      7    11.387     5.382    0.19E-03    0.60E-03    0.21E-06

 ----------------------------------------------------------------------------- 
|                                                                             |
|  ADVICE TO THIS USER RUNNING 'VASP/VAMP'   (HEAR YOUR MASTER'S VOICE ...):  |
|                                                                             |
|      You enforced a specific xc-type in the INCAR file,                     |
|      a different type was found on the POTCAR file                          |
|          I HOPE YOU KNOW, WHAT YOU ARE  DOING                               |
|                                                                             |
 ----------------------------------------------------------------------------- 

  PAW_PBE Ta_pv 07Sep2000               :
 energy of atom  1       EATOM=-1047.1984
 kinetic energy error for atom=    0.0019 (will be added to EATOM!!)
  PAW_PBE Ni 02Aug2007                  :
 energy of atom  2       EATOM=-1077.6739
 kinetic energy error for atom=    0.0030 (will be added to EATOM!!)
  PAW_PBE Li_sv 10Sep2004               :
 energy of atom  3       EATOM= -202.7858
 kinetic energy error for atom=    0.0143 (will be added to EATOM!!)
  PAW_PBE O 08Apr2002                   :
 energy of atom  4       EATOM= -432.3788
 kinetic energy error for atom=    0.0224 (will be added to EATOM!!)
 
 
 POSCAR: ce8_1                                   
  positions in direct lattice
  No initial velocities read in
 exchange correlation table for  LEXCH =       14
   RHO(1)=    0.500       N(1)  =     2000
   RHO(2)=  100.500       N(2)  =     4000
 


--------------------------------------------------------------------------------------------------------


 ion  position               nearest neighbor table
   1  0.000  1.000  1.000-  57 2.13  72 2.14  60 2.14 108 2.14 105 2.15  93 2.15  24 2.88  19 2.88
                             7 2.88   4 2.88  10 2.89  13 2.89  54 3.08  29 3.10
   2  0.889  0.333  0.222-  74 2.16  80 2.16  56 2.16  71 2.17  59 2.17  77 2.17  11 2.85  14 2.85
                             8 2.85   5 2.85  25 2.85  20 2.85  39 3.07  36 3.07  30 3.07
   3  0.111  0.667  0.119-  94 2.11  55 2.11  61 2.13  58 2.13  64 2.16  79 2.16  15 2.74  12 2.85
                             6 2.85  27 2.95  21 2.95   9 2.96  40 3.06  32 3.06  29 3.08  47 3.09
   4  0.333  0.000  1.000-  93 2.14  63 2.14  96 2.15  60 2.15  66 2.15  99 2.15  13 2.88  19 2.88
                            22 2.88   1 2.88  16 2.88   7 2.89  32 3.09  50 3.09  30 3.10
   5  0.214  0.333  0.231-  65 2.10  62 2.11  86 2.13  59 2.13  80 2.16  83 2.16  14 2.74  17 2.85
                             2 2.85  20 2.95  26 2.96   8 2.96  40 3.05  42 3.05  30 3.08  33 3.09
   6  0.445  0.666  0.111-  64 2.15  70 2.15 100 2.16  61 2.17  67 2.17  85 2.17  21 2.85  23 2.85
                            15 2.85  18 2.85   3 2.85   9 2.85  43 3.08  34 3.10  31 3.10
   7  0.667  0.000  1.000- 105 2.14  69 2.14 102 2.15  72 2.15  66 2.15  99 2.15  10 2.88  24 2.88
                            22 2.88   1 2.88  16 2.88   4 2.89  35 3.09  50 3.09  36 3.10
   8  0.556  0.333  0.231-  65 2.10  68 2.11  86 2.13  71 2.13  74 2.16  89 2.16  11 2.74  17 2.85
                             2 2.85  25 2.95  26 2.96   5 2.96  37 3.05  45 3.05  36 3.08  33 3.09
   9  0.770  0.667  0.119- 106 2.11  55 2.11  67 2.13  58 2.13  70 2.16  73 2.16  18 2.74  12 2.85
                             6 2.85  27 2.95  23 2.95   3 2.96  37 3.06  35 3.06  29 3.08  53 3.09
  10  0.666  0.000  0.333-  78 2.14  57 2.14  69 2.14  90 2.14  72 2.15  75 2.15  16 2.88   7 2.88
                            19 2.88   1 2.89  22 2.89  13 2.90  45 3.08  35 3.08  36 3.10  38 3.10
  11  0.556  0.333  0.547-  95 2.11  98 2.11  92 2.13  77 2.13  89 2.16  74 2.16   8 2.74   2 2.85
                            17 2.85  26 2.95  20 2.95  14 2.96  37 3.06  45 3.06  39 3.08  48 3.09
  12  0.778  0.667  0.444-  79 2.16  73 2.16  97 2.16  82 2.17  76 2.17  58 2.17   3 2.85   9 2.85
                            18 2.85  15 2.85  23 2.85  21 2.85  29 3.07  41 3.07  38 3.07
  13  0.001  0.000  0.333-  57 2.14  78 2.14  63 2.14  84 2.14  60 2.15  81 2.15  16 2.88   4 2.88
                            24 2.88   1 2.89  22 2.89  10 2.90  32 3.08  42 3.08  30 3.10  41 3.10
  14  0.897  0.333  0.547- 101 2.11  98 2.11 104 2.13  77 2.13  83 2.16  80 2.16   5 2.74   2 2.85
                            17 2.85  26 2.95  25 2.95  11 2.96  40 3.06  42 3.06  39 3.08  51 3.09
  15  0.111  0.667  0.436-  88 2.10 103 2.11  85 2.13  82 2.13  79 2.16  64 2.16   3 2.74   6 2.85
                            12 2.85  23 2.95  27 2.96  18 2.96  40 3.05  32 3.05  41 3.08  44 3.09
  16  0.333  0.000  0.333-  66 2.14  87 2.14  90 2.15  69 2.15  84 2.15  63 2.15  10 2.88  13 2.88
                             7 2.88  19 2.88   4 2.88  24 2.88  35 3.09  45 3.09  42 3.09  32 3.09
  17  0.222  0.334  0.556-  83 2.15  89 2.15 107 2.16  92 2.17 104 2.17  86 2.17  20 2.85  25 2.85
                             8 2.85   5 2.85  11 2.85  14 2.85  43 3.08  46 3.10  52 3.10
  18  0.453  0.667  0.436-  88 2.10  91 2.11  85 2.13  76 2.13  73 2.16  70 2.16   9 2.74   6 2.85
                            12 2.85  21 2.95  27 2.96  15 2.96  37 3.05  35 3.05  38 3.08  44 3.09
  19  0.334  1.000  0.667-  96 2.14  90 2.14  93 2.15  75 2.15  87 2.15 108 2.15  10 2.88   4 2.88
                             1 2.88  22 2.88  16 2.88  24 2.89  45 3.09  54 3.09  38 3.10
  20  0.214  0.333  0.889-  95 2.11  62 2.11  59 2.12  92 2.13  56 2.16 107 2.16  25 2.75  17 2.85
                             2 2.85  11 2.95   5 2.95  26 2.95  54 3.06  30 3.08  48 3.09  28 3.09
  21  0.452  0.667  0.778-  94 2.11  91 2.11  76 2.12  61 2.13  97 2.16 100 2.16  23 2.75   6 2.85
                            12 2.85   3 2.95  18 2.95  27 2.95  50 3.06  38 3.08  47 3.09  49 3.09
  22  0.666  0.000  0.667-  78 2.13  81 2.14  75 2.14  99 2.14  96 2.15 102 2.15   4 2.88   7 2.88
                            19 2.88  24 2.88  10 2.89  13 2.89  50 3.08  39 3.10
  23  0.770  0.667  0.778- 106 2.11 103 2.11  82 2.12  67 2.13  97 2.16 100 2.16  21 2.75   6 2.85
                            12 2.85   9 2.95  15 2.95  27 2.95  50 3.06  41 3.08  53 3.09  49 3.09
  24  1.000  1.000  0.667- 102 2.14  84 2.14 105 2.15  81 2.15  87 2.15 108 2.15  13 2.88   7 2.88
                             1 2.88  22 2.88  16 2.88  19 2.89  42 3.09  54 3.09  41 3.10
  25  0.897  0.333  0.889- 101 2.11  68 2.11  71 2.12 104 2.13  56 2.16 107 2.16  20 2.75  17 2.85
                             2 2.85  14 2.95   8 2.95  26 2.95  54 3.06  36 3.08  51 3.09  28 3.09
  26  0.556  0.334  0.889-  65 2.08  95 2.09 101 2.09  98 2.10  68 2.11  62 2.11  14 2.95  11 2.95
                            20 2.95  25 2.95   5 2.96   8 2.96
  27  0.111  0.666  0.778-  88 2.08 106 2.09  94 2.09  55 2.10 103 2.11  91 2.11   9 2.95   3 2.95
                            23 2.95  21 2.95  15 2.96  18 2.96
  28  0.003  0.504  0.994- 107 2.06  58 2.07  94 2.11 106 2.11  59 2.15  71 2.15   3 3.09   9 3.09
                            20 3.09  25 3.09
  29  0.889  0.832  0.223-  79 2.01  73 2.01  60 2.09  72 2.09  78 2.10  55 2.12  12 3.07   3 3.08
                             9 3.08   1 3.10
  30  0.111  0.168  0.111-  80 2.01  56 2.02  93 2.09  63 2.09  57 2.10  62 2.12   2 3.07   5 3.08
                            20 3.08  13 3.10   4 3.10
  31  0.339  0.497  0.998- 100 2.01  64 2.05  59 2.07  95 2.13  65 2.14  94 2.17   6 3.10   5 3.10
                            20 3.10
  32  0.221  0.833  0.223-  79 2.06  84 2.08  60 2.08  66 2.09  61 2.10  85 2.11  15 3.05   3 3.06
                            13 3.08   4 3.09  16 3.09
  33  0.447  0.170  0.106-  86 2.06  99 2.08  68 2.11  62 2.11  69 2.12  63 2.12   8 3.09   5 3.09

  34  0.664  0.497  0.998- 100 2.01  70 2.05  71 2.07 101 2.13  65 2.14 106 2.17   6 3.10   8 3.10
                            25 3.10
  35  0.556  0.833  0.223-  73 2.06  90 2.08  72 2.08  66 2.09  67 2.10  85 2.11  18 3.05   9 3.06
                            10 3.08   7 3.09  16 3.09
  36  0.778  0.168  0.111-  74 2.01  56 2.02 105 2.09  69 2.09  57 2.10  68 2.12   2 3.07   8 3.08
                            25 3.08  10 3.10   7 3.10
  37  0.665  0.500  0.333-  89 2.06  70 2.06  71 2.10  76 2.10  77 2.11  58 2.11   8 3.05  18 3.05
                             9 3.06  11 3.06
  38  0.556  0.832  0.555-  73 2.01  97 2.02  96 2.09  90 2.09  78 2.10  91 2.12  12 3.07  18 3.08
                            21 3.08  10 3.10  19 3.10
  39  0.778  0.168  0.444-  74 2.01  80 2.01  81 2.09  75 2.09  57 2.10  98 2.12   2 3.07  14 3.08
                            11 3.08  22 3.10
  40  0.002  0.500  0.333-  64 2.06  83 2.06  59 2.10  82 2.10  58 2.11  77 2.11   5 3.05  15 3.05
                             3 3.06  14 3.06
  41  0.889  0.832  0.555-  79 2.01  97 2.02 102 2.09  84 2.09  78 2.10 103 2.12  12 3.07  15 3.08
                            23 3.08  13 3.10  24 3.10
  42  0.111  0.167  0.444-  80 2.06  63 2.08  81 2.08  87 2.09 104 2.10  86 2.11   5 3.05  14 3.06
                            13 3.08  24 3.09  16 3.09
  43  0.333  0.500  0.333-  89 2.03  70 2.03  83 2.03  64 2.03  65 2.15  88 2.15   6 3.08  17 3.08
                            18 3.09   8 3.09  15 3.09   5 3.09
  44  0.220  0.830  0.561-  85 2.06 108 2.08 103 2.11  91 2.11  84 2.12  90 2.12  15 3.09  18 3.09

  45  0.446  0.167  0.444-  74 2.06  69 2.08  75 2.08  87 2.09  92 2.10  86 2.11   8 3.05  11 3.06
                            10 3.08  19 3.09  16 3.09
  46  0.328  0.503  0.669- 107 2.01  89 2.05  76 2.07  94 2.13  88 2.14  95 2.17  17 3.10  18 3.10
                            21 3.10
  47  0.220  0.830  0.886-  61 2.06 108 2.08  91 2.11  55 2.11  60 2.13  96 2.13   3 3.09  21 3.09

  48  0.447  0.170  0.780-  92 2.06  99 2.08  62 2.11  98 2.11  75 2.13  93 2.13  11 3.09  20 3.09

  49  0.663  0.496  0.673- 100 2.06  77 2.07  95 2.11 101 2.11  76 2.15  82 2.15  11 3.09  14 3.09
                            21 3.09  23 3.09
  50  0.556  0.833  0.888-  97 2.06  96 2.08 102 2.08  66 2.09  61 2.11  67 2.11  21 3.06  23 3.06
                            22 3.08   4 3.09   7 3.09
  51  0.773  0.170  0.780- 104 2.06  99 2.08  68 2.11  98 2.11  81 2.13 105 2.13  14 3.09  25 3.09

  52  0.003  0.503  0.669- 107 2.01  83 2.05  82 2.07 106 2.13  88 2.14 101 2.17  17 3.10  15 3.10
                            23 3.10
  53  0.894  0.830  0.886-  67 2.06 108 2.08 103 2.11  55 2.11  72 2.13 102 2.13   9 3.09  23 3.09

  54  0.111  0.167  0.779-  56 2.06 105 2.08  93 2.08  87 2.09 104 2.11  92 2.11  25 3.06  20 3.06
                             1 3.08  24 3.09  19 3.09
  55  0.998  0.746  0.004-  27 2.10  47 2.11  53 2.11   3 2.11   9 2.11  29 2.12
  56  0.998  0.242  0.005-  30 2.02  36 2.02  54 2.06   2 2.16  20 2.16  25 2.16
  57  0.889  0.085  0.222-  39 2.10  36 2.10  30 2.10   1 2.13  10 2.14  13 2.14
  58  0.891  0.581  0.218-  28 2.07  37 2.11  40 2.11   3 2.13   9 2.13  12 2.17
  59  0.115  0.419  0.109-  31 2.07  40 2.10  20 2.12   5 2.13  28 2.15   2 2.17
  60  0.111  0.913  0.111-  32 2.08  29 2.09  47 2.13   1 2.14   4 2.15  13 2.15
  61  0.331  0.753  0.998-  47 2.06  32 2.10  50 2.11   3 2.13  21 2.13   6 2.17
  62  0.329  0.254  0.002-  26 2.11  48 2.11  33 2.11  20 2.11   5 2.11  30 2.12
  63  0.223  0.087  0.222-  42 2.08  30 2.09  33 2.12   4 2.14  13 2.14  16 2.15
  64  0.228  0.575  0.219-  43 2.03  31 2.05  40 2.06   6 2.15   3 2.16  15 2.16
  65  0.443  0.411  0.114-  26 2.08   8 2.10   5 2.10  34 2.14  31 2.14  43 2.15
  66  0.444  0.913  0.111-  35 2.09  32 2.09  50 2.09  16 2.14   7 2.15   4 2.15
  67  0.671  0.753  0.998-  53 2.06  35 2.10  50 2.11   9 2.13  23 2.13   6 2.17
  68  0.669  0.254  0.002-  26 2.11  51 2.11  33 2.11  25 2.11   8 2.11  36 2.12
  69  0.555  0.087  0.222-  45 2.08  36 2.09  33 2.12   7 2.14  10 2.14  16 2.15
  70  0.553  0.575  0.219-  43 2.03  34 2.05  37 2.06   6 2.15   9 2.16  18 2.16
  71  0.776  0.419  0.109-  34 2.07  37 2.10  25 2.12   8 2.13  28 2.15   2 2.17
  72  0.779  0.913  0.111-  35 2.08  29 2.09  53 2.13   1 2.14   7 2.15  10 2.15
  73  0.669  0.758  0.336-  38 2.01  29 2.01  35 2.06  12 2.16  18 2.16   9 2.16
  74  0.672  0.242  0.331-  36 2.01  39 2.01  45 2.06   2 2.16   8 2.16  11 2.16
  75  0.556  0.087  0.556-  45 2.08  39 2.09  48 2.13  22 2.14  19 2.15  10 2.15
  76  0.552  0.581  0.558-  46 2.07  37 2.10  21 2.12  18 2.13  49 2.15  12 2.17
  77  0.776  0.419  0.449-  49 2.07  40 2.11  37 2.11  14 2.13  11 2.13   2 2.17
  78  0.778  0.915  0.445-  29 2.10  41 2.10  38 2.10  22 2.13  10 2.14  13 2.14
  79  0.995  0.758  0.336-  41 2.01  29 2.01  32 2.06  12 2.16  15 2.16   3 2.16
  80  0.997  0.242  0.331-  30 2.01  39 2.01  42 2.06   2 2.16   5 2.16  14 2.16
  81  0.888  0.087  0.556-  42 2.08  39 2.09  51 2.13  22 2.14  24 2.15  13 2.15
  82  0.890  0.581  0.558-  52 2.07  40 2.10  23 2.12  15 2.13  49 2.15  12 2.17
  83  0.113  0.425  0.448-  43 2.03  52 2.05  40 2.06  17 2.15  14 2.16   5 2.16
  84  0.111  0.913  0.445-  32 2.08  41 2.09  44 2.12  24 2.14  13 2.14  16 2.15
  85  0.331  0.753  0.337-  44 2.06  35 2.11  32 2.11  15 2.13  18 2.13   6 2.17
  86  0.335  0.247  0.329-  33 2.06  42 2.11  45 2.11   8 2.13   5 2.13  17 2.17
  87  0.222  0.087  0.555-  42 2.09  45 2.09  54 2.09  16 2.14  24 2.15  19 2.15
  88  0.224  0.589  0.552-  27 2.08  15 2.10  18 2.10  52 2.14  46 2.14  43 2.15
  89  0.439  0.425  0.448-  43 2.03  46 2.05  37 2.06  17 2.15  11 2.16   8 2.16
  90  0.444  0.913  0.445-  35 2.08  38 2.09  44 2.12  19 2.14  10 2.14  16 2.15
  91  0.337  0.746  0.665-  27 2.11  47 2.11  44 2.11  21 2.11  18 2.11  38 2.12
  92  0.336  0.247  0.669-  48 2.06  45 2.10  54 2.11  11 2.13  20 2.13  17 2.17
  93  0.223  0.087  0.889-  54 2.08  30 2.09  48 2.13   4 2.14  19 2.15   1 2.15
  94  0.225  0.588  0.891-  27 2.09  21 2.11   3 2.11  28 2.11  46 2.13  31 2.17
  95  0.442  0.412  0.776-  26 2.09  20 2.11  11 2.11  49 2.11  31 2.13  46 2.17
  96  0.444  0.913  0.778-  50 2.08  38 2.09  47 2.13  19 2.14   4 2.15  22 2.15
  97  0.669  0.758  0.662-  38 2.02  41 2.02  50 2.06  12 2.16  21 2.16  23 2.16
  98  0.669  0.254  0.663-  26 2.10  48 2.11  51 2.11  11 2.11  14 2.11  39 2.12
  99  0.556  0.087  0.889-  33 2.08  48 2.08  51 2.08  22 2.14   4 2.15   7 2.15
 100  0.553  0.575  0.894-  31 2.01  34 2.01  49 2.06   6 2.16  21 2.16  23 2.16
 101  0.782  0.412  0.776-  26 2.09  25 2.11  14 2.11  49 2.11  34 2.13  52 2.17
 102  0.778  0.913  0.778-  50 2.08  41 2.09  53 2.13  24 2.14   7 2.15  22 2.15
 103  0.998  0.746  0.665-  27 2.11  53 2.11  44 2.11  23 2.11  15 2.11  41 2.12
 104  0.996  0.247  0.669-  51 2.06  42 2.10  54 2.11  14 2.13  25 2.13  17 2.17
 105  0.888  0.087  0.889-  54 2.08  36 2.09  51 2.13   7 2.14  24 2.15   1 2.15
 106  0.885  0.588  0.891-  27 2.09  23 2.11   9 2.11  28 2.11  52 2.13  34 2.17
 107  0.114  0.425  0.773-  52 2.01  46 2.01  28 2.06  17 2.16  25 2.16  20 2.16
 108  0.111  0.913  0.778-  44 2.08  47 2.08  53 2.08   1 2.14  19 2.15  24 2.15
 
  LATTYP: Found a base centered monoclinic cell.
 ALAT       =    14.9684864080
 B/A-ratio  =     0.5780506896
 C/A-ratio  =     2.2565135140
 COS(beta)  =    -0.7675837036
  
  Lattice vectors:
  
 A1 = (   4.3262719454,   0.0021443872,   7.4842428968)
 A2 = (  -4.3262719454,   0.0021443872,   7.4842428968)
 A3 = (   0.0000000000, -15.6316147732, -29.9417898189)


Analysis of symmetry for initial positions (statically):
=====================================================================
 Subroutine PRICEL returns:
 Original cell was already a primitive cell.
 

 Routine SETGRP: Setting up the symmetry group for a 
 base centered monoclinic supercell.


 Subroutine GETGRP returns: Found  4 space group operations
 (whereof  2 operations were pure point group operations)
 out of a pool of  4 trial point group operations.


The static configuration has the point symmetry C_1h.
 The point group associated with its full space group is C_2h.


Analysis of symmetry for dynamics (positions and initial velocities):
=====================================================================
 Subroutine PRICEL returns:
 Original cell was already a primitive cell.
 

 Routine SETGRP: Setting up the symmetry group for a 
 base centered monoclinic supercell.


 Subroutine GETGRP returns: Found  4 space group operations
 (whereof  2 operations were pure point group operations)
 out of a pool of  4 trial point group operations.


The dynamic configuration has the point symmetry C_1h.
 The point group associated with its full space group is C_2h.


Analysis of structural, dynamic, and magnetic symmetry:
=====================================================================
 Subroutine PRICEL returns:
 Original cell was already a primitive cell.
 

 Routine SETGRP: Setting up the symmetry group for a 
 base centered monoclinic supercell.


 Subroutine GETGRP returns: Found  4 space group operations
 (whereof  2 operations were pure point group operations)
 out of a pool of  4 trial point group operations.


The magnetic configuration has the point symmetry C_1h.
 The point group associated with its full space group is C_2h.


 Subroutine INISYM returns: Found  4 space group operations
 (whereof  2 operations are pure point group operations),
 and found     1 'primitive' translations

 
 
 KPOINTS: Automatic mesh                          

Automatic generation of k-mesh.
Space group operators:
 irot       det(A)        alpha          n_x          n_y          n_z        tau_x        tau_y        tau_z
    1     1.000000     0.000000     1.000000     0.000000     0.000000     0.000000     0.000000     0.000000
    2    -1.000000   180.000000     1.000000     0.000000     0.000000     0.000000     0.000000     0.000000
    3    -1.000000     0.000000     1.000000     0.000000     0.000000    -0.333333     0.000000     0.666667
    4     1.000000   180.000000     1.000000     0.000000     0.000000    -0.333333     0.000000     0.666667
 
 Subroutine IBZKPT returns following result:
 ===========================================
 
 Found      1 irreducible k-points:
 
 Following reciprocal coordinates:
            Coordinates               Weight
  0.000000  0.000000  0.000000      1.000000
 
 Following cartesian coordinates:
            Coordinates               Weight
  0.000000  0.000000  0.000000      1.000000
 


--------------------------------------------------------------------------------------------------------




 Dimension of arrays:
   k-points           NKPTS =      1   k-points in BZ     NKDIM =      1   number of bands    NBANDS=    432
   number of dos      NEDOS =    301   number of ions     NIONS =    108
   non local maximal  LDIM  =      6   non local SUM 2l+1 LMDIM =     18
   total plane-waves  NPLWV = 491520
   max r-space proj   IRMAX =   8560   max aug-charges    IRDMAX=  27490
   dimension x,y,z NGX =    64 NGY =  120 NGZ =   64
   dimension x,y,z NGXF=   128 NGYF=  240 NGZF=  128
   support grid    NGXF=   128 NGYF=  240 NGZF=  128
   ions per type =              25   2  27  54
   NGX,Y,Z   is equivalent  to a cutoff of  12.30, 12.77, 12.31 a.u.
   NGXF,Y,Z  is equivalent  to a cutoff of  24.59, 25.54, 24.62 a.u.

 SYSTEM =  unknown system                          
 POSCAR =  ce8_1                                   

 Startparameter for this run:
   NWRITE =      1    write-flag & timer
   PREC   = accura    normal or accurate (medium, high low for compatibility)
   ISTART =      0    job   : 0-new  1-cont  2-samecut
   ICHARG =      2    charge: 1-file 2-atom 10-const
   ISPIN  =      2    spin polarized calculation?
   LNONCOLLINEAR =      F non collinear calculations
   LSORBIT =      F    spin-orbit coupling
   INIWAV =      1    electr: 0-lowe 1-rand  2-diag
   LASPH  =      F    aspherical Exc in radial PAW
   METAGGA=      F    non-selfconsistent MetaGGA calc.

 Electronic Relaxation 1
   ENCUT  =  500.0 eV  36.75 Ry    6.06 a.u.  15.78 28.48 15.76*2*pi/ulx,y,z
   ENINI  =  500.0     initial cutoff
   ENAUG  =  628.9 eV  augmentation charge cutoff
   NELM   =     80;   NELMIN=  2; NELMDL= -5     # of ELM steps 
   EDIFF  = 0.1E-04   stopping-criterion for ELM
   LREAL  =      T    real-space projection
   NLSPLINE    = F    spline interpolate recip. space projectors
   LCOMPAT=      F    compatible to vasp.4.4
   GGA_COMPAT  = T    GGA compatible to vasp.4.4-vasp.4.6
   LMAXPAW     = -100 max onsite density
   LMAXMIX     =    2 max onsite mixed and CHGCAR
   VOSKOWN=      1    Vosko Wilk Nusair interpolation
   ROPT   =   -0.00025  -0.00025  -0.00025  -0.00025
 Ionic relaxation
   EDIFFG = -.2E-01   stopping-criterion for IOM
   NSW    =     20    number of steps for IOM
   NBLOCK =      1;   KBLOCK =     20    inner block; outer block 
   IBRION =      1    ionic relax: 0-MD 1-quasi-New 2-CG
   NFREE  =      0    steps in history (QN), initial steepest desc. (CG)
   ISIF   =      3    stress and relaxation
   IWAVPR =     11    prediction:  0-non 1-charg 2-wave 3-comb
   ISYM   =      2    0-nonsym 1-usesym 2-fastsym
   LCORR  =      T    Harris-Foulkes like correction to forces

   POTIM  = 0.5000    time-step for ionic-motion
   TEIN   =    0.0    initial temperature
   TEBEG  =    0.0;   TEEND  =   0.0 temperature during run
   SMASS  =  -3.00    Nose mass-parameter (am)
   estimated Nose-frequenzy (Omega)   =  0.10E-29 period in steps =****** mass=  -0.171E-26a.u.
   SCALEE = 1.0000    scale energy and forces
   NPACO  =    256;   APACO  = 16.0  distance and # of slots for P.C.
   PSTRESS=    0.0 pullay stress

  Mass of Ions in am
   POMASS = 180.95 58.69  7.01 16.00
  Ionic Valenz
   ZVAL   =  11.00 10.00  3.00  6.00
  Atomic Wigner-Seitz radii
   RWIGS  =   1.34  1.15  1.23  0.73
  virtual crystal weights 
   VCA    =   1.00  1.00  1.00  1.00
   NELECT =     700.0000    total number of electrons
   NUPDOWN=      -1.0000    fix difference up-down

 DOS related values:
   EMIN   =  10.00;   EMAX   =-10.00  energy-range for DOS
   EFERMI =   0.00
   ISMEAR =     0;   SIGMA  =   0.05  broadening in eV -4-tet -1-fermi 0-gaus

 Electronic relaxation 2 (details)
   IALGO  =     38    algorithm
   LDIAG  =      T    sub-space diagonalisation (order eigenvalues)
   LSUBROT=      F    optimize rotation matrix (better conditioning)
   TURBO    =      0    0=normal 1=particle mesh
   IRESTART =      0    0=no restart 2=restart with 2 vectors
   NREBOOT  =      0    no. of reboots
   NMIN     =      0    reboot dimension
   EREF     =   0.00    reference energy to select bands
   IMIX   =      4    mixing-type and parameters
     AMIX     =   0.40;   BMIX     =  1.00
     AMIX_MAG =   1.60;   BMIX_MAG =  1.00
     AMIN     =   0.10
     WC   =   100.;   INIMIX=   1;  MIXPRE=   1;  MAXMIX= -45

 Intra band minimization:
   WEIMIN = 0.0010     energy-eigenvalue tresh-hold
   EBREAK =  0.58E-08  absolut break condition
   DEPER  =   0.30     relativ break condition  

   TIME   =   0.40     timestep for ELM

  volume/ion in A,a.u.               =       9.37        63.22
  Fermi-wavevector in a.u.,A,eV,Ry     =   1.447955  2.736239 28.525627  2.096574
  Thomas-Fermi vector in A             =   2.565851
 
 Write flags
   LWAVE        =      F    write WAVECAR
   LDOWNSAMPLE  =      F    k-point downsampling of WAVECAR
   LCHARG       =      T    write CHGCAR
   LVTOT        =      F    write LOCPOT, total local potential
   LVHAR        =      F    write LOCPOT, Hartree potential only
   LELF         =      F    write electronic localiz. function (ELF)
   LORBIT       =      0    0 simple, 1 ext, 2 COOP (PROOUT), +10 PAW based schemes


 Dipole corrections
   LMONO  =      F    monopole corrections only (constant potential shift)
   LDIPOL =      F    correct potential (dipole corrections)
   IDIPOL =      0    1-x, 2-y, 3-z, 4-all directions 
   EPSILON=  1.0000000 bulk dielectric constant

 Exchange correlation treatment:
   GGA     =    PS    GGA type
   LEXCH   =    14    internal setting for exchange type
   VOSKOWN=      1    Vosko Wilk Nusair interpolation
   LHFCALC =     F    Hartree Fock is set to
   LHFONE  =     F    Hartree Fock one center treatment
   AEXX    =    0.0000 exact exchange contribution

 Linear response parameters
   LEPSILON=     F    determine dielectric tensor
   LRPA    =     F    only Hartree local field effects (RPA)
   LNABLA  =     F    use nabla operator in PAW spheres
   LVEL    =     F    velocity operator in full k-point grid
   LINTERFAST=   F  fast interpolation
   KINTER  =     0    interpolate to denser k-point grid
   CSHIFT  =0.1000    complex shift for real part using Kramers Kronig
   OMEGAMAX=  -1.0    maximum frequency
   DEG_THRESHOLD= 0.2000000E-02 threshold for treating states as degnerate
   RTIME   =   -0.100 relaxation time in fs
  (WPLASMAI=    0.000 imaginary part of plasma frequency in eV, 0.658/RTIME)
   DFIELD  = 0.0000000 0.0000000 0.0000000 field for delta impulse in time
 
 Orbital magnetization related:
   ORBITALMAG=     F  switch on orbital magnetization
   LCHIMAG   =     F  perturbation theory with respect to B field
   DQ        =  0.001000  dq finite difference perturbation B field
   LLRAUG    =     F  two centre corrections for induced B field



--------------------------------------------------------------------------------------------------------


 quasi-Newton-method for relaxation of ions
 charge density and potential will be updated during run
 spin polarized calculation
 Variant of blocked Davidson
 Davidson routine will perform the subspace rotation
 perform sub-space diagonalisation
    after iterative eigenvector-optimisation
 modified Broyden-mixing scheme, WC =      100.0
 initial mixing is a Kerker type mixing with AMIX =  0.4000 and BMIX =      1.0000
 Hartree-type preconditioning will be used
 using additional bands           82
 real space projection scheme for non local part
 use partial core corrections
 calculate Harris-corrections to forces 
   (improved forces if not selfconsistent)
 use gradient corrections 
 use of overlap-Matrix (Vanderbilt PP)
 Gauss-broadening in eV      SIGMA  =   0.05


--------------------------------------------------------------------------------------------------------


  energy-cutoff  :      500.00
  volume of cell :     1011.71
      direct lattice vectors                 reciprocal lattice vectors
     8.652543891  0.000000000  0.000000000     0.115572947  0.000020604 -0.066807031
     0.000000000 15.623037224  0.004818232     0.000000000  0.064008046 -0.000018340
     4.326271945  0.002144387  7.484242897     0.000000000 -0.000041207  0.133614061

  length of vectors
     8.652543891 15.623037967  8.644681907     0.133492644  0.064008049  0.133614068


 
 k-points in units of 2pi/SCALE and weight: Automatic mesh                          
   0.00000000  0.00000000  0.00000000       1.000
 
 k-points in reciprocal lattice and weights: Automatic mesh                          
   0.00000000  0.00000000  0.00000000       1.000
 
 position of ions in fractional coordinates (direct lattice) 
   0.00024817  0.99980036  0.99950365
   0.88886687  0.33254248  0.22226625
   0.11116635  0.66657771  0.11930577
   0.33294720  0.00002835  0.99993382
   0.21380583  0.33323707  0.23062425
   0.44453796  0.66574505  0.11092408
   0.66711898  0.00002835  0.99993382
   0.55556992  0.33323707  0.23062425
   0.76952788  0.66657771  0.11930577
   0.66561166  0.00000000  0.33333333
   0.55550031  0.33342229  0.54736090
   0.77779980  0.66745752  0.44440041
   0.00105501  0.00000000  0.33333333
   0.89713878  0.33342229  0.54736090
   0.11109676  0.66676293  0.43604241
   0.33333334  0.00000000  0.33333333
   0.22212871  0.33425495  0.55574259
   0.45286084  0.66676293  0.43604241
   0.33371946  0.99997165  0.66673285
   0.21429841  0.33341601  0.88883138
   0.45236825  0.66658399  0.77783529
   0.66641849  0.00019964  0.66716302
   0.76979646  0.66658399  0.77783529
   0.99954769  0.99997165  0.66673285
   0.89687021  0.33341601  0.88883138
   0.55572429  0.33369081  0.88855142
   0.11094237  0.66630919  0.77811525
   0.00318756  0.50365311  0.99362489
   0.88871756  0.83246870  0.22256488
   0.11083270  0.16756128  0.11129348
   0.33855682  0.49741669  0.99793397
   0.22097208  0.83341442  0.22290503
   0.44699729  0.17009990  0.10600543
   0.66350920  0.49741669  0.99793397
   0.55612289  0.83341442  0.22290503
   0.77787382  0.16756128  0.11129348
   0.66494177  0.50000000  0.33333333
   0.55583396  0.83243872  0.55537319
   0.77794911  0.16753130  0.44410178
   0.00172490  0.50000000  0.33333333
   0.88879284  0.83243872  0.55537319
   0.11054379  0.16658558  0.44376163
   0.33333334  0.50000000  0.33333333
   0.21966938  0.82990010  0.56066124
   0.44569459  0.16658558  0.44376163
   0.32810984  0.50258331  0.66873270
   0.21964159  0.82979499  0.88624858
   0.44702507  0.17020501  0.78041809
   0.66347910  0.49634689  0.67304178
   0.55616637  0.83349006  0.88766725
   0.77255685  0.17020501  0.78041809
   0.00315747  0.50258331  0.66873270
   0.89410982  0.82979499  0.88624858
   0.11050029  0.16650994  0.77899942
   0.99814106  0.74599728  0.00371789
   0.99754698  0.24210876  0.00490605
   0.88892758  0.08506717  0.22214484
   0.89094848  0.58055096  0.21810304
   0.11510227  0.41908854  0.10860481
   0.11091544  0.91327697  0.11056084
   0.33115948  0.75258255  0.99812758
   0.32929041  0.25373248  0.00204116
   0.22302510  0.08670760  0.22151353
   0.22799641  0.57547706  0.21883209
   0.44285050  0.41085280  0.11429902
   0.44436520  0.91328699  0.11126962
   0.67071294  0.75258255  0.99812758
   0.66866843  0.25373248  0.00204116
   0.55546137  0.08670760  0.22151353
   0.55317150  0.57547706  0.21883209
   0.77629292  0.41908854  0.10860481
   0.77852372  0.91327697  0.11056084
   0.66919820  0.75798035  0.33585430
   0.67171917  0.24201965  0.33081236
   0.55575122  0.08672303  0.55610583
   0.55156439  0.58091146  0.55806186
   0.77571819  0.41944904  0.44856362
   0.77773909  0.91493283  0.44452182
   0.99494750  0.75798035  0.33585430
   0.99746847  0.24201965  0.33081236
   0.88814294  0.08672303  0.55610583
   0.89037374  0.58091146  0.55806186
   0.11349518  0.42452294  0.44783457
   0.11120531  0.91329240  0.44515313
   0.33125051  0.75258540  0.33749899
   0.33541617  0.24741460  0.32916767
   0.22230147  0.08671301  0.55539705
   0.22381617  0.58914720  0.55236765
   0.43867026  0.42452294  0.44783457
   0.44364157  0.91329240  0.44515313
   0.33737625  0.74626752  0.66462551
   0.33550718  0.24741745  0.66853909
   0.22272691  0.08665704  0.88891700
   0.22450547  0.58755220  0.89080277
   0.44216119  0.41244780  0.77586390
   0.44393975  0.91334296  0.77774967
   0.66911968  0.75789124  0.66176062
   0.66852560  0.25400272  0.66294878
   0.55556956  0.08691512  0.88886087
   0.55313500  0.57498928  0.89372999
   0.78197491  0.41244780  0.77586390
   0.77831058  0.91334296  0.77774967
   0.99799824  0.74626752  0.66462551
   0.99595373  0.24741745  0.66853909
   0.88835609  0.08665704  0.88891700
   0.88469176  0.58755220  0.89080277
   0.11353166  0.42501072  0.77293668
   0.11109710  0.91308488  0.77780580
 
 position of ions in cartesian coordinates  (Angst):
   4.32627190 15.62206156  7.48534536
   8.65254385  5.19580017  1.66509687
   1.47802093 10.41422421  0.89612509
   7.20682589  0.00258716  7.48374773
   2.84770755  5.20666970  1.72765352
   4.32627195 10.40119756  0.83339047
  10.09826189  0.00258716  7.48374773
   5.80483634  5.20666970  1.72765352
   7.17452296 10.41422421  0.89612509
   7.20132474  0.00071480  2.49474761
   7.17452292  5.21024260  4.09818843
   8.65254393 10.42866665  3.32921658
   1.45121915  0.00071480  2.49474761
  10.13056478  5.21024260  4.09818843
   2.84770764 10.41779712  3.26665993
   4.32627199  0.00071480  2.49474761
   4.32627199  5.22326925  4.16092305
   5.80483634 10.41779712  3.26665993
   5.77198990 15.62402404  4.99480869
   5.69955266  5.21087673  6.65383642
   7.27926313 10.41573447  5.82472000
   8.65254389  0.00454964  4.99321106
  10.02582465 10.41573447  5.82472000
  11.53309788 15.62402404  4.99480869
  11.60553512  5.21087673  6.65383642
   8.65254389  5.21516934  6.65174245
   4.32627190 10.41144186  5.82681396
   4.32627199  7.87072200  7.43895674
   8.65254389 13.00616675  1.66974065
   1.44047066  2.61805477  0.83375479
   7.24671148  7.77329942  7.47117690
   2.87631840 13.02094250  1.67229097
   4.32627199  2.65770439  0.79418997
  10.05837621  7.77329942  7.47117690
   5.77622549 13.02094250  1.67229097
   7.21207323  2.61805477  0.83375479
   7.19552848  7.81223341  2.49715672
   7.21207319 13.00641204  4.16055874
   8.65254389  2.61830006  3.32457280
   1.45701541  7.81223341  2.49715672
  10.09301451 13.00641204  4.16055874
   2.87631849  2.60352431  3.32202248
   4.32627199  7.81223341  2.49715672
   4.32627195 12.96676243  4.20012355
   5.77622549  2.60352431  3.32202248
   5.73210431  7.85331178  5.00737952
   5.73461087 12.96581848  6.63689778
   7.24420493  2.66079273  5.84165863
   8.65254380  7.75588920  5.03959968
   8.65254385 13.02354974  6.64753326
  10.06088294  2.66079273  5.84165863
   2.92043967  7.85331178  5.00737952
  11.57047683 12.96581848  6.63689778
   4.32627195  2.60306147  5.83102316
   8.65254393 11.65475125  0.03141998
   8.65254393  3.78248469  0.03788461
   8.65254389  1.32948393  1.66299581
   8.65254389  9.07043696  1.63513336
   1.46578139  6.54766875  0.81484404
   1.43801697 14.26839718  0.83186456
   7.18354328 11.75976556  7.47385537
   2.85803034  3.96407636  0.01649908
   2.88806224  1.35511107  1.65827884
   2.91947608  8.99116879  1.64056530
   4.32627203  6.41901369  0.85742121
   4.32627203 14.26855525  0.83716929
  10.12154450 11.75976556  7.47385537
   5.79451355  3.96407636  0.01649908
   5.76448165  1.35511107  1.65827884
   5.73306781  8.99116879  1.64056530
   7.18676250  6.54766875  0.81484404
   7.21452692 14.26839718  0.83186456
   7.24326383 11.84267542  2.51726728
   7.24326383  3.78179139  2.47704616
   7.21452687  1.35606963  4.16244896
   7.18676246  9.07679806  4.17946948
   8.65254389  6.55402986  3.35918009
   8.65254389 14.29498289  3.33131763
  10.06182395 11.84267542  2.51726728
  10.06182395  3.78179139  2.47704616
  10.09056082  1.35606963  4.16244896
  10.11832523  9.07679806  4.17946948
   2.91947616  6.63329802  3.35374815
   2.88806232 14.26935574  3.33603461
   4.32627199 11.75839345  2.52955055
   4.32627199  3.86607337  2.46476290
   4.32627190  1.35591157  4.15714423
   4.32627190  9.20545313  4.13689231
   5.73306781  6.63329802  3.35374815
   5.76448165 14.26935574  3.33603461
   5.79451351 11.66039046  4.97781444
   5.79527251  3.86684564  5.00470105
   5.77285104  1.35575234  6.65328828
   5.79639847  9.18126012  6.66981527
   7.18241733  6.44535109  5.80874115
   7.20596475 14.27085886  5.82526814
   8.65254380 11.84198213  4.95642892
   8.65254380  3.96971557  4.96289354
   8.65254385  1.35978422  6.65286943
   8.65254385  8.98499543  6.69166276
  10.12267045  6.44535109  5.80874115
  10.09912303 14.27085886  5.82526814
  11.51057427 11.66039046  4.97781444
  11.50981527  3.86684564  5.00470105
  11.53223674  1.35575234  6.65328828
  11.50868932  9.18126012  6.66981527
   4.32627195  6.64161577  5.78689366
   4.32627195 14.26682699  5.82568699
 


--------------------------------------------------------------------------------------------------------


 use serial FFT for orbitals x direction half grid
 k-point  1 :   0.0000 0.0000 0.0000  plane waves:   12877

 maximum and minimum number of plane-waves per node :     12877    12877

 maximum number of plane-waves:     12877
 maximum index in each direction: 
   IXMAX=   15   IYMAX=   28   IZMAX=   15
   IXMIN=    0   IYMIN=  -28   IZMIN=  -13

 The following grids will avoid any aliasing or wrap around errors in the Hartre
 e energy
  - symmetry arguments have not been applied
  - exchange correlation energies might require even more grid points
  - we recommend to set PREC=Normal or Accurate and rely on VASP defaults
 NGX is ok and might be reduce to    64
 NGY is ok and might be reduce to   120
 NGZ is ok and might be reduce to    60

 serial   3D FFT for wavefunctions
 parallel 3D FFT for charge:
    minimum data exchange during FFTs selected (reduces bandwidth)


 total amount of memory used by VASP MPI-rank0   164827. kBytes
=======================================================================

   base      :      30000. kBytes
   nonlr-proj:      47714. kBytes
   fftplans  :      10383. kBytes
   grid      :      63467. kBytes
   one-center:       1679. kBytes
   wavefun   :      11584. kBytes
 
     INWAV:  cpu time    0.0000: real time    0.0000
 Broyden mixing: mesh for mixing (old mesh)
   NGX = 31   NGY = 57   NGZ = 31
  (NGX  =128   NGY  =240   NGZ  =128)
  gives a total of  54777 points

 initial charge density was supplied:
 charge density of overlapping atoms calculated
 number of electron     700.0000000 magnetization       5.0000000
 keeping initial charge density in first step


--------------------------------------------------------------------------------------------------------


 Maximum index for non-local projection operator         8277
 Maximum index for augmentation-charges         1717 (set IRDMAX)


--------------------------------------------------------------------------------------------------------


 First call to EWALD:  gamma=   0.177
 Maximum number of real-space cells 4x 2x 4
 Maximum number of reciprocal cells 2x 4x 2

    FEWALD:  cpu time    0.0069: real time    0.0069


--------------------------------------- Iteration      1(   1)  ---------------------------------------


    POTLOK:  cpu time    0.3177: real time    0.3239
    SETDIJ:  cpu time    0.0449: real time    0.0450
     EDDAV:  cpu time    6.8465: real time    6.8799
    --------------------------------------------
      LOOP:  cpu time    7.2097: real time    7.2495

 eigenvalue-minimisations  :  1776
 total energy-change (2. order) : 0.1049906E+05  (-0.3958204E+05)
 number of electron     700.0000000 magnetization       5.0000000
 augmentation part      700.0000000 magnetization       5.0000000

 Free energy of the ion-electron system (eV)
  ---------------------------------------------------
  alpha Z        PSCENC =      4684.17824593
  Ewald energy   TEWEN  =    -46584.22510382
  -Hartree energ DENC   =    -10878.96338415
  -exchange      EXHF   =         0.00000000
  -V(xc)+E(xc)   XCENC  =      2553.14489960
  PAW double counting   =     43281.83467823   -43498.97981341
  entropy T*S    EENTRO =        -0.00776889
  eigenvalues    EBANDS =      3908.50578585
  atomic energy  EATOM  =     57033.57181776
  Solvation  Ediel_sol  =         0.00000000
  ---------------------------------------------------
  free energy    TOTEN  =     10499.05935712 eV

  energy without entropy =    10499.06712601  energy(sigma->0) =    10499.06324156


--------------------------------------------------------------------------------------------------------




--------------------------------------- Iteration      1(   2)  ---------------------------------------


     EDDAV:  cpu time    7.5049: real time    7.5227
    --------------------------------------------
      LOOP:  cpu time    7.5047: real time    7.5224

 eigenvalue-minimisations  :  1952
 total energy-change (2. order) :-0.9933384E+04  (-0.9353694E+04)
 number of electron     700.0000000 magnetization       5.0000000
 augmentation part      700.0000000 magnetization       5.0000000

 Free energy of the ion-electron system (eV)
  ---------------------------------------------------
  alpha Z        PSCENC =      4684.17824593
  Ewald energy   TEWEN  =    -46584.22510382
  -Hartree energ DENC   =    -10878.96338415
  -exchange      EXHF   =         0.00000000
  -V(xc)+E(xc)   XCENC  =      2553.14489960
  PAW double counting   =     43281.83467823   -43498.97981341
  entropy T*S    EENTRO =        -0.02342528
  eigenvalues    EBANDS =     -6024.86234215
  atomic energy  EATOM  =     57033.57181776
  Solvation  Ediel_sol  =         0.00000000
  ---------------------------------------------------
  free energy    TOTEN  =       565.67557273 eV

  energy without entropy =      565.69899801  energy(sigma->0) =      565.68728537


--------------------------------------------------------------------------------------------------------




--------------------------------------- Iteration      1(   3)  ---------------------------------------


     EDDAV:  cpu time    6.6801: real time    6.6959
    --------------------------------------------
      LOOP:  cpu time    6.6801: real time    6.6959

 eigenvalue-minimisations  :  2016
 total energy-change (2. order) :-0.1450505E+04  (-0.1390168E+04)
 number of electron     700.0000000 magnetization       5.0000000
 augmentation part      700.0000000 magnetization       5.0000000

 Free energy of the ion-electron system (eV)
  ---------------------------------------------------
  alpha Z        PSCENC =      4684.17824593
  Ewald energy   TEWEN  =    -46584.22510382
  -Hartree energ DENC   =    -10878.96338415
  -exchange      EXHF   =         0.00000000
  -V(xc)+E(xc)   XCENC  =      2553.14489960
  PAW double counting   =     43281.83467823   -43498.97981341
  entropy T*S    EENTRO =        -0.02465321
  eigenvalues    EBANDS =     -7475.36637616
  atomic energy  EATOM  =     57033.57181776
  Solvation  Ediel_sol  =         0.00000000
  ---------------------------------------------------
  free energy    TOTEN  =      -884.82968922 eV

  energy without entropy =     -884.80503601  energy(sigma->0) =     -884.81736261


--------------------------------------------------------------------------------------------------------




--------------------------------------- Iteration      1(   4)  ---------------------------------------


     EDDAV:  cpu time    9.8748: real time    9.8982
    --------------------------------------------
      LOOP:  cpu time    9.8749: real time    9.8983

 eigenvalue-minimisations  :  2368
 total energy-change (2. order) :-0.1182717E+03  (-0.1157654E+03)
 number of electron     700.0000000 magnetization       5.0000000
 augmentation part      700.0000000 magnetization       5.0000000

 Free energy of the ion-electron system (eV)
  ---------------------------------------------------
  alpha Z        PSCENC =      4684.17824593
  Ewald energy   TEWEN  =    -46584.22510382
  -Hartree energ DENC   =    -10878.96338415
  -exchange      EXHF   =         0.00000000
  -V(xc)+E(xc)   XCENC  =      2553.14489960
  PAW double counting   =     43281.83467823   -43498.97981341
  entropy T*S    EENTRO =        -0.13220168
  eigenvalues    EBANDS =     -7593.53056526
  atomic energy  EATOM  =     57033.57181776
  Solvation  Ediel_sol  =         0.00000000
  ---------------------------------------------------
  free energy    TOTEN  =     -1003.10142677 eV

  energy without entropy =    -1002.96922510  energy(sigma->0) =    -1003.03532594


--------------------------------------------------------------------------------------------------------




--------------------------------------- Iteration      1(   5)  ---------------------------------------


     EDDAV:  cpu time   14.1585: real time   14.1920
    CHARGE:  cpu time    0.4551: real time    0.4562
    MIXING:  cpu time    0.0053: real time    0.0053
    --------------------------------------------
      LOOP:  cpu time   14.6185: real time   14.6531

 eigenvalue-minimisations  :  3248
 total energy-change (2. order) :-0.1234630E+02  (-0.1227218E+02)
 number of electron     699.9999998 magnetization       6.0512815
 augmentation part      158.3264394 magnetization       2.6266052

 Broyden mixing:
  rms(total) = 0.13831E+02    rms(broyden)= 0.13831E+02
  rms(prec ) = 0.14572E+02
  weight for this iteration     100.00

 Free energy of the ion-electron system (eV)
  ---------------------------------------------------
  alpha Z        PSCENC =      4684.17824593
  Ewald energy   TEWEN  =    -46584.22510382
  -Hartree energ DENC   =    -10878.96338415
  -exchange      EXHF   =         0.00000000
  -V(xc)+E(xc)   XCENC  =      2553.14489960
  PAW double counting   =     43281.83467823   -43498.97981341
  entropy T*S    EENTRO =        -0.15077981
  eigenvalues    EBANDS =     -7605.85828887
  atomic energy  EATOM  =     57033.57181776
  Solvation  Ediel_sol  =         0.00000000
  ---------------------------------------------------
  free energy    TOTEN  =     -1015.44772853 eV

  energy without entropy =    -1015.29694871  energy(sigma->0) =    -1015.37233862


--------------------------------------------------------------------------------------------------------




--------------------------------------- Iteration      1(   6)  ---------------------------------------


    POTLOK:  cpu time    0.2851: real time    0.2857
    SETDIJ:  cpu time    0.0465: real time    0.0466
     EDDAV:  cpu time    7.5971: real time    7.6150
    CHARGE:  cpu time    0.4641: real time    0.4652
    MIXING:  cpu time    0.0071: real time    0.0071
    --------------------------------------------
      LOOP:  cpu time    8.3998: real time    8.4197

 eigenvalue-minimisations  :  2272
 total energy-change (2. order) : 0.2851850E+02  (-0.1284586E+03)
 number of electron     699.9999995 magnetization       5.4096077
 augmentation part      161.1363073 magnetization       5.5506937

 Broyden mixing:
  rms(total) = 0.14508E+02    rms(broyden)= 0.14508E+02
  rms(prec ) = 0.14829E+02
  weight for this iteration     100.00

 eigenvalues of (default mixing * dielectric matrix)
  average eigenvalue GAMMA=   0.4025
  0.4025

 Free energy of the ion-electron system (eV)
  ---------------------------------------------------
  alpha Z        PSCENC =      4684.17824593
  Ewald energy   TEWEN  =    -46584.22510382
  -Hartree energ DENC   =    -11087.40613458
  -exchange      EXHF   =         0.00000000
  -V(xc)+E(xc)   XCENC  =      2596.79426825
  PAW double counting   =     58939.18817092   -59162.02544339
  entropy T*S    EENTRO =        -0.05098115
  eigenvalues    EBANDS =     -7406.95407209
  atomic energy  EATOM  =     57033.57181776
  Solvation  Ediel_sol  =         0.00000000
  ---------------------------------------------------
  free energy    TOTEN  =      -986.92923215 eV

  energy without entropy =     -986.87825100  energy(sigma->0) =     -986.90374158


--------------------------------------------------------------------------------------------------------




--------------------------------------- Iteration      1(   7)  ---------------------------------------


    POTLOK:  cpu time    0.3039: real time    0.3047
    SETDIJ:  cpu time    0.0453: real time    0.0454
     EDDAV:  cpu time    8.7577: real time    8.7785
    CHARGE:  cpu time    0.5465: real time    0.5478
    MIXING:  cpu time    0.0072: real time    0.0072
    --------------------------------------------
      LOOP:  cpu time    9.6607: real time    9.6836

 eigenvalue-minimisations  :  2368
 total energy-change (2. order) : 0.6175251E+02  (-0.2581383E+02)
 number of electron     699.9999996 magnetization       4.1386133
 augmentation part      159.5761332 magnetization       3.9664908

 Broyden mixing:
  rms(total) = 0.62051E+01    rms(broyden)= 0.62050E+01
  rms(prec ) = 0.65440E+01
  weight for this iteration     100.00

 eigenvalues of (default mixing * dielectric matrix)
  average eigenvalue GAMMA=   0.7904
  0.9067  0.6741

 Free energy of the ion-electron system (eV)
  ---------------------------------------------------
  alpha Z        PSCENC =      4684.17824593
  Ewald energy   TEWEN  =    -46584.22510382
  -Hartree energ DENC   =    -11084.05545912
  -exchange      EXHF   =         0.00000000
  -V(xc)+E(xc)   XCENC  =      2586.76133181
  PAW double counting   =     64926.31574199   -65197.23257063
  entropy T*S    EENTRO =        -0.05448888
  eigenvalues    EBANDS =     -7290.43623764
  atomic energy  EATOM  =     57033.57181776
  Solvation  Ediel_sol  =         0.00000000
  ---------------------------------------------------
  free energy    TOTEN  =      -925.17672260 eV

  energy without entropy =     -925.12223372  energy(sigma->0) =     -925.14947816


--------------------------------------------------------------------------------------------------------




--------------------------------------- Iteration      1(   8)  ---------------------------------------


    POTLOK:  cpu time    0.3035: real time    0.3042
    SETDIJ:  cpu time    0.0456: real time    0.0457
     EDDAV:  cpu time    7.6252: real time    7.6432
    CHARGE:  cpu time    0.3829: real time    0.3838
    MIXING:  cpu time    0.0061: real time    0.0062
    --------------------------------------------
      LOOP:  cpu time    8.3632: real time    8.3830

 eigenvalue-minimisations  :  2240
 total energy-change (2. order) :-0.8178228E+02  (-0.2450587E+02)
 number of electron     699.9999996 magnetization       3.7647036
 augmentation part      148.5149421 magnetization       1.0257144

 Broyden mixing:
  rms(total) = 0.10047E+02    rms(broyden)= 0.10047E+02
  rms(prec ) = 0.12437E+02
  weight for this iteration     100.00

 eigenvalues of (default mixing * dielectric matrix)
  average eigenvalue GAMMA=   0.7329
  1.3703  0.4142  0.4142

 Free energy of the ion-electron system (eV)
  ---------------------------------------------------
  alpha Z        PSCENC =      4684.17824593
  Ewald energy   TEWEN  =    -46584.22510382
  -Hartree energ DENC   =    -11022.72518736
  -exchange      EXHF   =         0.00000000
  -V(xc)+E(xc)   XCENC  =      2577.27202289
  PAW double counting   =     74441.12696756   -74763.87060279
  entropy T*S    EENTRO =        -0.14147342
  eigenvalues    EBANDS =     -7372.14569416
  atomic energy  EATOM  =     57033.57181776
  Solvation  Ediel_sol  =         0.00000000
  ---------------------------------------------------
  free energy    TOTEN  =     -1006.95900741 eV

  energy without entropy =    -1006.81753399  energy(sigma->0) =    -1006.88827070


--------------------------------------------------------------------------------------------------------




--------------------------------------- Iteration      1(   9)  ---------------------------------------


    POTLOK:  cpu time    0.2596: real time    0.2602
    SETDIJ:  cpu time    0.0435: real time    0.0436
     EDDAV:  cpu time   10.1961: real time   10.2203
    CHARGE:  cpu time    0.6720: real time    0.6736
    MIXING:  cpu time    0.0106: real time    0.0106
    --------------------------------------------
      LOOP:  cpu time   11.1819: real time   11.2084

 eigenvalue-minimisations  :  2320
 total energy-change (2. order) : 0.9332974E+02  (-0.4590897E+01)
 number of electron     699.9999997 magnetization       3.1137464
 augmentation part      160.7016925 magnetization       1.2033357

 Broyden mixing:
  rms(total) = 0.30819E+01    rms(broyden)= 0.30817E+01
  rms(prec ) = 0.36749E+01
  weight for this iteration     100.00

 eigenvalues of (default mixing * dielectric matrix)
  average eigenvalue GAMMA=   0.8608
  2.0465  0.5785  0.5785  0.2397

 Free energy of the ion-electron system (eV)
  ---------------------------------------------------
  alpha Z        PSCENC =      4684.17824593
  Ewald energy   TEWEN  =    -46584.22510382
  -Hartree energ DENC   =    -10893.31400206
  -exchange      EXHF   =         0.00000000
  -V(xc)+E(xc)   XCENC  =      2571.50711462
  PAW double counting   =     79267.94412417   -79568.50705639
  entropy T*S    EENTRO =        -0.07511619
  eigenvalues    EBANDS =     -7424.70929433
  atomic energy  EATOM  =     57033.57181776
  Solvation  Ediel_sol  =         0.00000000
  ---------------------------------------------------
  free energy    TOTEN  =      -913.62927030 eV

  energy without entropy =     -913.55415411  energy(sigma->0) =     -913.59171220


--------------------------------------------------------------------------------------------------------




--------------------------------------- Iteration      1(  10)  ---------------------------------------


    POTLOK:  cpu time    0.3487: real time    0.3495
    SETDIJ:  cpu time    0.0497: real time    0.0498
     EDDAV:  cpu time   11.8406: real time   11.8687
    CHARGE:  cpu time    0.6794: real time    0.6810
    MIXING:  cpu time    0.0092: real time    0.0093
    --------------------------------------------
      LOOP:  cpu time   12.9276: real time   12.9582

 eigenvalue-minimisations  :  2368
 total energy-change (2. order) : 0.4422683E+01  (-0.2352470E+01)
 number of electron     699.9999995 magnetization       2.7983563
 augmentation part      160.1869091 magnetization       2.4333459

 Broyden mixing:
  rms(total) = 0.22736E+01    rms(broyden)= 0.22735E+01
  rms(prec ) = 0.27438E+01
  weight for this iteration     100.00

 eigenvalues of (default mixing * dielectric matrix)
  average eigenvalue GAMMA=   0.8848
  2.1739  0.7601  0.7601  0.4661  0.2637

 Free energy of the ion-electron system (eV)
  ---------------------------------------------------
  alpha Z        PSCENC =      4684.17824593
  Ewald energy   TEWEN  =    -46584.22510382
  -Hartree energ DENC   =    -10911.81366903
  -exchange      EXHF   =         0.00000000
  -V(xc)+E(xc)   XCENC  =      2573.79230444
  PAW double counting   =     86701.07172787   -87016.95937129
  entropy T*S    EENTRO =        -0.02060528
  eigenvalues    EBANDS =     -7388.80193361
  atomic energy  EATOM  =     57033.57181776
  Solvation  Ediel_sol  =         0.00000000
  ---------------------------------------------------
  free energy    TOTEN  =      -909.20658703 eV

  energy without entropy =     -909.18598175  energy(sigma->0) =     -909.19628439


--------------------------------------------------------------------------------------------------------




--------------------------------------- Iteration      1(  11)  ---------------------------------------


    POTLOK:  cpu time    0.3384: real time    0.3392
    SETDIJ:  cpu time    0.0477: real time    0.0479
     EDDAV:  cpu time   12.0335: real time   12.0621
    CHARGE:  cpu time    0.6874: real time    0.6890
    MIXING:  cpu time    0.0127: real time    0.0127
    --------------------------------------------
      LOOP:  cpu time   13.1197: real time   13.1509

 eigenvalue-minimisations  :  2368
 total energy-change (2. order) : 0.2114789E+01  (-0.1574690E+01)
 number of electron     699.9999996 magnetization       2.3210474
 augmentation part      159.9483804 magnetization       2.1094279

 Broyden mixing:
  rms(total) = 0.20383E+01    rms(broyden)= 0.20383E+01
  rms(prec ) = 0.25267E+01
  weight for this iteration     100.00

 eigenvalues of (default mixing * dielectric matrix)
  average eigenvalue GAMMA=   0.8277
  2.1918  0.8393  0.8393  0.4253  0.4253  0.2455

 Free energy of the ion-electron system (eV)
  ---------------------------------------------------
  alpha Z        PSCENC =      4684.17824593
  Ewald energy   TEWEN  =    -46584.22510382
  -Hartree energ DENC   =    -10926.67946792
  -exchange      EXHF   =         0.00000000
  -V(xc)+E(xc)   XCENC  =      2574.35713748
  PAW double counting   =     87424.21131010   -87741.01515612
  entropy T*S    EENTRO =        -0.05995147
  eigenvalues    EBANDS =     -7371.43063021
  atomic energy  EATOM  =     57033.57181776
  Solvation  Ediel_sol  =         0.00000000
  ---------------------------------------------------
  free energy    TOTEN  =      -907.09179826 eV

  energy without entropy =     -907.03184680  energy(sigma->0) =     -907.06182253


--------------------------------------------------------------------------------------------------------




--------------------------------------- Iteration      1(  12)  ---------------------------------------


    POTLOK:  cpu time    0.3456: real time    0.3464
    SETDIJ:  cpu time    0.0483: real time    0.0484
     EDDAV:  cpu time   12.1902: real time   12.2190
    CHARGE:  cpu time    0.6900: real time    0.6917
    MIXING:  cpu time    0.0128: real time    0.0128
    --------------------------------------------
      LOOP:  cpu time   13.2868: real time   13.3183

 eigenvalue-minimisations  :  2448
 total energy-change (2. order) : 0.2746405E+01  (-0.1115043E+00)
 number of electron     699.9999996 magnetization       2.0494487
 augmentation part      159.7340820 magnetization       1.9324511

 Broyden mixing:
  rms(total) = 0.18376E+01    rms(broyden)= 0.18376E+01
  rms(prec ) = 0.22805E+01
  weight for this iteration     100.00

 eigenvalues of (default mixing * dielectric matrix)
  average eigenvalue GAMMA=   0.8546
  2.1694  0.8564  0.8564  0.6802  0.6802  0.2543  0.4855

 Free energy of the ion-electron system (eV)
  ---------------------------------------------------
  alpha Z        PSCENC =      4684.17824593
  Ewald energy   TEWEN  =    -46584.22510382
  -Hartree energ DENC   =    -10942.05984917
  -exchange      EXHF   =         0.00000000
  -V(xc)+E(xc)   XCENC  =      2575.04558485
  PAW double counting   =     87967.66003817   -88283.65037134
  entropy T*S    EENTRO =        -0.05546465
  eigenvalues    EBANDS =     -7354.81029136
  atomic energy  EATOM  =     57033.57181776
  Solvation  Ediel_sol  =         0.00000000
  ---------------------------------------------------
  free energy    TOTEN  =      -904.34539361 eV

  energy without entropy =     -904.28992896  energy(sigma->0) =     -904.31766129


--------------------------------------------------------------------------------------------------------




--------------------------------------- Iteration      1(  13)  ---------------------------------------


    POTLOK:  cpu time    0.3503: real time    0.3511
    SETDIJ:  cpu time    0.0475: real time    0.0476
     EDDAV:  cpu time   12.7204: real time   12.7505
    CHARGE:  cpu time    0.6687: real time    0.6703
    MIXING:  cpu time    0.0110: real time    0.0110
    --------------------------------------------
      LOOP:  cpu time   13.7978: real time   13.8305

 eigenvalue-minimisations  :  2576
 total energy-change (2. order) : 0.1787269E+01  (-0.6177161E-01)
 number of electron     699.9999996 magnetization       1.4090936
 augmentation part      159.5697157 magnetization       1.2717602

 Broyden mixing:
  rms(total) = 0.16724E+01    rms(broyden)= 0.16724E+01
  rms(prec ) = 0.20756E+01
  weight for this iteration     100.00

 eigenvalues of (default mixing * dielectric matrix)
  average eigenvalue GAMMA=   1.0410
  1.9628  1.9628  1.6074  0.7758  0.7758  0.2530  0.4950  0.4950

 Free energy of the ion-electron system (eV)
  ---------------------------------------------------
  alpha Z        PSCENC =      4684.17824593
  Ewald energy   TEWEN  =    -46584.22510382
  -Hartree energ DENC   =    -10948.52811824
  -exchange      EXHF   =         0.00000000
  -V(xc)+E(xc)   XCENC  =      2575.24234531
  PAW double counting   =     87998.82530280   -88313.84007190
  entropy T*S    EENTRO =        -0.05531420
  eigenvalues    EBANDS =     -7347.72722851
  atomic energy  EATOM  =     57033.57181776
  Solvation  Ediel_sol  =         0.00000000
  ---------------------------------------------------
  free energy    TOTEN  =      -902.55812486 eV

  energy without entropy =     -902.50281066  energy(sigma->0) =     -902.53046776


--------------------------------------------------------------------------------------------------------




--------------------------------------- Iteration      1(  14)  ---------------------------------------


    POTLOK:  cpu time    0.3480: real time    0.3488
    SETDIJ:  cpu time    0.0492: real time    0.0493
     EDDAV:  cpu time   11.8369: real time   11.8650
    CHARGE:  cpu time    0.6890: real time    0.6906
    MIXING:  cpu time    0.0092: real time    0.0092
    --------------------------------------------
      LOOP:  cpu time   12.9322: real time   12.9628

 eigenvalue-minimisations  :  2368
 total energy-change (2. order) : 0.2843028E+01  (-0.6724540E+00)
 number of electron     699.9999996 magnetization       1.4064631
 augmentation part      157.7872289 magnetization       1.5396714

 Broyden mixing:
  rms(total) = 0.97071E+00    rms(broyden)= 0.96978E+00
  rms(prec ) = 0.99799E+00
  weight for this iteration     100.00

 eigenvalues of (default mixing * dielectric matrix)
  average eigenvalue GAMMA=   0.9415
  1.8869  1.8869  1.8128  0.7698  0.7698  0.4937  0.4937  0.2531  0.1071

 Free energy of the ion-electron system (eV)
  ---------------------------------------------------
  alpha Z        PSCENC =      4684.17824593
  Ewald energy   TEWEN  =    -46584.22510382
  -Hartree energ DENC   =    -10961.82180066
  -exchange      EXHF   =         0.00000000
  -V(xc)+E(xc)   XCENC  =      2575.60444637
  PAW double counting   =     87981.01093449   -88292.61217756
  entropy T*S    EENTRO =        -0.08003523
  eigenvalues    EBANDS =     -7335.34142423
  atomic energy  EATOM  =     57033.57181776
  Solvation  Ediel_sol  =         0.00000000
  ---------------------------------------------------
  free energy    TOTEN  =      -899.71509693 eV

  energy without entropy =     -899.63506170  energy(sigma->0) =     -899.67507931


--------------------------------------------------------------------------------------------------------




--------------------------------------- Iteration      1(  15)  ---------------------------------------


    POTLOK:  cpu time    0.3449: real time    0.3457
    SETDIJ:  cpu time    0.0474: real time    0.0475
     EDDAV:  cpu time   11.0273: real time   11.0535
    CHARGE:  cpu time    0.6812: real time    0.6828
    MIXING:  cpu time    0.0139: real time    0.0139
    --------------------------------------------
      LOOP:  cpu time   12.1148: real time   12.1435

 eigenvalue-minimisations  :  2160
 total energy-change (2. order) : 0.9094184E-01  (-0.4724312E-01)
 number of electron     699.9999997 magnetization       1.3819264
 augmentation part      158.0226204 magnetization       1.9782359

 Broyden mixing:
  rms(total) = 0.10719E+01    rms(broyden)= 0.10718E+01
  rms(prec ) = 0.10906E+01
  weight for this iteration     100.00

 eigenvalues of (default mixing * dielectric matrix)
  average eigenvalue GAMMA=   0.8712
  2.3379  2.3379  0.9197  0.8715  0.8715  0.4922  0.4922  0.2531  0.1174  0.0185

 Free energy of the ion-electron system (eV)
  ---------------------------------------------------
  alpha Z        PSCENC =      4684.17824593
  Ewald energy   TEWEN  =    -46584.22510382
  -Hartree energ DENC   =    -10961.77112193
  -exchange      EXHF   =         0.00000000
  -V(xc)+E(xc)   XCENC  =      2575.60033745
  PAW double counting   =     87980.90059216   -88292.60247675
  entropy T*S    EENTRO =        -0.06053454
  eigenvalues    EBANDS =     -7335.21591136
  atomic energy  EATOM  =     57033.57181776
  Solvation  Ediel_sol  =         0.00000000
  ---------------------------------------------------
  free energy    TOTEN  =      -899.62415509 eV

  energy without entropy =     -899.56362055  energy(sigma->0) =     -899.59388782


--------------------------------------------------------------------------------------------------------




--------------------------------------- Iteration      1(  16)  ---------------------------------------


    POTLOK:  cpu time    0.3580: real time    0.3588
    SETDIJ:  cpu time    0.0486: real time    0.0487
     EDDAV:  cpu time   12.2455: real time   12.2745
    CHARGE:  cpu time    0.6859: real time    0.6875
    MIXING:  cpu time    0.0109: real time    0.0109
    --------------------------------------------
      LOOP:  cpu time   13.3489: real time   13.3804

 eigenvalue-minimisations  :  2448
 total energy-change (2. order) : 0.7892406E-01  (-0.6910988E-02)
 number of electron     699.9999997 magnetization       1.3990040
 augmentation part      157.6962634 magnetization       1.2931763

 Broyden mixing:
  rms(total) = 0.96269E+00    rms(broyden)= 0.96250E+00
  rms(prec ) = 0.10064E+01
  weight for this iteration     100.00

 eigenvalues of (default mixing * dielectric matrix)
  average eigenvalue GAMMA=   0.8291
  2.4930  2.4930  0.8692  0.8207  0.8207  0.4873  0.4873  0.2532  0.1934  0.1346
  0.0674

 Free energy of the ion-electron system (eV)
  ---------------------------------------------------
  alpha Z        PSCENC =      4684.17824593
  Ewald energy   TEWEN  =    -46584.22510382
  -Hartree energ DENC   =    -10963.83483694
  -exchange      EXHF   =         0.00000000
  -V(xc)+E(xc)   XCENC  =      2575.61820690
  PAW double counting   =     88026.01637175   -88337.23609833
  entropy T*S    EENTRO =        -0.08918732
  eigenvalues    EBANDS =     -7333.54464697
  atomic energy  EATOM  =     57033.57181776
  Solvation  Ediel_sol  =         0.00000000
  ---------------------------------------------------
  free energy    TOTEN  =      -899.54523103 eV

  energy without entropy =     -899.45604371  energy(sigma->0) =     -899.50063737


--------------------------------------------------------------------------------------------------------




--------------------------------------- Iteration      1(  17)  ---------------------------------------


    POTLOK:  cpu time    0.3455: real time    0.3464
    SETDIJ:  cpu time    0.0490: real time    0.0491
     EDDAV:  cpu time   11.8520: real time   11.8800
    CHARGE:  cpu time    0.7027: real time    0.7044
    MIXING:  cpu time    0.0152: real time    0.0153
    --------------------------------------------
      LOOP:  cpu time   12.9644: real time   12.9951

 eigenvalue-minimisations  :  2352
 total energy-change (2. order) :-0.3283954E+00  (-0.6419375E-01)
 number of electron     699.9999997 magnetization       1.3179450
 augmentation part      157.3258823 magnetization      -0.0264221

 Broyden mixing:
  rms(total) = 0.15217E+01    rms(broyden)= 0.15212E+01
  rms(prec ) = 0.16678E+01
  weight for this iteration     100.00

 eigenvalues of (default mixing * dielectric matrix)
  average eigenvalue GAMMA=   0.7934
  2.5334  2.5334  0.9629  0.7914  0.7914  0.4890  0.4890  0.1846  0.2531  0.2040
  0.2040  0.0848

 Free energy of the ion-electron system (eV)
  ---------------------------------------------------
  alpha Z        PSCENC =      4684.17824593
  Ewald energy   TEWEN  =    -46584.22510382
  -Hartree energ DENC   =    -10966.76671961
  -exchange      EXHF   =         0.00000000
  -V(xc)+E(xc)   XCENC  =      2575.73810257
  PAW double counting   =     88078.47943359   -88388.93073006
  entropy T*S    EENTRO =        -0.08844599
  eigenvalues    EBANDS =     -7331.83022686
  atomic energy  EATOM  =     57033.57181776
  Solvation  Ediel_sol  =         0.00000000
  ---------------------------------------------------
  free energy    TOTEN  =      -899.87362647 eV

  energy without entropy =     -899.78518048  energy(sigma->0) =     -899.82940347


--------------------------------------------------------------------------------------------------------




--------------------------------------- Iteration      1(  18)  ---------------------------------------


    POTLOK:  cpu time    0.3465: real time    0.3473
    SETDIJ:  cpu time    0.0490: real time    0.0491
     EDDAV:  cpu time   11.2341: real time   11.2607
    CHARGE:  cpu time    0.4786: real time    0.4797
    MIXING:  cpu time    0.0124: real time    0.0124
    --------------------------------------------
      LOOP:  cpu time   12.1205: real time   12.1492

 eigenvalue-minimisations  :  2320
 total energy-change (2. order) :-0.5185659E+00  (-0.5671316E-01)
 number of electron     699.9999997 magnetization       1.4262576
 augmentation part      156.8923695 magnetization      -0.2812911

 Broyden mixing:
  rms(total) = 0.17950E+01    rms(broyden)= 0.17949E+01
  rms(prec ) = 0.20361E+01
  weight for this iteration     100.00

 eigenvalues of (default mixing * dielectric matrix)
  average eigenvalue GAMMA=   0.7370
  2.3706  2.3706  1.0098  0.7905  0.7905  0.4841  0.4841  0.2532  0.2631  0.2631
  0.2167  0.2050  0.0793

 Free energy of the ion-electron system (eV)
  ---------------------------------------------------
  alpha Z        PSCENC =      4684.17824593
  Ewald energy   TEWEN  =    -46584.22510382
  -Hartree energ DENC   =    -10970.08964045
  -exchange      EXHF   =         0.00000000
  -V(xc)+E(xc)   XCENC  =      2575.94061915
  PAW double counting   =     88075.52719591   -88385.53160311
  entropy T*S    EENTRO =        -0.09179501
  eigenvalues    EBANDS =     -7329.67192870
  atomic energy  EATOM  =     57033.57181776
  Solvation  Ediel_sol  =         0.00000000
  ---------------------------------------------------
  free energy    TOTEN  =      -900.39219234 eV

  energy without entropy =     -900.30039732  energy(sigma->0) =     -900.34629483


--------------------------------------------------------------------------------------------------------




--------------------------------------- Iteration      1(  19)  ---------------------------------------


    POTLOK:  cpu time    0.3127: real time    0.3135
    SETDIJ:  cpu time    0.0446: real time    0.0447
     EDDAV:  cpu time    8.0200: real time    8.0390
    CHARGE:  cpu time    0.5612: real time    0.5626
    MIXING:  cpu time    0.0108: real time    0.0108
    --------------------------------------------
      LOOP:  cpu time    8.9493: real time    8.9706

 eigenvalue-minimisations  :  2432
 total energy-change (2. order) : 0.4782723E+00  (-0.7802879E-01)
 number of electron     699.9999997 magnetization       1.2678065
 augmentation part      157.4656393 magnetization       0.9508434

 Broyden mixing:
  rms(total) = 0.13899E+01    rms(broyden)= 0.13898E+01
  rms(prec ) = 0.14501E+01
  weight for this iteration     100.00

 eigenvalues of (default mixing * dielectric matrix)
  average eigenvalue GAMMA=   0.7291
  2.5066  2.5066  0.9545  0.7770  0.7770  0.4813  0.4813  0.3595  0.3595  0.2398
  0.2530  0.2153  0.2153  0.0803

 Free energy of the ion-electron system (eV)
  ---------------------------------------------------
  alpha Z        PSCENC =      4684.17824593
  Ewald energy   TEWEN  =    -46584.22510382
  -Hartree energ DENC   =    -10966.52315871
  -exchange      EXHF   =         0.00000000
  -V(xc)+E(xc)   XCENC  =      2575.87007788
  PAW double counting   =     88057.18978861   -88367.87059469
  entropy T*S    EENTRO =        -0.04731020
  eigenvalues    EBANDS =     -7332.05768285
  atomic energy  EATOM  =     57033.57181776
  Solvation  Ediel_sol  =         0.00000000
  ---------------------------------------------------
  free energy    TOTEN  =      -899.91392008 eV

  energy without entropy =     -899.86660988  energy(sigma->0) =     -899.89026498


--------------------------------------------------------------------------------------------------------




--------------------------------------- Iteration      1(  20)  ---------------------------------------


    POTLOK:  cpu time    0.3032: real time    0.3039
    SETDIJ:  cpu time    0.0453: real time    0.0454
     EDDAV:  cpu time    8.8363: real time    8.8572
    CHARGE:  cpu time    0.5565: real time    0.5578
    MIXING:  cpu time    0.0111: real time    0.0111
    --------------------------------------------
      LOOP:  cpu time    9.7523: real time    9.7754

 eigenvalue-minimisations  :  2368
 total energy-change (2. order) :-0.3216728E+00  (-0.1544904E-01)
 number of electron     699.9999997 magnetization       1.3428903
 augmentation part      157.0628435 magnetization       1.1436778

 Broyden mixing:
  rms(total) = 0.15499E+01    rms(broyden)= 0.15499E+01
  rms(prec ) = 0.16955E+01
  weight for this iteration     100.00

 eigenvalues of (default mixing * dielectric matrix)
  average eigenvalue GAMMA=   0.7144
  2.4277  2.4277  0.9865  0.7646  0.7646  0.4946  0.4946  0.2525  0.4833  0.4833
[...]
      5.85828     15.76628      4.90872        -0.094072     -0.006171      0.013586
      5.80309      5.28194      6.51212         0.001215      0.015655      0.008744
      7.42871     10.50596      5.70387        -0.001215     -0.015655     -0.008744
      8.82120      0.02699      4.88987        -0.000000      0.006558      0.002655
     10.21369     10.50596      5.70387         0.001215     -0.015655     -0.008744
     11.78411     15.76628      4.90872         0.094072     -0.006171      0.013586
     11.83931      5.28194      6.51212        -0.001215      0.015655      0.008744
      8.82120      5.27299      6.50374        -0.000000      0.005924      0.004331
      4.41060     10.51491      5.71225        -0.000000     -0.005924     -0.004331
      4.41060      8.01623      7.24194        -0.000000      0.015635     -0.008312
      8.82120     13.09378      1.65641        -0.000000     -0.014460     -0.005399
      1.46254      2.65581      0.81900        -0.005567      0.004216      0.002628
      7.40738      7.81796      7.30529         0.002694     -0.008354      0.001510
      2.93022     13.12669      1.64568         0.005457     -0.005356     -0.007283
      4.41060      2.75762      0.75615        -0.000000      0.027074     -0.008910
     10.23502      7.81796      7.30529        -0.002694     -0.008354      0.001510
      5.89097     13.12669      1.64568        -0.005457     -0.005356     -0.007283
      7.35865      2.65581      0.81900         0.005567      0.004216      0.002628
      7.32086      7.88484      2.45349        -0.004047     -0.000000     -0.000000
      7.35865     13.11387      4.08798         0.005567     -0.004216     -0.002628
      8.82120      2.67590      3.25058        -0.000000      0.014460      0.005399
      1.50034      7.88484      2.45349         0.004047     -0.000000     -0.000000
     10.28374     13.11387      4.08798        -0.005567     -0.004216     -0.002628
      2.93022      2.64300      3.26130         0.005457      0.005356      0.007283
      4.41060      7.88484      2.45349        -0.000000     -0.000000     -0.000000
      4.41060     13.01207      4.15083        -0.000000     -0.027074      0.008910
      5.89097      2.64300      3.26130        -0.005457      0.005356      0.007283
      5.82442      7.96993      4.91070        -0.002694      0.008354     -0.001510
      5.82949     13.03341      6.48730        -0.006659     -0.014178     -0.002342
      7.40231      2.75449      5.72869         0.006659      0.014178      0.002342
      8.82120      7.77166      4.97405         0.000000     -0.015635      0.008312
      8.82120     13.12989      6.51139        -0.000000     -0.009489      0.006183
     10.24009      2.75449      5.72869        -0.006659      0.014178      0.002342
      2.99678      7.96993      4.91070         0.002694      0.008354     -0.001510
     11.81291     13.03341      6.48730         0.006659     -0.014178     -0.002342
      4.41060      2.65801      5.70460        -0.000000      0.009489     -0.006183
      8.82120     11.69808      0.05517        -0.000000      0.001736      0.000174
      8.82120      3.81677      0.02546        -0.000000     -0.009579      0.004327
      8.82120      1.33292      1.67188         0.000000      0.037781     -0.056719
      8.82120      9.19140      1.57836        -0.000000      0.026918     -0.012656
      1.49220      6.61479      0.84578        -0.005188      0.004474     -0.002045
      1.46992     14.40454      0.78991         0.020035      0.014249     -0.027230
      7.32836     11.87201      7.34461         0.001887      0.012251     -0.014108
      2.90051      4.01389      0.00617        -0.010162      0.007554      0.011705
      2.94559      1.36705      1.66953        -0.012466     -0.025622      0.033028
      2.98164      9.06615      1.60864         0.007453     -0.007675     -0.002760
      4.41060      6.41898      0.85359         0.000000      0.003012      0.009754
      4.41060     14.37231      0.80925         0.000000     -0.029433      0.045879
     10.31403     11.87201      7.34461        -0.001887      0.012251     -0.014108
      5.92069      4.01389      0.00617         0.010162      0.007554      0.011705
      5.87561      1.36705      1.66953         0.012466     -0.025622      0.033028
      5.83956      9.06615      1.60864        -0.007453     -0.007675     -0.002760
      7.32900      6.61479      0.84578         0.005188      0.004474     -0.002045
      7.35128     14.40454      0.78991        -0.020035      0.014249     -0.027230
      7.38773     11.94455      2.48047        -0.002134      0.005503     -0.008624
      7.38773      3.82514      2.42652        -0.002134     -0.005503      0.008624
      7.35128      1.36515      4.11708        -0.020035     -0.014249      0.027230
      7.32900      9.15490      4.06120         0.005188     -0.004474      0.002045
      8.82120      6.57829      3.32863         0.000000     -0.026918      0.012656
      8.82120     14.43677      3.23510        -0.000000     -0.037781      0.056719
     10.25467     11.94455      2.48047         0.002134      0.005503     -0.008624
     10.25467      3.82514      2.42652         0.002134     -0.005503      0.008624
     10.29112      1.36515      4.11708         0.020035     -0.014249      0.027230
     10.31339      9.15490      4.06120        -0.005188     -0.004474      0.002045
      2.98164      6.70354      3.29834         0.007453      0.007675      0.002760
      2.94559     14.40264      3.23746        -0.012466      0.025622     -0.033028
      4.41060     11.81177      2.51665         0.000000     -0.015475      0.006807
      4.41060      3.95792      2.39033        -0.000000      0.015475     -0.006807
      4.41060      1.39738      4.09773        -0.000000      0.029433     -0.045879
      4.41060      9.35071      4.05340        -0.000000     -0.003012     -0.009754
      5.83956      6.70354      3.29834        -0.007453      0.007675      0.002760
      5.87561     14.40264      3.23746         0.012466      0.025622     -0.033028
      5.92069     11.75580      4.90081         0.010162     -0.007554     -0.011705
      5.90343      3.91588      4.87139        -0.001887     -0.012251      0.014108
      5.88576      1.36199      6.55326         0.014402     -0.022771      0.031089
      5.91532      9.28151      6.50350         0.004796      0.012427     -0.002915
      7.31648      6.50639      5.71249        -0.004796     -0.012427      0.002915
      7.34604     14.42590      5.66274        -0.014402      0.022771     -0.031089
      8.82120     11.95292      4.88152        -0.000000      0.009579     -0.004327
      8.82120      4.07161      4.85181        -0.000000     -0.001736     -0.000174
      8.82120      1.42666      6.53406        -0.000000      0.035574     -0.042324
      8.82120      9.05444      6.52678        -0.000000     -0.005812     -0.004293
     10.32592      6.50639      5.71249         0.004796     -0.012427      0.002915
     10.29636     14.42590      5.66274         0.014402      0.022771     -0.031089
     11.72171     11.75580      4.90081        -0.010162     -0.007554     -0.011705
     11.73896      3.91588      4.87139         0.001887     -0.012251      0.014108
     11.75664      1.36199      6.55326        -0.014402     -0.022771      0.031089
     11.72708      9.28151      6.50350        -0.004796      0.012427     -0.002915
      4.41060      6.73345      5.68921        -0.000000      0.005812      0.004293
      4.41060     14.36124      5.68193         0.000000     -0.035574      0.042324
 -----------------------------------------------------------------------------------
    total drift:                                0.000013     -0.000526      0.001768


--------------------------------------------------------------------------------------------------------



  FREE ENERGIE OF THE ION-ELECTRON SYSTEM (eV)
  ---------------------------------------------------
  free  energy   TOTEN  =      -900.7241573468 eV

  energy  without entropy=     -900.6897739793  energy(sigma->0) =     -900.70696566
 
 d Force =-0.3576329E-03[-0.742E-03, 0.263E-04]  d Energy = 0.4128154E-04-0.399E-03
 d Force =-0.1766511E+01[-0.179E+01,-0.175E+01]  d Ewald  =-0.1423725E+01-0.343E+00


--------------------------------------------------------------------------------------------------------


    POTLOK:  cpu time    0.3218: real time    0.3226


--------------------------------------------------------------------------------------------------------


 Quasi-Newton relaxation of ions (Broydens 2nd method)
  g(Force)  = 0.560E-02   g(Stress)= 0.591E-04

 retain information from N=  4 steps
 eigenvalues of (default step * inverse Hessian matrix)
  average eigenvalue of G=   2.4074
 eigenvalue spectrum of G is  4.2073  4.2073  0.6856  0.5296


--------------------------------------------------------------------------------------------------------


     LOOP+:  cpu time   88.9213: real time   89.3276
    4ORBIT:  cpu time    0.0000: real time    0.0000

volume of typ            1:    24.8 %

volume of typ            2:     1.3 %

volume of typ            3:    20.7 %

volume of typ            4:     8.7 %
 
total charge     
 
# of ion       s       p       d       tot
------------------------------------------
    1        0.227   6.073   2.240   8.540
    2        0.225   6.059   2.302   8.586
    3        0.236   6.090   2.196   8.522
    4        0.224   6.067   2.247   8.538
    5        0.237   6.091   2.192   8.521
    6        0.225   6.060   2.299   8.585
    7        0.224   6.067   2.247   8.538
    8        0.237   6.091   2.192   8.521
    9        0.236   6.090   2.196   8.522
   10        0.226   6.073   2.230   8.529
   11        0.236   6.090   2.196   8.522
   12        0.225   6.059   2.302   8.586
   13        0.226   6.073   2.230   8.529
   14        0.236   6.090   2.196   8.522
   15        0.237   6.091   2.192   8.521
   16        0.225   6.068   2.256   8.550
   17        0.225   6.060   2.299   8.585
   18        0.237   6.091   2.192   8.521
   19        0.224   6.067   2.247   8.538
   20        0.233   6.082   2.209   8.524
   21        0.233   6.082   2.209   8.524
   22        0.227   6.073   2.240   8.540
   23        0.233   6.082   2.209   8.524
   24        0.224   6.067   2.247   8.538
   25        0.233   6.082   2.209   8.524
   26        0.203   0.228   8.009   8.441
   27        0.203   0.228   8.009   8.441
   28        2.079   0.260   0.106   2.445
   29        2.086   0.282   0.117   2.486
   30        2.088   0.288   0.121   2.497
   31        2.083   0.269   0.109   2.461
   32        2.083   0.271   0.113   2.466
   33        2.079   0.258   0.104   2.441
   34        2.083   0.269   0.109   2.461
   35        2.083   0.271   0.113   2.466
   36        2.088   0.288   0.121   2.497
   37        2.082   0.270   0.112   2.464
   38        2.088   0.288   0.121   2.497
   39        2.086   0.282   0.117   2.486
   40        2.082   0.270   0.112   2.464
   41        2.088   0.288   0.121   2.497
   42        2.083   0.271   0.113   2.466
   43        2.089   0.290   0.121   2.500
   44        2.079   0.258   0.104   2.441
   45        2.083   0.271   0.113   2.466
   46        2.083   0.269   0.109   2.461
   47        2.079   0.256   0.103   2.438
   48        2.079   0.256   0.103   2.438
   49        2.079   0.260   0.106   2.445
   50        2.083   0.271   0.113   2.467
   51        2.079   0.256   0.103   2.438
   52        2.083   0.269   0.109   2.461
   53        2.079   0.256   0.103   2.438
   54        2.083   0.271   0.113   2.467
   55        1.240   2.847   0.005   4.092
   56        1.242   2.849   0.006   4.097
   57        1.245   2.845   0.006   4.097
   58        1.243   2.849   0.006   4.098
   59        1.245   2.844   0.006   4.095
   60        1.244   2.841   0.006   4.091
   61        1.243   2.847   0.006   4.097
   62        1.242   2.843   0.005   4.091
   63        1.244   2.842   0.006   4.092
   64        1.244   2.844   0.006   4.094
   65        1.242   2.848   0.005   4.095
   66        1.243   2.843   0.006   4.092
   67        1.243   2.847   0.006   4.097
   68        1.242   2.843   0.005   4.091
   69        1.244   2.842   0.006   4.092
   70        1.244   2.844   0.006   4.094
   71        1.245   2.844   0.006   4.095
   72        1.244   2.841   0.006   4.091
   73        1.242   2.848   0.006   4.097
   74        1.242   2.848   0.006   4.097
   75        1.244   2.841   0.006   4.091
   76        1.245   2.844   0.006   4.095
   77        1.243   2.849   0.006   4.098
   78        1.245   2.845   0.006   4.097
   79        1.242   2.848   0.006   4.097
   80        1.242   2.848   0.006   4.097
   81        1.244   2.841   0.006   4.091
   82        1.245   2.844   0.006   4.095
   83        1.244   2.844   0.006   4.094
   84        1.244   2.842   0.006   4.092
   85        1.243   2.851   0.006   4.099
   86        1.243   2.851   0.006   4.099
   87        1.243   2.843   0.006   4.092
   88        1.242   2.848   0.005   4.095
   89        1.244   2.844   0.006   4.094
   90        1.244   2.842   0.006   4.092
   91        1.242   2.843   0.005   4.091
   92        1.243   2.847   0.006   4.097
   93        1.244   2.843   0.006   4.093
   94        1.244   2.841   0.005   4.090
   95        1.244   2.841   0.005   4.090
   96        1.244   2.843   0.006   4.093
   97        1.242   2.849   0.006   4.097
   98        1.240   2.847   0.005   4.092
   99        1.242   2.843   0.006   4.091
  100        1.242   2.847   0.006   4.095
  101        1.244   2.841   0.005   4.090
  102        1.244   2.843   0.006   4.093
  103        1.242   2.843   0.005   4.091
  104        1.243   2.847   0.006   4.097
  105        1.244   2.843   0.006   4.093
  106        1.244   2.841   0.005   4.090
  107        1.242   2.847   0.006   4.095
  108        1.242   2.843   0.006   4.091
--------------------------------------------------
tot         129.53  313.30   75.13  517.95
 
magnetization (x)
 
# of ion       s       p       d       tot
------------------------------------------
    1        0.001   0.001   0.090   0.092
    2        0.000  -0.001  -0.012  -0.013
    3       -0.001  -0.002  -0.102  -0.105
    4        0.001   0.002   0.081   0.084
    5       -0.001  -0.002  -0.102  -0.105
    6        0.000  -0.001  -0.012  -0.013
    7        0.001   0.002   0.081   0.084
    8       -0.001  -0.002  -0.102  -0.105
    9       -0.001  -0.002  -0.102  -0.105
   10        0.001   0.001   0.098   0.100
   11       -0.001  -0.002  -0.102  -0.105
   12        0.000  -0.001  -0.012  -0.013
   13        0.001   0.001   0.098   0.100
   14       -0.001  -0.002  -0.102  -0.105
   15       -0.001  -0.002  -0.102  -0.105
   16        0.000   0.001   0.039   0.040
   17        0.000  -0.001  -0.012  -0.013
   18       -0.001  -0.002  -0.102  -0.105
   19        0.001   0.002   0.081   0.084
   20       -0.001  -0.001  -0.055  -0.056
   21       -0.001  -0.001  -0.055  -0.056
   22        0.001   0.001   0.090   0.092
   23       -0.001  -0.001  -0.055  -0.056
   24        0.001   0.002   0.081   0.084
   25       -0.001  -0.001  -0.055  -0.056
   26        0.002   0.001   1.294   1.298
   27        0.002   0.001   1.294   1.298
   28       -0.000  -0.000  -0.000  -0.000
   29        0.001   0.002   0.001   0.004
   30        0.001   0.002   0.000   0.003
   31        0.000   0.001   0.000   0.002
   32        0.000   0.000   0.000   0.000
   33        0.000   0.000  -0.000  -0.000
   34        0.000   0.001   0.000   0.002
   35        0.000   0.000   0.000   0.000
   36        0.001   0.002   0.000   0.003
   37       -0.000   0.000  -0.000  -0.000
   38        0.001   0.002   0.000   0.003
   39        0.001   0.002   0.001   0.004
   40       -0.000   0.000  -0.000  -0.000
   41        0.001   0.002   0.000   0.003
   42        0.000   0.000   0.000   0.000
   43        0.002   0.003   0.001   0.006
   44        0.000   0.000  -0.000  -0.000
   45        0.000   0.000   0.000   0.000
   46        0.000   0.001   0.000   0.002
   47       -0.000   0.000  -0.000   0.000
   48       -0.000   0.000  -0.000   0.000
   49       -0.000  -0.000  -0.000  -0.000
   50        0.000   0.000  -0.000   0.000
   51       -0.000   0.000  -0.000   0.000
   52        0.000   0.001   0.000   0.002
   53       -0.000   0.000  -0.000   0.000
   54        0.000   0.000  -0.000   0.000
   55        0.004   0.047   0.000   0.051
   56        0.000   0.001  -0.000   0.001
   57        0.000   0.017   0.000   0.017
   58        0.000  -0.000  -0.000  -0.001
   59       -0.000  -0.005  -0.000  -0.006
   60        0.001   0.013   0.000   0.013
   61       -0.000  -0.005  -0.000  -0.005
   62        0.004   0.038  -0.000   0.042
   63        0.000   0.011   0.000   0.012
   64       -0.000  -0.004  -0.000  -0.005
   65        0.004   0.047   0.000   0.051
   66        0.001   0.020   0.000   0.021
   67       -0.000  -0.005  -0.000  -0.005
   68        0.004   0.038  -0.000   0.042
   69        0.000   0.011   0.000   0.012
   70       -0.000  -0.004  -0.000  -0.005
   71       -0.000  -0.005  -0.000  -0.006
   72        0.001   0.013   0.000   0.013
   73       -0.000  -0.004  -0.000  -0.004
   74       -0.000  -0.004  -0.000  -0.004
   75        0.001   0.013   0.000   0.013
   76       -0.000  -0.005  -0.000  -0.006
   77        0.000  -0.000  -0.000  -0.001
   78        0.000   0.017   0.000   0.017
   79       -0.000  -0.004  -0.000  -0.004
   80       -0.000  -0.004  -0.000  -0.004
   81        0.001   0.013   0.000   0.013
   82       -0.000  -0.005  -0.000  -0.006
   83       -0.000  -0.004  -0.000  -0.005
   84        0.000   0.011   0.000   0.012
   85        0.000   0.000  -0.000   0.000
   86        0.000   0.000  -0.000   0.000
   87        0.001   0.020   0.000   0.021
   88        0.004   0.047   0.000   0.051
   89       -0.000  -0.004  -0.000  -0.005
   90        0.000   0.011   0.000   0.012
   91        0.004   0.038  -0.000   0.042
   92       -0.000  -0.005  -0.000  -0.005
   93        0.000   0.013   0.000   0.014
   94        0.004   0.038  -0.000   0.042
   95        0.004   0.038  -0.000   0.042
   96        0.000   0.013   0.000   0.014
   97        0.000   0.001  -0.000   0.001
   98        0.004   0.047   0.000   0.051
   99        0.001   0.017   0.000   0.017
  100        0.000   0.001  -0.000   0.001
  101        0.004   0.038  -0.000   0.042
  102        0.000   0.013   0.000   0.014
  103        0.004   0.038  -0.000   0.042
  104       -0.000  -0.005  -0.000  -0.005
  105        0.000   0.013   0.000   0.014
  106        0.004   0.038  -0.000   0.042
  107        0.000   0.001  -0.000   0.001
  108        0.001   0.017   0.000   0.017
--------------------------------------------------
tot           0.06    0.70    2.25    3.01
 

 total amount of memory used by VASP MPI-rank0   170646. kBytes
=======================================================================

   base      :      30000. kBytes
   nonlr-proj:      53533. kBytes
   fftplans  :      10383. kBytes
   grid      :      63467. kBytes
   one-center:       1679. kBytes
   wavefun   :      11584. kBytes
 
  
  
 General timing and accounting informations for this job:
 ========================================================
  
                  Total CPU time used (sec):     5429.549
                            User time (sec):     5384.654
                          System time (sec):       44.895
                         Elapsed time (sec):     5450.514
  
                   Maximum memory used (kb):      254932.
                   Average memory used (kb):           0.
  
                          Minor page faults:        47402
                          Major page faults:           57
                 Voluntary context switches:         1424
