 vasp.5.4.4.18Apr17-6-g9f103f2a35 (build May 12 2020 05:39:39) gamma-only       
  
 MD_VERSION_INFO: Compiled 2020-05-12T12:39:39-UTC in devlin.sd.materialsdesign.
 com:/home/medea2/data/build/wwolf/vasp-gpu5.4.4/13047/x86_64/src/src/build/gam 
 from svn 13047
 
 This VASP executable licensed from Materials Design, Inc.
 
 executed on                        Lin64 date 2023.04.01  13:44:27
 running on   16 total cores
 distrk:  each k-point on   16 cores,    1 groups
 distr:  one band on NCORES_PER_BAND=   1 cores,   16 groups


--------------------------------------------------------------------------------------------------------


 INCAR:
 POTCAR:    PAW_PBE Ta_pv 07Sep2000               
 POTCAR:    PAW_PBE Ni 02Aug2007                  
 POTCAR:    PAW_PBE Li_sv 10Sep2004               
 POTCAR:    PAW_PBE O 08Apr2002                   

 ----------------------------------------------------------------------------- 
|                                                                             |
|           W    W    AA    RRRRR   N    N  II  N    N   GGGG   !!!           |
|           W    W   A  A   R    R  NN   N  II  NN   N  G    G  !!!           |
|           W    W  A    A  R    R  N N  N  II  N N  N  G       !!!           |
|           W WW W  AAAAAA  RRRRR   N  N N  II  N  N N  G  GGG   !            |
|           WW  WW  A    A  R   R   N   NN  II  N   NN  G    G                |
|           W    W  A    A  R    R  N    N  II  N    N   GGGG   !!!           |
|                                                                             |
|      For optimal performance we recommend to set                            |
|        NCORE= 4 - approx SQRT( number of cores)                             |
|      NCORE specifies how many cores store one orbital (NPAR=cpu/NCORE).     |
|      This setting can  greatly improve the performance of VASP for DFT.     |
|      The default,   NCORE=1            might be grossly inefficient         |
|      on modern multi-core architectures or massively parallel machines.     |
|      Do your own testing !!!!                                               |
|      Unfortunately you need to use the default for GW and RPA calculations. |
|      (for HF NCORE is supported but not extensively tested yet)             |
|                                                                             |
 ----------------------------------------------------------------------------- 

 POTCAR:    PAW_PBE Ta_pv 07Sep2000               
  local pseudopotential read in
  partial core-charges read in
  partial kinetic energy density read in
  atomic valenz-charges read in
  non local Contribution for L=           1  read in
    real space projection operators read in
  non local Contribution for L=           1  read in
    real space projection operators read in
  non local Contribution for L=           2  read in
    real space projection operators read in
  non local Contribution for L=           2  read in
    real space projection operators read in
  non local Contribution for L=           0  read in
    real space projection operators read in
  non local Contribution for L=           0  read in
    real space projection operators read in
    PAW grid and wavefunctions read in
 
   number of l-projection  operators is LMAX  =           6
   number of lm-projection operators is LMMAX =          18
 
 POTCAR:    PAW_PBE Ni 02Aug2007                  
  local pseudopotential read in
  partial core-charges read in
  partial kinetic energy density read in
  atomic valenz-charges read in
  non local Contribution for L=           2  read in
    real space projection operators read in
  non local Contribution for L=           2  read in
    real space projection operators read in
  non local Contribution for L=           0  read in
    real space projection operators read in
  non local Contribution for L=           0  read in
    real space projection operators read in
  non local Contribution for L=           1  read in
    real space projection operators read in
  non local Contribution for L=           1  read in
    real space projection operators read in
    PAW grid and wavefunctions read in
 
   number of l-projection  operators is LMAX  =           6
   number of lm-projection operators is LMMAX =          18
 
 POTCAR:    PAW_PBE Li_sv 10Sep2004               
  local pseudopotential read in
  atomic valenz-charges read in
  non local Contribution for L=           0  read in
    real space projection operators read in
  non local Contribution for L=           0  read in
    real space projection operators read in
  non local Contribution for L=           1  read in
    real space projection operators read in
    PAW grid and wavefunctions read in
 
   number of l-projection  operators is LMAX  =           3
   number of lm-projection operators is LMMAX =           5
 
 POTCAR:    PAW_PBE O 08Apr2002                   
  local pseudopotential read in
  partial core-charges read in
  partial kinetic energy density read in
  kinetic energy density of atom read in
  atomic valenz-charges read in
  non local Contribution for L=           0  read in
    real space projection operators read in
  non local Contribution for L=           0  read in
    real space projection operators read in
  non local Contribution for L=           1  read in
    real space projection operators read in
  non local Contribution for L=           1  read in
    real space projection operators read in
    PAW grid and wavefunctions read in
 
   number of l-projection  operators is LMAX  =           4
   number of lm-projection operators is LMMAX =           8
 
 Optimization of the real space projectors (new method)

 maximal supplied QI-value         = 15.12
 optimisation between [QCUT,QGAM] = [ 11.34, 22.83] = [ 36.00,145.93] Ry 
 Optimized for a Real-space Cutoff    1.61 Angstroem

   l    n(q)    QCUT    max X(q) W(low)/X(q) W(high)/X(q)  e(spline) 
   1     11    11.338     4.092    0.40E-05    0.64E-05    0.47E-07
   1     11    11.338     4.834    0.13E-04    0.44E-04    0.21E-06
   2     10    11.338    62.294    0.15E-03    0.31E-03    0.77E-06
   2     10    11.338    50.966    0.15E-03    0.31E-03    0.77E-06
   0     11    11.338   103.792    0.33E-04    0.19E-04    0.90E-07
   0     11    11.338    56.335    0.26E-04    0.17E-04    0.79E-07
 Optimization of the real space projectors (new method)

 maximal supplied QI-value         = 16.25
 optimisation between [QCUT,QGAM] = [ 11.38, 22.75] = [ 36.24,144.96] Ry 
 Optimized for a Real-space Cutoff    1.47 Angstroem

   l    n(q)    QCUT    max X(q) W(low)/X(q) W(high)/X(q)  e(spline) 
   2      9    11.376    60.317    0.17E-03    0.16E-04    0.16E-06
   2      9    11.376    55.921    0.17E-03    0.16E-04    0.17E-06
   0     10    11.376    51.690    0.45E-04    0.60E-04    0.21E-06
   0     10    11.376    30.015    0.37E-04    0.55E-04    0.19E-06
   1     10    11.376    18.849    0.83E-04    0.11E-03    0.92E-07
   1     10    11.376    14.624    0.69E-04    0.92E-04    0.82E-07
 Optimization of the real space projectors (new method)

 maximal supplied QI-value         = 22.11
 optimisation between [QCUT,QGAM] = [ 11.28, 22.77] = [ 35.61,145.23] Ry 
 Optimized for a Real-space Cutoff    1.10 Angstroem

   l    n(q)    QCUT    max X(q) W(low)/X(q) W(high)/X(q)  e(spline) 
   0      7    11.276    10.506    0.54E-04    0.58E-04    0.16E-07
   0      7    11.276     8.367    0.11E-03    0.14E-03    0.35E-07
   1      7    11.276     8.983    0.23E-03    0.43E-03    0.86E-07
 Optimization of the real space projectors (new method)

 maximal supplied QI-value         = 24.76
 optimisation between [QCUT,QGAM] = [ 11.39, 22.77] = [ 36.31,145.25] Ry 
 Optimized for a Real-space Cutoff    1.10 Angstroem

   l    n(q)    QCUT    max X(q) W(low)/X(q) W(high)/X(q)  e(spline) 
   0      7    11.387    20.381    0.22E-03    0.48E-03    0.18E-06
   0      7    11.387    15.268    0.22E-03    0.52E-03    0.19E-06
   1      7    11.387     5.964    0.22E-03    0.73E-03    0.24E-06
   1      7    11.387     5.382    0.19E-03    0.60E-03    0.21E-06

 ----------------------------------------------------------------------------- 
|                                                                             |
|  ADVICE TO THIS USER RUNNING 'VASP/VAMP'   (HEAR YOUR MASTER'S VOICE ...):  |
|                                                                             |
|      You enforced a specific xc-type in the INCAR file,                     |
|      a different type was found on the POTCAR file                          |
|          I HOPE YOU KNOW, WHAT YOU ARE  DOING                               |
|                                                                             |
 ----------------------------------------------------------------------------- 

  PAW_PBE Ta_pv 07Sep2000               :
 energy of atom  1       EATOM=-1047.1984
 kinetic energy error for atom=    0.0019 (will be added to EATOM!!)
  PAW_PBE Ni 02Aug2007                  :
 energy of atom  2       EATOM=-1077.6739
 kinetic energy error for atom=    0.0030 (will be added to EATOM!!)
  PAW_PBE Li_sv 10Sep2004               :
 energy of atom  3       EATOM= -202.7858
 kinetic energy error for atom=    0.0143 (will be added to EATOM!!)
  PAW_PBE O 08Apr2002                   :
 energy of atom  4       EATOM= -432.3788
 kinetic energy error for atom=    0.0224 (will be added to EATOM!!)
 
 
 POSCAR: ce425741_1                              
  positions in direct lattice
  No initial velocities read in
 exchange correlation table for  LEXCH =       14
   RHO(1)=    0.500       N(1)  =     2000
   RHO(2)=  100.500       N(2)  =     4000
 


--------------------------------------------------------------------------------------------------------


 ion  position               nearest neighbor table
   1  0.003  0.997  0.998-  60 1.98 108 1.98  72 2.01  93 2.01 105 2.01  57 2.01   6 2.89  25 2.90
                            19 2.91  15 2.91  54 2.92  12 2.94   9 2.95  47 2.95  53 2.96  30 2.98
   2  0.886  0.337  0.222-  77 1.98  71 1.99  59 1.99  56 2.01  74 2.02  80 2.03  10 2.89  40 2.89
                            26 2.90  13 2.90  16 2.91  20 2.93   7 2.93  37 2.96  28 2.96  36 2.99
   3  0.108  0.670  0.446- 103 1.98  79 1.98  85 2.01  82 2.01  64 2.01  88 2.01  24 2.89   5 2.90
                            14 2.91  27 2.91  40 2.92  18 2.94   8 2.95  41 2.95  32 2.96  52 2.98
   4  0.225  0.329  0.553-  92 1.98  86 1.99 104 1.99  83 2.01  89 2.02 107 2.03  10 2.89  54 2.89
                             7 2.90  13 2.90  20 2.91  16 2.93  26 2.93  45 2.96  42 2.96  43 2.99
   5  0.111  0.666  0.110-  55 1.95  58 1.95  61 1.97  94 2.01  64 2.03  79 2.11  29 2.83  47 2.84
                            28 2.84  27 2.86  21 2.89  11 2.90   3 2.90   8 2.90  14 2.92
   6  0.335  0.999  0.001-  63 1.96  96 1.97  66 1.97  99 1.99  93 2.06  60 2.09  32 2.80   9 2.85
                            17 2.87   1 2.89  22 2.89  15 2.91  19 2.92
   7  0.226  0.333  0.219-  62 1.96  65 1.96  83 2.04  80 2.04  59 2.08  86 2.09  20 2.86  23 2.87
                            10 2.87   4 2.90   2 2.93  16 2.96
   8  0.447  0.669  0.107- 100 1.92  61 1.93  70 1.94  85 2.00  67 2.01  64 2.10  24 2.85  21 2.86
                            11 2.89   5 2.90  18 2.93   3 2.95
   9  0.664  0.998  0.998-  99 1.92 102 1.93  69 1.94  72 2.00  66 2.01 105 2.10   6 2.85  22 2.86
                            17 2.89  25 2.90  12 2.93   1 2.95
  10  0.556  0.333  0.219-  68 1.96  65 1.96  74 2.05  89 2.05  86 2.08  71 2.08  23 2.87  26 2.87
                             7 2.87   2 2.89   4 2.89  13 2.94
  11  0.777  0.670  0.111-  67 1.91  58 1.92  73 1.92  55 1.92 106 1.94  70 1.94  29 2.82  53 2.82
                            24 2.87  14 2.88  27 2.89  18 2.89   8 2.89   5 2.90
  12  0.664  0.998  0.337-  78 1.96  69 1.97  90 1.99  75 2.00  72 2.08  57 2.09  45 2.79  19 2.84
                            22 2.88  17 2.89  15 2.91   9 2.93   1 2.94
  13  0.556  0.333  0.558-  98 1.96  95 1.96  74 2.06  89 2.06  92 2.07  77 2.07  16 2.87  20 2.87
                            23 2.87   4 2.90   2 2.90  10 2.94
  14  0.774  0.668  0.445-  58 1.93  97 1.95  73 1.97  76 2.00  82 2.06  79 2.09  29 2.79  37 2.84
                            18 2.84  11 2.88  21 2.89   3 2.91   5 2.92  24 2.92
  15  1.000  0.000  0.336-  84 1.93  63 1.94  78 1.95  57 2.01  81 2.01  60 2.11  42 2.80  39 2.82
                            41 2.82  32 2.84  25 2.86  22 2.89  17 2.89   6 2.91   1 2.91  12 2.91
  16  0.885  0.333  0.559-  98 1.95 101 1.96  80 2.04  83 2.04 104 2.07  77 2.09  26 2.86  13 2.87
                            23 2.87   2 2.91   4 2.93   7 2.96
  17  0.334  0.997  0.333-  66 1.91  87 1.92  90 1.92  84 1.92  63 1.94  69 1.94  44 2.82  32 2.82
                             6 2.87  19 2.88  15 2.89  12 2.89   9 2.89  25 2.90
  18  0.447  0.668  0.445-  91 1.96  70 1.97  73 1.99  76 2.00  85 2.08  88 2.09  37 2.79  14 2.84
                            21 2.88  11 2.89  27 2.91   8 2.93   3 2.94
  19  0.337  0.999  0.663-  87 1.93  96 1.95  90 1.97  75 2.00  93 2.06 108 2.09  44 2.79  45 2.84
                            12 2.84  17 2.88  22 2.89   1 2.91  25 2.92   6 2.92
  20  0.226  0.334  0.888-  95 1.95  62 1.96 107 2.04  56 2.04  59 2.07  92 2.09   7 2.86  13 2.87
                            23 2.87   4 2.91   2 2.93  26 2.96
  21  0.444  0.664  0.779-  76 1.90  94 1.90  61 1.92 100 1.92  91 1.92  97 1.93  46 2.81  47 2.83
                             8 2.86  18 2.88  14 2.89   5 2.89  27 2.89  24 2.89
  22  0.667  0.002  0.668-  75 1.90  81 1.90 102 1.92  99 1.92  78 1.92  96 1.93  39 2.81  41 2.83
                             9 2.86  12 2.88  19 2.89  25 2.89  15 2.89   6 2.89
  23  0.556  0.333  0.889-  98 1.90  95 1.90  68 1.91  65 1.91  62 1.91 101 1.91  10 2.87  20 2.87
                            16 2.87  13 2.87   7 2.87  26 2.87
  24  0.776  0.668  0.780- 106 1.96  97 1.97  67 1.97 100 1.99  82 2.06 103 2.09  53 2.80   8 2.85
                            11 2.87   3 2.89  21 2.89  27 2.91  14 2.92
  25  1.000  0.001  0.666-  84 1.95  87 1.95 102 1.97  81 2.01 105 2.03 108 2.11  44 2.83  41 2.84
                            42 2.84  15 2.86  22 2.89  17 2.90   1 2.90   9 2.90  19 2.92
  26  0.885  0.334  0.889- 101 1.96  68 1.96  56 2.04 107 2.04 104 2.08  71 2.09  16 2.86  23 2.87
                            10 2.87   2 2.90   4 2.93  20 2.96
  27  0.111  0.667  0.780-  55 1.93 106 1.94  91 1.95  88 2.01  94 2.01 103 2.11  28 2.80  46 2.82
                            47 2.82  53 2.84   5 2.86  21 2.89  11 2.89  24 2.91   3 2.91  18 2.91
  28  0.006  0.505  0.992-  59 2.08 106 2.09  71 2.11  94 2.11 107 2.12  58 2.19  27 2.80   5 2.84
                             2 2.96
  29  0.888  0.826  0.228-  79 1.99  73 2.04  60 2.09  55 2.14  72 2.19  78 2.24  14 2.79  11 2.82
                             5 2.83   1 2.98
  30  0.120  0.167  0.110-  93 2.07  80 2.08  57 2.12  56 2.14  63 2.15  62 2.15   1 2.98   2 2.99

  31  0.329  0.500  0.002-  94 2.06  59 2.08  64 2.11  65 2.14  95 2.14 100 2.16
  32  0.223  0.839  0.218-  60 2.01  66 2.03  79 2.10  85 2.10  84 2.13  61 2.23   6 2.80  17 2.82
                            15 2.84   3 2.96
  33  0.444  0.167  0.114-  86 2.05  68 2.14  62 2.14  69 2.15  99 2.18  63 2.18
  34  0.667  0.500  0.002-  71 2.05  65 2.14 101 2.14  70 2.15 100 2.18 106 2.18
  35  0.556  0.833  0.221-  67 2.10  66 2.10  85 2.10  72 2.10  73 2.11  90 2.11
  36  0.769  0.166  0.109- 105 2.06  74 2.08  68 2.13  69 2.15  56 2.16  57 2.16   1 2.99   2 2.99

  37  0.658  0.507  0.338-  77 2.10  71 2.10  76 2.10  70 2.12  89 2.12  58 2.17  18 2.79  14 2.84
                             2 2.96
  38  0.556  0.833  0.557-  97 2.14  96 2.14  73 2.16  90 2.16  91 2.17  78 2.17
  39  0.778  0.160  0.445-  81 2.03  75 2.05  57 2.07  74 2.13  80 2.15  98 2.26  22 2.81  15 2.82
                             2 3.03
  40  0.003  0.499  0.338-  64 2.04  59 2.04  82 2.05  77 2.05  83 2.06  58 2.27   2 2.89   3 2.92

  41  0.884  0.840  0.557-  78 2.06  79 2.07 103 2.08 102 2.09  84 2.15  97 2.25  15 2.82  22 2.83
                            25 2.84   3 2.95
  42  0.105  0.161  0.442- 104 2.08  63 2.09  86 2.11  81 2.11  80 2.12  87 2.19  15 2.80  25 2.84
                             4 2.96
  43  0.342  0.500  0.323-  64 2.06  89 2.08  65 2.13  70 2.15  83 2.16  88 2.16   3 2.99   4 2.99

  44  0.223  0.840  0.560- 108 1.99  90 2.04 103 2.09  84 2.14  85 2.19  91 2.24  19 2.79  17 2.82
                            25 2.83   3 2.98
  45  0.453  0.160  0.441-  92 2.10  86 2.10  75 2.10  69 2.12  74 2.12  87 2.17  12 2.79  19 2.84
                             4 2.96
  46  0.333  0.506  0.667-  94 2.03  76 2.05  88 2.07  89 2.13 107 2.15  95 2.26  21 2.81  27 2.82
                             4 3.03
  47  0.227  0.826  0.886-  91 2.06 108 2.07  60 2.08  61 2.09  55 2.15  96 2.25  27 2.82  21 2.83
                             5 2.84   1 2.95
  48  0.442  0.166  0.776-  92 2.05  75 2.09  93 2.09  62 2.14  98 2.17  99 2.19
  49  0.669  0.500  0.662-  77 2.05  76 2.09  82 2.09 101 2.14  95 2.17 100 2.19
  50  0.556  0.833  0.889-  61 2.16 102 2.16  97 2.16  96 2.16  67 2.16  66 2.16
  51  0.782  0.167  0.776-  81 2.06 104 2.08 105 2.11  68 2.14  98 2.14  99 2.16
  52  0.991  0.500  0.675-  82 2.07 107 2.08  88 2.12  83 2.14 106 2.15 101 2.15   3 2.98   4 2.99

  53  0.888  0.827  0.886- 103 2.01  67 2.03 108 2.10  72 2.10  55 2.13 102 2.23  24 2.80  11 2.82
                            27 2.84   1 2.96
  54  0.108  0.168  0.785- 105 2.04 104 2.04  93 2.05  92 2.05  56 2.06  87 2.27   4 2.89   1 2.92

  55  0.999  0.736  1.000-  11 1.92  27 1.93   5 1.95  53 2.13  29 2.14  47 2.15
  56  0.999  0.256  0.003-   2 2.01  26 2.04  20 2.04  54 2.06  30 2.14  36 2.16
  57  0.896  0.078  0.217-  15 2.01   1 2.01  39 2.07  12 2.09  30 2.12  36 2.16
  58  0.885  0.600  0.222-  11 1.92  14 1.93   5 1.95  37 2.17  28 2.19  40 2.27
  59  0.103  0.417  0.115-   2 1.99  40 2.04  20 2.07  31 2.08  28 2.08   7 2.08
  60  0.108  0.915  0.107-   1 1.98  32 2.01  47 2.08   6 2.09  29 2.09  15 2.11
  61  0.337  0.736  0.995-  21 1.92   8 1.93   5 1.97  47 2.09  50 2.16  32 2.23
  62  0.341  0.262  0.996-  23 1.91   7 1.96  20 1.96  48 2.14  33 2.14  30 2.15
  63  0.222  0.069  0.225-  17 1.94  15 1.94   6 1.96  42 2.09  30 2.15  33 2.18
  64  0.216  0.587  0.230-   3 2.01   5 2.03  40 2.04  43 2.06   8 2.10  31 2.11
  65  0.447  0.405  0.104-  23 1.91  10 1.96   7 1.96  43 2.13  31 2.14  34 2.14
  66  0.438  0.924  0.120-  17 1.91   6 1.97   9 2.01  32 2.03  35 2.10  50 2.16
  67  0.673  0.742  0.002-  11 1.91  24 1.97   8 2.01  53 2.03  35 2.10  50 2.16
  68  0.664  0.262  0.996-  23 1.91  10 1.96  26 1.96  36 2.13  51 2.14  33 2.14
  69  0.554  0.067  0.220-   9 1.94  17 1.94  12 1.97  45 2.12  33 2.15  36 2.15
  70  0.557  0.599  0.218-   8 1.94  11 1.94  18 1.97  37 2.12  34 2.15  43 2.15
  71  0.779  0.419  0.115-   2 1.99  34 2.05  10 2.08  26 2.09  37 2.10  28 2.11
  72  0.781  0.920  0.103-   9 2.00   1 2.01  12 2.08  53 2.10  35 2.10  29 2.19
  73  0.671  0.742  0.327-  11 1.92  14 1.97  18 1.99  29 2.04  35 2.11  38 2.16
  74  0.671  0.254  0.330-   2 2.02  10 2.05  13 2.06  36 2.08  45 2.12  39 2.13
  75  0.561  0.074  0.561-  22 1.90  19 2.00  12 2.00  39 2.05  48 2.09  45 2.10
  76  0.550  0.593  0.566-  21 1.90  14 2.00  18 2.00  46 2.05  49 2.09  37 2.10
  77  0.779  0.418  0.438-   2 1.98  40 2.05  49 2.05  13 2.07  16 2.09  37 2.10
  78  0.777  0.931  0.451-  22 1.92  15 1.95  12 1.96  41 2.06  38 2.17  29 2.24
  79  0.001  0.751  0.339-   3 1.98  29 1.99  41 2.07  14 2.09  32 2.10   5 2.11
  80  0.999  0.255  0.331-   2 2.03  16 2.04   7 2.04  30 2.08  42 2.12  39 2.15
  81  0.877  0.075  0.563-  22 1.90  25 2.01  15 2.01  39 2.03  51 2.06  42 2.11
  82  0.893  0.587  0.553-   3 2.01  40 2.05  24 2.06  14 2.06  52 2.07  49 2.09
  83  0.112  0.410  0.446-   4 2.01   7 2.04  16 2.04  40 2.06  52 2.14  43 2.16
  84  0.112  0.930  0.443-  17 1.92  15 1.93  25 1.95  32 2.13  44 2.14  41 2.15
  85  0.330  0.747  0.329-   8 2.00   3 2.01  18 2.08  32 2.10  35 2.10  44 2.19
  86  0.332  0.248  0.339-   4 1.99  33 2.05  10 2.08   7 2.09  45 2.10  42 2.11
  87  0.226  0.067  0.551-  17 1.92  19 1.93  25 1.95  45 2.17  42 2.19  54 2.27
  88  0.216  0.588  0.557-  27 2.01   3 2.01  46 2.07  18 2.09  52 2.12  43 2.16
  89  0.440  0.413  0.446-   4 2.02  10 2.05  13 2.06  43 2.08  37 2.12  46 2.13
  90  0.441  0.925  0.442-  17 1.92  19 1.97  12 1.99  44 2.04  35 2.11  38 2.16
  91  0.334  0.736  0.672-  21 1.92  27 1.95  18 1.96  47 2.06  38 2.17  44 2.24
  92  0.332  0.249  0.662-   4 1.98  54 2.05  48 2.05  13 2.07  20 2.09  45 2.10
  93  0.218  0.080  0.891-   1 2.01  54 2.05   6 2.06  19 2.06  30 2.07  48 2.09
  94  0.234  0.591  0.884-  21 1.90   5 2.01  27 2.01  46 2.03  31 2.06  28 2.11
  95  0.448  0.404  0.782-  23 1.90  20 1.95  13 1.96  31 2.14  49 2.17  46 2.26
  96  0.451  0.931  0.773-  22 1.93  19 1.95   6 1.97  38 2.14  50 2.16  47 2.25
  97  0.660  0.736  0.669-  21 1.93  14 1.95  24 1.97  38 2.14  50 2.16  41 2.25
  98  0.663  0.263  0.675-  23 1.90  16 1.95  13 1.96  51 2.14  48 2.17  39 2.26
  99  0.560  0.071  0.887-  22 1.92   9 1.92   6 1.99  51 2.16  33 2.18  48 2.19
 100  0.551  0.596  0.891-  21 1.92   8 1.92  24 1.99  31 2.16  34 2.18  49 2.19
 101  0.770  0.405  0.782-  23 1.91  26 1.96  16 1.96  49 2.14  34 2.14  52 2.15
 102  0.775  0.931  0.776-  22 1.92   9 1.93  25 1.97  41 2.09  50 2.16  53 2.23
 103  0.003  0.752  0.659-   3 1.98  53 2.01  41 2.08  24 2.09  44 2.09  27 2.11
 104  0.009  0.250  0.662-   4 1.99  54 2.04  16 2.07  51 2.08  42 2.08  26 2.08
 105  0.895  0.080  0.890-   1 2.01  25 2.03  54 2.04  36 2.06   9 2.10  51 2.11
 106  0.889  0.598  0.892-  11 1.94  27 1.94  24 1.96  28 2.09  52 2.15  34 2.18
 107  0.112  0.411  0.774-   4 2.03  20 2.04  26 2.04  52 2.08  28 2.12  46 2.15
 108  0.110  0.915  0.784-   1 1.98  44 1.99  47 2.07  19 2.09  53 2.10  25 2.11
 
  LATTYP: Found a base centered monoclinic cell.
 ALAT       =    32.2864710904
 B/A-ratio  =     0.2687289893
 C/A-ratio  =     0.6434888467
 COS(beta)  =    -0.9149263643
  
  Lattice vectors:
  
 A1 = (   8.7155698800,  14.2640097280,  -0.0226663339)
 A2 = (   4.3774144885,  14.2640097280,  -7.5365718370)
 A3 = ( -13.0707454925, -14.2775696348,   7.5463985201)


Analysis of symmetry for initial positions (statically):
=====================================================================
 Subroutine PRICEL returns:
 Original cell was already a primitive cell.
 

 Routine SETGRP: Setting up the symmetry group for a 
 base centered monoclinic supercell.


 Subroutine GETGRP returns: Found  2 space group operations
 (whereof  1 operations were pure point group operations)
 out of a pool of  4 trial point group operations.


The static configuration has the point symmetry C_1 .
 The point group associated with its full space group is C_2 .


Analysis of symmetry for dynamics (positions and initial velocities):
=====================================================================
 Subroutine PRICEL returns:
 Original cell was already a primitive cell.
 

 Routine SETGRP: Setting up the symmetry group for a 
 base centered monoclinic supercell.


 Subroutine GETGRP returns: Found  2 space group operations
 (whereof  1 operations were pure point group operations)
 out of a pool of  4 trial point group operations.


The dynamic configuration has the point symmetry C_1 .
 The point group associated with its full space group is C_2 .


Analysis of structural, dynamic, and magnetic symmetry:
=====================================================================
 Subroutine PRICEL returns:
 Original cell was already a primitive cell.
 

 Routine SETGRP: Setting up the symmetry group for a 
 base centered monoclinic supercell.


 Subroutine GETGRP returns: Found  2 space group operations
 (whereof  1 operations were pure point group operations)
 out of a pool of  4 trial point group operations.


The magnetic configuration has the point symmetry C_1 .
 The point group associated with its full space group is C_2 .


 Subroutine INISYM returns: Found  2 space group operations
 (whereof  1 operations are pure point group operations),
 and found     1 'primitive' translations

 
 
 KPOINTS: Automatic mesh                          

Automatic generation of k-mesh.
Space group operators:
 irot       det(A)        alpha          n_x          n_y          n_z        tau_x        tau_y        tau_z
    1     1.000000     0.000001     1.000000     0.000000     0.000000     0.000000     0.000000     0.000000
    2     1.000000   179.999999     0.500000     0.000000     0.866025    -0.888889    -0.333333     0.444444
 
 Subroutine IBZKPT returns following result:
 ===========================================
 
 Found      1 irreducible k-points:
 
 Following reciprocal coordinates:
            Coordinates               Weight
  0.000000  0.000000  0.000000      1.000000
 
 Following cartesian coordinates:
            Coordinates               Weight
  0.000000  0.000000  0.000000      1.000000
 


--------------------------------------------------------------------------------------------------------




 Dimension of arrays:
   k-points           NKPTS =      1   k-points in BZ     NKDIM =      1   number of bands    NBANDS=    448
   number of dos      NEDOS =    301   number of ions     NIONS =    108
   non local maximal  LDIM  =      6   non local SUM 2l+1 LMDIM =     18
   total plane-waves  NPLWV = 442368
   max r-space proj   IRMAX =   8369   max aug-charges    IRDMAX=  26877
   dimension x,y,z NGX =    64 NGY =  108 NGZ =   64
   dimension x,y,z NGXF=   128 NGYF=  216 NGZF=  128
   support grid    NGXF=   128 NGYF=  216 NGZF=  128
   ions per type =               4  23  27  54
   NGX,Y,Z   is equivalent  to a cutoff of  12.24, 12.60, 12.26 a.u.
   NGXF,Y,Z  is equivalent  to a cutoff of  24.48, 25.20, 24.53 a.u.

 SYSTEM =  unknown system                          
 POSCAR =  ce425741_1                              

 Startparameter for this run:
   NWRITE =      1    write-flag & timer
   PREC   = accura    normal or accurate (medium, high low for compatibility)
   ISTART =      0    job   : 0-new  1-cont  2-samecut
   ICHARG =      2    charge: 1-file 2-atom 10-const
   ISPIN  =      2    spin polarized calculation?
   LNONCOLLINEAR =      F non collinear calculations
   LSORBIT =      F    spin-orbit coupling
   INIWAV =      1    electr: 0-lowe 1-rand  2-diag
   LASPH  =      F    aspherical Exc in radial PAW
   METAGGA=      F    non-selfconsistent MetaGGA calc.

 Electronic Relaxation 1
   ENCUT  =  500.0 eV  36.75 Ry    6.06 a.u.  15.85 25.98 15.82*2*pi/ulx,y,z
   ENINI  =  500.0     initial cutoff
   ENAUG  =  628.9 eV  augmentation charge cutoff
   NELM   =     80;   NELMIN=  2; NELMDL= -5     # of ELM steps 
   EDIFF  = 0.1E-04   stopping-criterion for ELM
   LREAL  =      T    real-space projection
   NLSPLINE    = F    spline interpolate recip. space projectors
   LCOMPAT=      F    compatible to vasp.4.4
   GGA_COMPAT  = T    GGA compatible to vasp.4.4-vasp.4.6
   LMAXPAW     = -100 max onsite density
   LMAXMIX     =    2 max onsite mixed and CHGCAR
   VOSKOWN=      1    Vosko Wilk Nusair interpolation
   ROPT   =   -0.00025  -0.00025  -0.00025  -0.00025
 Ionic relaxation
   EDIFFG = -.2E-01   stopping-criterion for IOM
   NSW    =     20    number of steps for IOM
   NBLOCK =      1;   KBLOCK =     20    inner block; outer block 
   IBRION =      1    ionic relax: 0-MD 1-quasi-New 2-CG
   NFREE  =      0    steps in history (QN), initial steepest desc. (CG)
   ISIF   =      3    stress and relaxation
   IWAVPR =     11    prediction:  0-non 1-charg 2-wave 3-comb
   ISYM   =      2    0-nonsym 1-usesym 2-fastsym
   LCORR  =      T    Harris-Foulkes like correction to forces

   POTIM  = 0.5000    time-step for ionic-motion
   TEIN   =    0.0    initial temperature
   TEBEG  =    0.0;   TEEND  =   0.0 temperature during run
   SMASS  =  -3.00    Nose mass-parameter (am)
   estimated Nose-frequenzy (Omega)   =  0.10E-29 period in steps =****** mass=  -0.173E-26a.u.
   SCALEE = 1.0000    scale energy and forces
   NPACO  =    256;   APACO  = 16.0  distance and # of slots for P.C.
   PSTRESS=    0.0 pullay stress

  Mass of Ions in am
   POMASS = 180.95 58.69  7.01 16.00
  Ionic Valenz
   ZVAL   =  11.00 10.00  3.00  6.00
  Atomic Wigner-Seitz radii
   RWIGS  =   1.34  1.15  1.23  0.73
  virtual crystal weights 
   VCA    =   1.00  1.00  1.00  1.00
   NELECT =     679.0000    total number of electrons
   NUPDOWN=      -1.0000    fix difference up-down

 DOS related values:
   EMIN   =  10.00;   EMAX   =-10.00  energy-range for DOS
   EFERMI =   0.00
   ISMEAR =     0;   SIGMA  =   0.05  broadening in eV -4-tet -1-fermi 0-gaus

 Electronic relaxation 2 (details)
   IALGO  =     38    algorithm
   LDIAG  =      T    sub-space diagonalisation (order eigenvalues)
   LSUBROT=      F    optimize rotation matrix (better conditioning)
   TURBO    =      0    0=normal 1=particle mesh
   IRESTART =      0    0=no restart 2=restart with 2 vectors
   NREBOOT  =      0    no. of reboots
   NMIN     =      0    reboot dimension
   EREF     =   0.00    reference energy to select bands
   IMIX   =      4    mixing-type and parameters
     AMIX     =   0.40;   BMIX     =  1.00
     AMIX_MAG =   1.60;   BMIX_MAG =  1.00
     AMIN     =   0.10
     WC   =   100.;   INIMIX=   1;  MIXPRE=   1;  MAXMIX= -45

 Intra band minimization:
   WEIMIN = 0.0010     energy-eigenvalue tresh-hold
   EBREAK =  0.56E-08  absolut break condition
   DEPER  =   0.30     relativ break condition  

   TIME   =   0.40     timestep for ELM

  volume/ion in A,a.u.               =       8.62        58.20
  Fermi-wavevector in a.u.,A,eV,Ry     =   1.473366  2.784258 29.535622  2.170807
  Thomas-Fermi vector in A             =   2.588268
 
 Write flags
   LWAVE        =      F    write WAVECAR
   LDOWNSAMPLE  =      F    k-point downsampling of WAVECAR
   LCHARG       =      T    write CHGCAR
   LVTOT        =      F    write LOCPOT, total local potential
   LVHAR        =      F    write LOCPOT, Hartree potential only
   LELF         =      F    write electronic localiz. function (ELF)
   LORBIT       =      0    0 simple, 1 ext, 2 COOP (PROOUT), +10 PAW based schemes


 Dipole corrections
   LMONO  =      F    monopole corrections only (constant potential shift)
   LDIPOL =      F    correct potential (dipole corrections)
   IDIPOL =      0    1-x, 2-y, 3-z, 4-all directions 
   EPSILON=  1.0000000 bulk dielectric constant

 Exchange correlation treatment:
   GGA     =    PS    GGA type
   LEXCH   =    14    internal setting for exchange type
   VOSKOWN=      1    Vosko Wilk Nusair interpolation
   LHFCALC =     F    Hartree Fock is set to
   LHFONE  =     F    Hartree Fock one center treatment
   AEXX    =    0.0000 exact exchange contribution

 Linear response parameters
   LEPSILON=     F    determine dielectric tensor
   LRPA    =     F    only Hartree local field effects (RPA)
   LNABLA  =     F    use nabla operator in PAW spheres
   LVEL    =     F    velocity operator in full k-point grid
   LINTERFAST=   F  fast interpolation
   KINTER  =     0    interpolate to denser k-point grid
   CSHIFT  =0.1000    complex shift for real part using Kramers Kronig
   OMEGAMAX=  -1.0    maximum frequency
   DEG_THRESHOLD= 0.2000000E-02 threshold for treating states as degnerate
   RTIME   =   -0.100 relaxation time in fs
  (WPLASMAI=    0.000 imaginary part of plasma frequency in eV, 0.658/RTIME)
   DFIELD  = 0.0000000 0.0000000 0.0000000 field for delta impulse in time
 
 Orbital magnetization related:
   ORBITALMAG=     F  switch on orbital magnetization
   LCHIMAG   =     F  perturbation theory with respect to B field
   DQ        =  0.001000  dq finite difference perturbation B field
   LLRAUG    =     F  two centre corrections for induced B field



--------------------------------------------------------------------------------------------------------


 quasi-Newton-method for relaxation of ions
 charge density and potential will be updated during run
 spin polarized calculation
 Variant of blocked Davidson
 Davidson routine will perform the subspace rotation
 perform sub-space diagonalisation
    after iterative eigenvector-optimisation
 modified Broyden-mixing scheme, WC =      100.0
 initial mixing is a Kerker type mixing with AMIX =  0.4000 and BMIX =      1.0000
 Hartree-type preconditioning will be used
 using additional bands          108
 real space projection scheme for non local part
 use partial core corrections
 calculate Harris-corrections to forces 
   (improved forces if not selfconsistent)
 use gradient corrections 
 use of overlap-Matrix (Vanderbilt PP)
 Gauss-broadening in eV      SIGMA  =   0.05


--------------------------------------------------------------------------------------------------------


  energy-cutoff  :      500.00
  volume of cell :      931.46
      direct lattice vectors                 reciprocal lattice vectors
     8.693331004  0.013559907 -0.009826683     0.114956056 -0.000239197 -0.066369910
     0.022238876 14.250449821 -0.012839651    -0.000109386  0.070173451  0.000063154
     4.338155391  0.000000000  7.513905503     0.000150153  0.000119599  0.132999891

  length of vectors
     8.693347133 14.250472958  8.676310743     0.132740036  0.070173565  0.133000030


 
 k-points in units of 2pi/SCALE and weight: Automatic mesh                          
   0.00000000  0.00000000  0.00000000       1.000
 
 k-points in reciprocal lattice and weights: Automatic mesh                          
   0.00000000  0.00000000  0.00000000       1.000
 
 position of ions in fractional coordinates (direct lattice) 
   0.00343012  0.99670998  0.99833688
   0.88627516  0.33720573  0.22247378
   0.10768100  0.66995669  0.44621144
   0.22483595  0.32946093  0.55319339
   0.11131789  0.66616518  0.10991504
   0.33481724  0.99872473  0.00103439
   0.22561782  0.33290973  0.21874631
   0.44668731  0.66852808  0.10711417
   0.66442381  0.99813859  0.99824591
   0.55555556  0.33333333  0.21919941
   0.77733120  0.66950358  0.11090947
   0.66438060  0.99817880  0.33653296
   0.55555555  0.33333333  0.55847561
   0.77374244  0.66762578  0.44452442
   0.99978803  0.00012991  0.33578798
   0.88507891  0.33262613  0.55893517
   0.33377992  0.99716309  0.33268510
   0.44673052  0.66848787  0.44535800
   0.33736867  0.99904089  0.66271131
   0.22603219  0.33404053  0.88845853
   0.44429503  0.66431469  0.77888370
   0.66681607  0.00235198  0.66762318
   0.55555555  0.33333333  0.88893036
   0.77629387  0.66794194  0.78029608
   0.99979322  0.00050149  0.66567738
   0.88549329  0.33375693  0.88880858
   0.11132308  0.66653676  0.78002046
   0.00581933  0.50548077  0.99171133
   0.88811158  0.82627976  0.22780682
   0.12002746  0.16693141  0.11033893
   0.32928406  0.49998521  0.00204733
   0.22280730  0.83934378  0.21831869
   0.44423190  0.16658955  0.11368539
   0.66687922  0.50007712  0.00236173
   0.55555556  0.83333333  0.22104586
   0.76873321  0.16626166  0.10933343
   0.65804246  0.50688084  0.33837502
   0.55555555  0.83333333  0.55674385
   0.77774837  0.16018146  0.44458762
   0.00304632  0.49907394  0.33778319
   0.88414587  0.84024611  0.55696204
   0.10529179  0.16118590  0.44197510
   0.34237791  0.50040501  0.32251108
   0.22299953  0.84038690  0.56036285
   0.45306866  0.15978583  0.44086192
   0.33336274  0.50648521  0.66678044
   0.22696523  0.82642055  0.88555236
   0.44173711  0.16634310  0.77590821
   0.66937399  0.50032357  0.66208977
   0.55555555  0.83333333  0.88921541
   0.78182705  0.16668146  0.77577585
   0.99108365  0.49973526  0.67481084
   0.88830381  0.82732288  0.88557044
   0.10806479  0.16759273  0.78527396
   0.99885526  0.73639627  0.99998525
   0.99915870  0.25619286  0.00286829
   0.89559899  0.07820584  0.21706999
   0.88473690  0.60002789  0.22209924
   0.10250606  0.41708023  0.11511794
   0.10839905  0.91473240  0.10661079
   0.33658275  0.73612954  0.99457871
   0.34125929  0.26170545  0.99580486
   0.22232706  0.06884465  0.22511694
   0.21575378  0.58700690  0.22950103
   0.44741261  0.40500625  0.10404566
   0.43762862  0.92435922  0.11984869
   0.67348250  0.74230745  0.00192175
   0.66369851  0.26166042  0.99590271
   0.55370877  0.06726971  0.22006495
   0.55740235  0.59939695  0.21821816
   0.77941924  0.41869236  0.11485523
   0.78111954  0.91975132  0.10303565
   0.67051260  0.74179110  0.32669241
   0.67097363  0.25360598  0.33041690
   0.56080399  0.07386034  0.56062706
   0.55030711  0.59280632  0.56587550
   0.77945007  0.41753000  0.43829778
   0.77703916  0.93067546  0.45083946
   0.00072062  0.75138252  0.33892086
   0.99863402  0.25529559  0.33076671
   0.87709196  0.07545269  0.56250171
   0.89300942  0.58694862  0.55337892
   0.11195242  0.41047381  0.44647143
   0.11225586  0.93027040  0.44328494
   0.32999158  0.74691535  0.32859963
   0.33169188  0.24797431  0.33871891
   0.22637421  0.06663877  0.55128058
   0.21551212  0.58846082  0.55711343
   0.44013749  0.41306069  0.44583497
   0.44059852  0.92487557  0.44164945
   0.33407195  0.73599121  0.67232307
   0.33166104  0.24913667  0.66219231
   0.21810168  0.07971804  0.89083279
   0.23401914  0.59121397  0.88403812
   0.44794324  0.40404584  0.78225840
   0.45070603  0.93054127  0.77349965
   0.66040507  0.73612540  0.66865013
   0.66316786  0.26262083  0.67464609
   0.55976086  0.07096178  0.88720156
   0.55135024  0.59570488  0.89140687
   0.76985182  0.40496122  0.78150860
   0.77452836  0.93053713  0.77560591
   0.00271206  0.75193427  0.65945429
   0.00860505  0.24958644  0.66206844
   0.89535733  0.07965976  0.88969926
   0.88878405  0.59782201  0.89188844
   0.11247709  0.41137108  0.77384518
   0.11039049  0.91528415  0.78408593
 
 position of ions in cartesian coordinates  (Angst):
   4.38292540 14.20361207  7.48857786
   8.67730823  4.81735114  1.65860821
   2.88674022  9.54864434  3.34313044
   4.36173906  4.69801521  4.15020330
   1.45936655  9.49466293  0.81624401
   2.93737495 14.23681674 -0.00834111
   2.91772941  4.74717276  1.63714758
   4.36274587  9.53288290  0.79187263
  10.12879946 14.23293342  7.48138060
   5.78796244  4.75768317  1.63730450
   7.25362894  9.55126771  0.81712850
   7.25781112 14.23350584  2.50933194
   7.25979522  4.75768317  4.18659381
   8.66966240  9.52445955  3.32393908
  10.14819160  0.01540831  2.51325288
  10.12642878  4.75207356  4.18681786
   4.36707477 14.21454860  2.48368123
   5.83047491  9.53231047  3.33340490
   5.83001971 14.24135676  4.96340761
   5.82667249  4.76329279  6.66928333
   7.25609589  9.47280775  5.83956300
   8.69315822  0.04255874  5.00987470
   8.69335928  4.75768317  6.66959957
  10.14847949  9.52899957  5.84686647
  11.57935646  0.02070356  4.99200584
  11.56109838  4.76819359  6.66543690
   4.36644138  9.49995818  5.85134799
   4.36402854  7.20340726  7.44507784
   8.72728485 11.78690097  1.69238258
   1.52581823  2.38047524  0.82575348
   2.88257607  7.12947921  0.00572804
   2.90270407 11.96404767  1.62745967
   4.35874460  2.37999977  0.84771700
   5.81876850  7.13536673  0.00477179
   5.80709206 11.88290809  1.64475873
   7.16085513  2.37972739  0.81183222
   7.19977680  7.23220297  2.52954338
   7.26340202 11.88290808  4.16716170
   8.69347645  2.29320405  3.33089000
   1.50293748  7.11206945  2.53163310
  10.12104671 11.98587396  4.16548345
   2.83627764  2.29839933  3.31785490
   4.38663613  7.13563910  2.41352831
   4.38823911 11.97891520  4.19753188
   5.85475680  2.28316352  3.30609105
   5.80189347  7.22216244  5.00034627
   5.83312628 11.77994221  6.64111548
   7.20987658  2.37645391  5.82362437
   8.70246460  7.13891258  4.96187826
   8.70571531 11.88290808  6.66532159
  10.16582433  2.38588728  5.81928353
  11.55436606  7.13489125  5.05430939
  11.58245996 11.80176850  6.63474099
   4.34981053  2.38973714  5.89726058
  13.03784743 10.50752248  7.49452417
   8.70415783  3.66441199  0.00844422
   8.72916102  1.12661264  1.62123849
   8.66815568  8.56266429  1.65243452
   1.39979402  5.94497086  0.85862286
   1.42518562 13.03681805  0.78825335
   7.25703294 10.49474110  7.46041130
   7.29245622  3.73404783  7.47566996
   2.91088602  0.98408196  1.68843874
   2.88428453  8.36803797  1.71479194
   4.34987904  5.77758812  0.77219254
   4.34492940 13.17846888  0.88436284
   5.87965123 10.58734743 -0.00170922
  10.09595058  3.73777838  7.47323727
   5.76974557  0.96613187  1.64724240
   5.80567733  8.54923448  1.62649717
   7.28332053  5.97712332  0.84997638
   7.25796961 13.11746194  0.75471504
   7.26272701 10.57994894  2.43862264
   7.27203563  3.62309763  2.47287171
   7.30898459  1.06014752  4.20603957
   7.25204106  8.45521883  4.23891591
   8.68670673  5.96055958  3.28030775
   8.73156743 13.27308052  3.36797983
   1.49326585 10.70754867  2.53696474
  10.12205096  3.65161838  2.47225864
  10.06674854  1.08712806  4.21699700
  10.17692330  8.37639098  4.14172538
   2.91923036  5.85095450  3.34837367
   2.91960447 13.25829383  3.31775370
   4.31085285 10.64835437  2.45623371
   4.35843724  3.53824317  2.53865855
   4.36096873  0.95270206  4.13919006
   4.30344953  8.38875371  4.17642427
   5.76954827  5.89226886  3.34033319
   5.76678091 13.18586738  3.30230753
   5.83720761 10.49273579  5.03903933
   5.76147286  3.55480691  4.96919249
   5.76237401  1.13897537  6.69046664
   5.88264852  8.42823829  6.63268828
   7.29666288  5.76390904  5.86822609
   7.29439257 13.26674321  5.79562651
   8.65819864 10.49907311  5.00823271
   8.69769768  3.75145745  5.05933827
   8.71658278  1.01882759  6.65993697
   8.67337946  8.49653876  6.68488040
  10.09188832  5.78131866  5.85941712
  10.11862447 13.27107521  5.80827070
   2.90111419 10.71543836  4.94539599
   2.95251284  3.55683572  4.97143053
  11.64506282  1.14732837  6.67529497
  11.60893947  8.53128438  6.68515583
   4.34400964  5.86374811  5.80821242
   4.38150256 13.04470774  5.87871088
 


--------------------------------------------------------------------------------------------------------


 use serial FFT for orbitals x direction half grid
 k-point  1 :   0.0000 0.0000 0.0000  plane waves:   11832

 maximum and minimum number of plane-waves per node :     11832    11832

 maximum number of plane-waves:     11832
 maximum index in each direction: 
   IXMAX=   15   IYMAX=   25   IZMAX=   15
   IXMIN=    0   IYMIN=  -25   IZMIN=  -13

 The following grids will avoid any aliasing or wrap around errors in the Hartre
 e energy
  - symmetry arguments have not been applied
  - exchange correlation energies might require even more grid points
  - we recommend to set PREC=Normal or Accurate and rely on VASP defaults
 NGX is ok and might be reduce to    64
 NGY is ok and might be reduce to   108
 NGZ is ok and might be reduce to    60

 serial   3D FFT for wavefunctions
 parallel 3D FFT for charge:
    minimum data exchange during FFTs selected (reduces bandwidth)


 total amount of memory used by VASP MPI-rank0   149577. kBytes
=======================================================================

   base      :      30000. kBytes
   nonlr-proj:      40337. kBytes
   fftplans  :       9349. kBytes
   grid      :      57131. kBytes
   one-center:       1679. kBytes
   wavefun   :      11081. kBytes
 
     INWAV:  cpu time    0.0000: real time    0.0000
 Broyden mixing: mesh for mixing (old mesh)
   NGX = 31   NGY = 51   NGZ = 31
  (NGX  =128   NGY  =216   NGZ  =128)
  gives a total of  49011 points

 initial charge density was supplied:
 charge density of overlapping atoms calculated
 number of electron     679.0000000 magnetization      57.5000000
 keeping initial charge density in first step


--------------------------------------------------------------------------------------------------------


 Maximum index for non-local projection operator         8097
 Maximum index for augmentation-charges         1668 (set IRDMAX)


--------------------------------------------------------------------------------------------------------


 First call to EWALD:  gamma=   0.181
 Maximum number of real-space cells 3x 2x 3
 Maximum number of reciprocal cells 2x 4x 2

    FEWALD:  cpu time    0.0041: real time    0.0041


--------------------------------------- Iteration      1(   1)  ---------------------------------------


    POTLOK:  cpu time    0.2476: real time    0.3011
    SETDIJ:  cpu time    0.0332: real time    0.0333
     EDDAV:  cpu time    4.7078: real time    5.0041
    --------------------------------------------
      LOOP:  cpu time    4.9891: real time    5.3391

 eigenvalue-minimisations  :  1824
 total energy-change (2. order) : 0.1189752E+05  (-0.3179834E+05)
 number of electron     679.0000000 magnetization      57.5000000
 augmentation part      679.0000000 magnetization      57.5000000

 Free energy of the ion-electron system (eV)
  ---------------------------------------------------
  alpha Z        PSCENC =      2525.43149533
  Ewald energy   TEWEN  =    -43276.33754336
  -Hartree energ DENC   =    -15383.20950065
  -exchange      EXHF   =         0.00000000
  -V(xc)+E(xc)   XCENC  =      2723.78174446
  PAW double counting   =     46246.26304671   -48207.83573852
  entropy T*S    EENTRO =        -0.03477469
  eigenvalues    EBANDS =      9623.13779211
  atomic energy  EATOM  =     57646.32533566
  Solvation  Ediel_sol  =         0.00000000
  ---------------------------------------------------
  free energy    TOTEN  =     11897.52185705 eV

  energy without entropy =    11897.55663174  energy(sigma->0) =    11897.53924439


--------------------------------------------------------------------------------------------------------




--------------------------------------- Iteration      1(   2)  ---------------------------------------


     EDDAV:  cpu time    4.7156: real time    4.7268
    --------------------------------------------
      LOOP:  cpu time    4.7154: real time    4.7266

 eigenvalue-minimisations  :  1840
 total energy-change (2. order) :-0.9875052E+04  (-0.9063917E+04)
 number of electron     679.0000000 magnetization      57.5000000
 augmentation part      679.0000000 magnetization      57.5000000

 Free energy of the ion-electron system (eV)
  ---------------------------------------------------
  alpha Z        PSCENC =      2525.43149533
  Ewald energy   TEWEN  =    -43276.33754336
  -Hartree energ DENC   =    -15383.20950065
  -exchange      EXHF   =         0.00000000
  -V(xc)+E(xc)   XCENC  =      2723.78174446
  PAW double counting   =     46246.26304671   -48207.83573852
  entropy T*S    EENTRO =        -0.01956705
  eigenvalues    EBANDS =      -251.92904740
  atomic energy  EATOM  =     57646.32533566
  Solvation  Ediel_sol  =         0.00000000
  ---------------------------------------------------
  free energy    TOTEN  =      2022.47022517 eV

  energy without entropy =     2022.48979223  energy(sigma->0) =     2022.48000870


--------------------------------------------------------------------------------------------------------




--------------------------------------- Iteration      1(   3)  ---------------------------------------


     EDDAV:  cpu time    4.9949: real time    5.0068
    --------------------------------------------
      LOOP:  cpu time    4.9949: real time    5.0068

 eigenvalue-minimisations  :  1984
 total energy-change (2. order) :-0.2464684E+04  (-0.2113051E+04)
 number of electron     679.0000000 magnetization      57.5000000
 augmentation part      679.0000000 magnetization      57.5000000

 Free energy of the ion-electron system (eV)
  ---------------------------------------------------
  alpha Z        PSCENC =      2525.43149533
  Ewald energy   TEWEN  =    -43276.33754336
  -Hartree energ DENC   =    -15383.20950065
  -exchange      EXHF   =         0.00000000
  -V(xc)+E(xc)   XCENC  =      2723.78174446
  PAW double counting   =     46246.26304671   -48207.83573852
  entropy T*S    EENTRO =        -0.10141969
  eigenvalues    EBANDS =     -2716.53117976
  atomic energy  EATOM  =     57646.32533566
  Solvation  Ediel_sol  =         0.00000000
  ---------------------------------------------------
  free energy    TOTEN  =      -442.21375982 eV

  energy without entropy =     -442.11234013  energy(sigma->0) =     -442.16304998


--------------------------------------------------------------------------------------------------------




--------------------------------------- Iteration      1(   4)  ---------------------------------------


     EDDAV:  cpu time    5.4234: real time    5.4362
    --------------------------------------------
      LOOP:  cpu time    5.4234: real time    5.4363

 eigenvalue-minimisations  :  2208
 total energy-change (2. order) :-0.3952878E+03  (-0.3822941E+03)
 number of electron     679.0000000 magnetization      57.5000000
 augmentation part      679.0000000 magnetization      57.5000000

 Free energy of the ion-electron system (eV)
  ---------------------------------------------------
  alpha Z        PSCENC =      2525.43149533
  Ewald energy   TEWEN  =    -43276.33754336
  -Hartree energ DENC   =    -15383.20950065
  -exchange      EXHF   =         0.00000000
  -V(xc)+E(xc)   XCENC  =      2723.78174446
  PAW double counting   =     46246.26304671   -48207.83573852
  entropy T*S    EENTRO =        -0.17348346
  eigenvalues    EBANDS =     -3111.74694618
  atomic energy  EATOM  =     57646.32533566
  Solvation  Ediel_sol  =         0.00000000
  ---------------------------------------------------
  free energy    TOTEN  =      -837.50159002 eV

  energy without entropy =     -837.32810656  energy(sigma->0) =     -837.41484829


--------------------------------------------------------------------------------------------------------




--------------------------------------- Iteration      1(   5)  ---------------------------------------


     EDDAV:  cpu time    7.0526: real time    7.0694
    CHARGE:  cpu time    0.3203: real time    0.3211
    MIXING:  cpu time    0.0048: real time    0.0049
    --------------------------------------------
      LOOP:  cpu time    7.3774: real time    7.3950

 eigenvalue-minimisations  :  3056
 total energy-change (2. order) :-0.2768289E+02  (-0.2740936E+02)
 number of electron     678.9999883 magnetization      58.4114718
 augmentation part      202.1194885 magnetization      44.4901979

 Broyden mixing:
  rms(total) = 0.12926E+02    rms(broyden)= 0.12924E+02
  rms(prec ) = 0.14221E+02
  weight for this iteration     100.00

 Free energy of the ion-electron system (eV)
  ---------------------------------------------------
  alpha Z        PSCENC =      2525.43149533
  Ewald energy   TEWEN  =    -43276.33754336
  -Hartree energ DENC   =    -15383.20950065
  -exchange      EXHF   =         0.00000000
  -V(xc)+E(xc)   XCENC  =      2723.78174446
  PAW double counting   =     46246.26304671   -48207.83573852
  entropy T*S    EENTRO =        -0.16475887
  eigenvalues    EBANDS =     -3139.43855972
  atomic energy  EATOM  =     57646.32533566
  Solvation  Ediel_sol  =         0.00000000
  ---------------------------------------------------
  free energy    TOTEN  =      -865.18447896 eV

  energy without entropy =     -865.01972009  energy(sigma->0) =     -865.10209953


--------------------------------------------------------------------------------------------------------




--------------------------------------- Iteration      1(   6)  ---------------------------------------


    POTLOK:  cpu time    0.2193: real time    0.2198
    SETDIJ:  cpu time    0.0344: real time    0.0345
     EDDAV:  cpu time    6.5508: real time    6.5663
    CHARGE:  cpu time    0.3199: real time    0.3206
    MIXING:  cpu time    0.0049: real time    0.0049
    --------------------------------------------
      LOOP:  cpu time    7.1292: real time    7.1461

 eigenvalue-minimisations  :  2800
 total energy-change (2. order) : 0.5116162E+02  (-0.1350313E+03)
 number of electron     678.9999871 magnetization      54.3017234
 augmentation part      238.6666319 magnetization      49.8170240

 Broyden mixing:
  rms(total) = 0.19150E+02    rms(broyden)= 0.19149E+02
  rms(prec ) = 0.20066E+02
  weight for this iteration     100.00

 eigenvalues of (default mixing * dielectric matrix)
  average eigenvalue GAMMA=   0.2661
  0.2661

 Free energy of the ion-electron system (eV)
  ---------------------------------------------------
  alpha Z        PSCENC =      2525.43149533
  Ewald energy   TEWEN  =    -43276.33754336
  -Hartree energ DENC   =    -14878.57552085
  -exchange      EXHF   =         0.00000000
  -V(xc)+E(xc)   XCENC  =      2750.35755232
  PAW double counting   =     52738.88317696   -54491.19668735
  entropy T*S    EENTRO =        -0.06040642
  eigenvalues    EBANDS =     -3828.85025994
  atomic energy  EATOM  =     57646.32533566
  Solvation  Ediel_sol  =         0.00000000
  ---------------------------------------------------
  free energy    TOTEN  =      -814.02285766 eV

  energy without entropy =     -813.96245123  energy(sigma->0) =     -813.99265444


--------------------------------------------------------------------------------------------------------




--------------------------------------- Iteration      1(   7)  ---------------------------------------


    POTLOK:  cpu time    0.2185: real time    0.2190
    SETDIJ:  cpu time    0.0342: real time    0.0343
     EDDAV:  cpu time    5.9685: real time    5.9826
    CHARGE:  cpu time    0.3128: real time    0.3136
    MIXING:  cpu time    0.0053: real time    0.0053
    --------------------------------------------
      LOOP:  cpu time    6.5393: real time    6.5547

 eigenvalue-minimisations  :  2496
 total energy-change (2. order) : 0.1168275E+03  (-0.3416902E+02)
 number of electron     678.9999872 magnetization      49.5592356
 augmentation part      219.2996050 magnetization      39.2359843

 Broyden mixing:
  rms(total) = 0.63706E+01    rms(broyden)= 0.63695E+01
  rms(prec ) = 0.68878E+01
  weight for this iteration     100.00

 eigenvalues of (default mixing * dielectric matrix)
  average eigenvalue GAMMA=   0.6257
  0.7766  0.4748

 Free energy of the ion-electron system (eV)
  ---------------------------------------------------
  alpha Z        PSCENC =      2525.43149533
  Ewald energy   TEWEN  =    -43276.33754336
  -Hartree energ DENC   =    -15127.64739461
  -exchange      EXHF   =         0.00000000
  -V(xc)+E(xc)   XCENC  =      2734.23575376
  PAW double counting   =     55232.27430610   -57152.66408583
  entropy T*S    EENTRO =        -0.06678837
  eigenvalues    EBANDS =     -3278.74648093
  atomic energy  EATOM  =     57646.32533566
  Solvation  Ediel_sol  =         0.00000000
  ---------------------------------------------------
  free energy    TOTEN  =      -697.19540225 eV

  energy without entropy =     -697.12861388  energy(sigma->0) =     -697.16200806


--------------------------------------------------------------------------------------------------------




--------------------------------------- Iteration      1(   8)  ---------------------------------------


    POTLOK:  cpu time    0.2180: real time    0.2185
    SETDIJ:  cpu time    0.0340: real time    0.0341
     EDDAV:  cpu time    6.5236: real time    6.5391
    CHARGE:  cpu time    0.3207: real time    0.3215
    MIXING:  cpu time    0.0055: real time    0.0055
    --------------------------------------------
      LOOP:  cpu time    7.1019: real time    7.1187

 eigenvalue-minimisations  :  2784
 total energy-change (2. order) :-0.7027664E+02  (-0.2013705E+02)
 number of electron     678.9999868 magnetization      46.6415480
 augmentation part      209.3805764 magnetization      39.0582833

 Broyden mixing:
  rms(total) = 0.10651E+02    rms(broyden)= 0.10650E+02
  rms(prec ) = 0.14109E+02
  weight for this iteration     100.00

 eigenvalues of (default mixing * dielectric matrix)
  average eigenvalue GAMMA=   0.5620
  1.0009  0.4588  0.2264

 Free energy of the ion-electron system (eV)
  ---------------------------------------------------
  alpha Z        PSCENC =      2525.43149533
  Ewald energy   TEWEN  =    -43276.33754336
  -Hartree energ DENC   =    -15085.64362609
  -exchange      EXHF   =         0.00000000
  -V(xc)+E(xc)   XCENC  =      2722.69958897
  PAW double counting   =     59198.25071715   -61198.16251665
  entropy T*S    EENTRO =        -0.18174452
  eigenvalues    EBANDS =     -3299.85374624
  atomic energy  EATOM  =     57646.32533566
  Solvation  Ediel_sol  =         0.00000000
  ---------------------------------------------------
  free energy    TOTEN  =      -767.47203975 eV

  energy without entropy =     -767.29029523  energy(sigma->0) =     -767.38116749


--------------------------------------------------------------------------------------------------------




--------------------------------------- Iteration      1(   9)  ---------------------------------------


    POTLOK:  cpu time    0.2195: real time    0.2200
    SETDIJ:  cpu time    0.0340: real time    0.0341
     EDDAV:  cpu time    5.7537: real time    5.7673
    CHARGE:  cpu time    0.3182: real time    0.3189
    MIXING:  cpu time    0.0053: real time    0.0053
    --------------------------------------------
      LOOP:  cpu time    6.3307: real time    6.3457

 eigenvalue-minimisations  :  2384
 total energy-change (2. order) : 0.4656664E+02  (-0.1809959E+02)
 number of electron     678.9999893 magnetization      44.9593670
 augmentation part      214.4959614 magnetization      35.9235789

 Broyden mixing:
  rms(total) = 0.98386E+01    rms(broyden)= 0.98377E+01
  rms(prec ) = 0.11752E+02
  weight for this iteration     100.00

 eigenvalues of (default mixing * dielectric matrix)
  average eigenvalue GAMMA=   0.5054
  1.1393  0.4507  0.2878  0.1440

 Free energy of the ion-electron system (eV)
  ---------------------------------------------------
  alpha Z        PSCENC =      2525.43149533
  Ewald energy   TEWEN  =    -43276.33754336
  -Hartree energ DENC   =    -14982.51379252
  -exchange      EXHF   =         0.00000000
  -V(xc)+E(xc)   XCENC  =      2717.33406738
  PAW double counting   =     61126.88014147   -63131.85500306
  entropy T*S    EENTRO =        -0.06720867
  eigenvalues    EBANDS =     -3346.10289223
  atomic energy  EATOM  =     57646.32533566
  Solvation  Ediel_sol  =         0.00000000
  ---------------------------------------------------
  free energy    TOTEN  =      -720.90540001 eV

  energy without entropy =     -720.83819134  energy(sigma->0) =     -720.87179568


--------------------------------------------------------------------------------------------------------




--------------------------------------- Iteration      1(  10)  ---------------------------------------


    POTLOK:  cpu time    0.2173: real time    0.2178
    SETDIJ:  cpu time    0.0339: real time    0.0340
     EDDAV:  cpu time    6.1898: real time    6.2045
    CHARGE:  cpu time    0.3163: real time    0.3171
    MIXING:  cpu time    0.0056: real time    0.0056
    --------------------------------------------
      LOOP:  cpu time    6.7630: real time    6.7790

 eigenvalue-minimisations  :  2608
 total energy-change (2. order) : 0.9169931E+01  (-0.1261180E+02)
 number of electron     678.9999881 magnetization      42.3593713
 augmentation part      215.8421241 magnetization      33.3386857

 Broyden mixing:
  rms(total) = 0.69668E+01    rms(broyden)= 0.69659E+01
  rms(prec ) = 0.81268E+01
  weight for this iteration     100.00

 eigenvalues of (default mixing * dielectric matrix)
  average eigenvalue GAMMA=   0.4902
  1.3142  0.4338  0.4014  0.1882  0.1134

 Free energy of the ion-electron system (eV)
  ---------------------------------------------------
  alpha Z        PSCENC =      2525.43149533
  Ewald energy   TEWEN  =    -43276.33754336
  -Hartree energ DENC   =    -14959.57111673
  -exchange      EXHF   =         0.00000000
  -V(xc)+E(xc)   XCENC  =      2715.98497865
  PAW double counting   =     62129.96398081   -64141.45516160
  entropy T*S    EENTRO =        -0.09654198
  eigenvalues    EBANDS =     -3351.98089564
  atomic energy  EATOM  =     57646.32533566
  Solvation  Ediel_sol  =         0.00000000
  ---------------------------------------------------
  free energy    TOTEN  =      -711.73546887 eV

  energy without entropy =     -711.63892689  energy(sigma->0) =     -711.68719788


--------------------------------------------------------------------------------------------------------




--------------------------------------- Iteration      1(  11)  ---------------------------------------


    POTLOK:  cpu time    0.2193: real time    0.2199
    SETDIJ:  cpu time    0.0341: real time    0.0341
     EDDAV:  cpu time    5.6929: real time    5.7064
    CHARGE:  cpu time    0.3139: real time    0.3147
    MIXING:  cpu time    0.0059: real time    0.0059
    --------------------------------------------
      LOOP:  cpu time    6.2662: real time    6.2810

 eigenvalue-minimisations  :  2352
 total energy-change (2. order) : 0.1272092E+02  (-0.6485129E+01)
 number of electron     678.9999876 magnetization      39.1736533
 augmentation part      217.6750354 magnetization      32.9646797

 Broyden mixing:
  rms(total) = 0.42366E+01    rms(broyden)= 0.42345E+01
  rms(prec ) = 0.49509E+01
  weight for this iteration     100.00

 eigenvalues of (default mixing * dielectric matrix)
  average eigenvalue GAMMA=   0.5249
  1.4706  0.6396  0.3966  0.3966  0.1231  0.1231

 Free energy of the ion-electron system (eV)
  ---------------------------------------------------
  alpha Z        PSCENC =      2525.43149533
  Ewald energy   TEWEN  =    -43276.33754336
  -Hartree energ DENC   =    -14951.71181442
  -exchange      EXHF   =         0.00000000
  -V(xc)+E(xc)   XCENC  =      2715.38029667
  PAW double counting   =     63526.02269658   -65553.55802348
  entropy T*S    EENTRO =        -0.05355828
  eigenvalues    EBANDS =     -3330.51343485
  atomic energy  EATOM  =     57646.32533566
  Solvation  Ediel_sol  =         0.00000000
  ---------------------------------------------------
  free energy    TOTEN  =      -699.01455016 eV

  energy without entropy =     -698.96099188  energy(sigma->0) =     -698.98777102


--------------------------------------------------------------------------------------------------------




--------------------------------------- Iteration      1(  12)  ---------------------------------------


    POTLOK:  cpu time    0.2199: real time    0.2204
    SETDIJ:  cpu time    0.0345: real time    0.0346
     EDDAV:  cpu time    5.9866: real time    6.0007
    CHARGE:  cpu time    0.3079: real time    0.3087
    MIXING:  cpu time    0.0060: real time    0.0060
    --------------------------------------------
      LOOP:  cpu time    6.5549: real time    6.5703

 eigenvalue-minimisations  :  2464
 total energy-change (2. order) :-0.1033808E+02  (-0.5086376E+01)
 number of electron     678.9999878 magnetization      36.2425223
 augmentation part      215.2725075 magnetization      29.0539460

 Broyden mixing:
  rms(total) = 0.53942E+01    rms(broyden)= 0.53924E+01
  rms(prec ) = 0.62700E+01
  weight for this iteration     100.00

 eigenvalues of (default mixing * dielectric matrix)
  average eigenvalue GAMMA=   0.5209
  1.6790  0.6443  0.4487  0.4487  0.1682  0.1491  0.1081

 Free energy of the ion-electron system (eV)
  ---------------------------------------------------
  alpha Z        PSCENC =      2525.43149533
  Ewald energy   TEWEN  =    -43276.33754336
  -Hartree energ DENC   =    -14990.99150189
  -exchange      EXHF   =         0.00000000
  -V(xc)+E(xc)   XCENC  =      2716.93752462
  PAW double counting   =     64515.24636918   -66562.32029301
  entropy T*S    EENTRO =        -0.06581028
  eigenvalues    EBANDS =     -3283.57820398
  atomic energy  EATOM  =     57646.32533566
  Solvation  Ediel_sol  =         0.00000000
  ---------------------------------------------------
  free energy    TOTEN  =      -709.35262773 eV

  energy without entropy =     -709.28681745  energy(sigma->0) =     -709.31972259


--------------------------------------------------------------------------------------------------------




--------------------------------------- Iteration      1(  13)  ---------------------------------------


    POTLOK:  cpu time    0.2164: real time    0.2170
    SETDIJ:  cpu time    0.0342: real time    0.0343
     EDDAV:  cpu time    5.4266: real time    5.4395
    CHARGE:  cpu time    0.3128: real time    0.3135
    MIXING:  cpu time    0.0062: real time    0.0062
    --------------------------------------------
      LOOP:  cpu time    5.9963: real time    6.0105

 eigenvalue-minimisations  :  2192
 total energy-change (2. order) : 0.1300548E+02  (-0.4490423E+01)
 number of electron     678.9999879 magnetization      35.3895673
 augmentation part      215.7653319 magnetization      30.1852723

 Broyden mixing:
  rms(total) = 0.38288E+01    rms(broyden)= 0.38275E+01
  rms(prec ) = 0.46505E+01
  weight for this iteration     100.00

 eigenvalues of (default mixing * dielectric matrix)
  average eigenvalue GAMMA=   0.4901
  1.6630  0.6358  0.4999  0.4999  0.1964  0.1964  0.1147  0.1147

 Free energy of the ion-electron system (eV)
  ---------------------------------------------------
  alpha Z        PSCENC =      2525.43149533
  Ewald energy   TEWEN  =    -43276.33754336
  -Hartree energ DENC   =    -15002.86913951
  -exchange      EXHF   =         0.00000000
  -V(xc)+E(xc)   XCENC  =      2717.95050455
  PAW double counting   =     65353.67813759   -67410.48155338
  entropy T*S    EENTRO =        -0.11363550
  eigenvalues    EBANDS =     -3249.93074595
  atomic energy  EATOM  =     57646.32533566
  Solvation  Ediel_sol  =         0.00000000
  ---------------------------------------------------
  free energy    TOTEN  =      -696.34714458 eV

  energy without entropy =     -696.23350908  energy(sigma->0) =     -696.29032683


--------------------------------------------------------------------------------------------------------




--------------------------------------- Iteration      1(  14)  ---------------------------------------


    POTLOK:  cpu time    0.2166: real time    0.2171
    SETDIJ:  cpu time    0.0343: real time    0.0344
     EDDAV:  cpu time    6.0153: real time    6.0295
    CHARGE:  cpu time    0.3123: real time    0.3130
    MIXING:  cpu time    0.0068: real time    0.0068
    --------------------------------------------
      LOOP:  cpu time    6.5852: real time    6.6007

 eigenvalue-minimisations  :  2496
 total energy-change (2. order) : 0.4164117E+01  (-0.1186799E+01)
 number of electron     678.9999875 magnetization      34.0220904
 augmentation part      215.4490825 magnetization      25.9776557

 Broyden mixing:
  rms(total) = 0.23802E+01    rms(broyden)= 0.23779E+01
  rms(prec ) = 0.26848E+01
  weight for this iteration     100.00

 eigenvalues of (default mixing * dielectric matrix)
  average eigenvalue GAMMA=   0.4759
  1.6944  0.6669  0.6669  0.3616  0.3616  0.1834  0.1386  0.1050  0.1050

 Free energy of the ion-electron system (eV)
  ---------------------------------------------------
  alpha Z        PSCENC =      2525.43149533
  Ewald energy   TEWEN  =    -43276.33754336
  -Hartree energ DENC   =    -15014.87354017
  -exchange      EXHF   =         0.00000000
  -V(xc)+E(xc)   XCENC  =      2718.28099229
  PAW double counting   =     65417.43621805   -67476.82191382
  entropy T*S    EENTRO =        -0.09137057
  eigenvalues    EBANDS =     -3231.53270090
  atomic energy  EATOM  =     57646.32533566
  Solvation  Ediel_sol  =         0.00000000
  ---------------------------------------------------
  free energy    TOTEN  =      -692.18302749 eV

  energy without entropy =     -692.09165692  energy(sigma->0) =     -692.13734220


--------------------------------------------------------------------------------------------------------




--------------------------------------- Iteration      1(  15)  ---------------------------------------


    POTLOK:  cpu time    0.2175: real time    0.2180
    SETDIJ:  cpu time    0.0344: real time    0.0345
     EDDAV:  cpu time    5.9173: real time    5.9313
    CHARGE:  cpu time    0.3111: real time    0.3118
    MIXING:  cpu time    0.0069: real time    0.0069
    --------------------------------------------
      LOOP:  cpu time    6.4871: real time    6.5025

 eigenvalue-minimisations  :  2448
 total energy-change (2. order) :-0.1861466E+01  (-0.2505056E+01)
 number of electron     678.9999876 magnetization      33.7269059
 augmentation part      215.1617550 magnetization      25.1818823

 Broyden mixing:
  rms(total) = 0.28570E+01    rms(broyden)= 0.28558E+01
  rms(prec ) = 0.33506E+01
  weight for this iteration     100.00

 eigenvalues of (default mixing * dielectric matrix)
  average eigenvalue GAMMA=   0.4373
  1.7134  0.6607  0.6607  0.3420  0.3420  0.1968  0.1555  0.1124  0.1124  0.0769

 Free energy of the ion-electron system (eV)
  ---------------------------------------------------
  alpha Z        PSCENC =      2525.43149533
  Ewald energy   TEWEN  =    -43276.33754336
  -Hartree energ DENC   =    -15019.20924293
  -exchange      EXHF   =         0.00000000
  -V(xc)+E(xc)   XCENC  =      2718.42760317
  PAW double counting   =     65651.12553917   -67711.13101523
  entropy T*S    EENTRO =        -0.08684532
  eigenvalues    EBANDS =     -3228.58982009
  atomic energy  EATOM  =     57646.32533566
  Solvation  Ediel_sol  =         0.00000000
  ---------------------------------------------------
  free energy    TOTEN  =      -694.04449361 eV

  energy without entropy =     -693.95764829  energy(sigma->0) =     -694.00107095


--------------------------------------------------------------------------------------------------------




--------------------------------------- Iteration      1(  16)  ---------------------------------------


    POTLOK:  cpu time    0.2165: real time    0.2170
    SETDIJ:  cpu time    0.0339: real time    0.0340
     EDDAV:  cpu time    5.9100: real time    5.9240
    CHARGE:  cpu time    0.3110: real time    0.3117
    MIXING:  cpu time    0.0069: real time    0.0069
    --------------------------------------------
      LOOP:  cpu time    6.4783: real time    6.4937

 eigenvalue-minimisations  :  2432
 total energy-change (2. order) : 0.1628863E+01  (-0.6017663E+00)
 number of electron     678.9999877 magnetization      33.6689754
 augmentation part      215.3537573 magnetization      25.3861061

 Broyden mixing:
  rms(total) = 0.20047E+01    rms(broyden)= 0.20034E+01
  rms(prec ) = 0.22532E+01
  weight for this iteration     100.00

 eigenvalues of (default mixing * dielectric matrix)
  average eigenvalue GAMMA=   0.4156
  1.7174  0.6492  0.6492  0.3767  0.2812  0.2812  0.1846  0.1366  0.1145  0.0903
  0.0903

 Free energy of the ion-electron system (eV)
  ---------------------------------------------------
  alpha Z        PSCENC =      2525.43149533
  Ewald energy   TEWEN  =    -43276.33754336
  -Hartree energ DENC   =    -15018.90185570
  -exchange      EXHF   =         0.00000000
  -V(xc)+E(xc)   XCENC  =      2718.45707311
  PAW double counting   =     65759.70744903   -67820.04816922
  entropy T*S    EENTRO =        -0.07511041
  eigenvalues    EBANDS =     -3226.97430545
  atomic energy  EATOM  =     57646.32533566
  Solvation  Ediel_sol  =         0.00000000
  ---------------------------------------------------
  free energy    TOTEN  =      -692.41563103 eV

  energy without entropy =     -692.34052061  energy(sigma->0) =     -692.37807582


--------------------------------------------------------------------------------------------------------




--------------------------------------- Iteration      1(  17)  ---------------------------------------


    POTLOK:  cpu time    0.2166: real time    0.2171
    SETDIJ:  cpu time    0.0342: real time    0.0342
     EDDAV:  cpu time    5.9672: real time    5.9813
    CHARGE:  cpu time    0.3108: real time    0.3115
    MIXING:  cpu time    0.0072: real time    0.0072
    --------------------------------------------
      LOOP:  cpu time    6.5359: real time    6.5513

 eigenvalue-minimisations  :  2464
 total energy-change (2. order) :-0.1768476E-01  (-0.4341210E+00)
 number of electron     678.9999876 magnetization      33.8029660
 augmentation part      215.2777411 magnetization      24.0123459

 Broyden mixing:
  rms(total) = 0.17117E+01    rms(broyden)= 0.17110E+01
  rms(prec ) = 0.17995E+01
  weight for this iteration     100.00

 eigenvalues of (default mixing * dielectric matrix)
  average eigenvalue GAMMA=   0.4055
  1.7183  0.6419  0.6419  0.3256  0.3256  0.3754  0.2498  0.1687  0.1470  0.1022
  0.1022  0.0671

 Free energy of the ion-electron system (eV)
  ---------------------------------------------------
  alpha Z        PSCENC =      2525.43149533
  Ewald energy   TEWEN  =    -43276.33754336
  -Hartree energ DENC   =    -15016.99579173
  -exchange      EXHF   =         0.00000000
  -V(xc)+E(xc)   XCENC  =      2718.48515389
  PAW double counting   =     65810.65527061   -67870.32283372
  entropy T*S    EENTRO =        -0.09622086
  eigenvalues    EBANDS =     -3229.57818160
  atomic energy  EATOM  =     57646.32533566
  Solvation  Ediel_sol  =         0.00000000
  ---------------------------------------------------
  free energy    TOTEN  =      -692.43331578 eV

  energy without entropy =     -692.33709492  energy(sigma->0) =     -692.38520535


--------------------------------------------------------------------------------------------------------




--------------------------------------- Iteration      1(  18)  ---------------------------------------


    POTLOK:  cpu time    0.2165: real time    0.2170
    SETDIJ:  cpu time    0.0341: real time    0.0342
     EDDAV:  cpu time    5.9416: real time    5.9557
    CHARGE:  cpu time    0.3121: real time    0.3128
    MIXING:  cpu time    0.0076: real time    0.0076
    --------------------------------------------
      LOOP:  cpu time    6.5119: real time    6.5273

 eigenvalue-minimisations  :  2448
 total energy-change (2. order) :-0.2608813E+00  (-0.1660998E+00)
 number of electron     678.9999876 magnetization      33.7341846
 augmentation part      215.1716825 magnetization      23.5811707

 Broyden mixing:
  rms(total) = 0.18160E+01    rms(broyden)= 0.18158E+01
  rms(prec ) = 0.18421E+01
  weight for this iteration     100.00

 eigenvalues of (default mixing * dielectric matrix)
  average eigenvalue GAMMA=   0.3845
  1.7211  0.6414  0.6414  0.3462  0.3462  0.3778  0.2701  0.1719  0.1419  0.1064
  0.0982  0.0674  0.0690

 Free energy of the ion-electron system (eV)
  ---------------------------------------------------
  alpha Z        PSCENC =      2525.43149533
  Ewald energy   TEWEN  =    -43276.33754336
  -Hartree energ DENC   =    -15018.44518568
  -exchange      EXHF   =         0.00000000
  -V(xc)+E(xc)   XCENC  =      2718.56902109
  PAW double counting   =     65803.33527753   -67862.89606901
  entropy T*S    EENTRO =        -0.04729939
  eigenvalues    EBANDS =     -3228.62922920
  atomic energy  EATOM  =     57646.32533566
  Solvation  Ediel_sol  =         0.00000000
  ---------------------------------------------------
  free energy    TOTEN  =      -692.69419704 eV

  energy without entropy =     -692.64689765  energy(sigma->0) =     -692.67054734


--------------------------------------------------------------------------------------------------------




--------------------------------------- Iteration      1(  19)  ---------------------------------------


    POTLOK:  cpu time    0.2169: real time    0.2175
    SETDIJ:  cpu time    0.0341: real time    0.0341
     EDDAV:  cpu time    6.0773: real time    6.0917
    CHARGE:  cpu time    0.3115: real time    0.3122
    MIXING:  cpu time    0.0077: real time    0.0077
    --------------------------------------------
      LOOP:  cpu time    6.6474: real time    6.6632

 eigenvalue-minimisations  :  2512
 total energy-change (2. order) : 0.5767161E-01  (-0.7741378E-02)
 number of electron     678.9999876 magnetization      33.8897597
 augmentation part      215.1595442 magnetization      23.7374669

 Broyden mixing:
  rms(total) = 0.18889E+01    rms(broyden)= 0.18889E+01
  rms(prec ) = 0.19182E+01
  weight for this iteration     100.00

 eigenvalues of (default mixing * dielectric matrix)
  average eigenvalue GAMMA=   0.3753
  1.7189  0.6379  0.6379  0.3854  0.3215  0.3215  0.1986  0.1986  0.2508  0.1721
  0.1402  0.1074  0.0967  0.0673

 Free energy of the ion-electron system (eV)
  ---------------------------------------------------
  alpha Z        PSCENC =      2525.43149533
  Ewald energy   TEWEN  =    -43276.33754336
  -Hartree energ DENC   =    -15018.66363843
  -exchange      EXHF   =         0.00000000
  -V(xc)+E(xc)   XCENC  =      2718.57447765
  PAW double counting   =     65807.51293177   -67867.05323848
  entropy T*S    EENTRO =        -0.04201312
  eigenvalues    EBANDS =     -3228.38433245
  atomic energy  EATOM  =     57646.32533566
  Solvation  Ediel_sol  =         0.00000000
  ---------------------------------------------------
  free energy    TOTEN  =      -692.63652543 eV

  energy without entropy =     -692.59451231  energy(sigma->0) =     -692.61551887


--------------------------------------------------------------------------------------------------------




--------------------------------------- Iteration      1(  20)  ---------------------------------------


    POTLOK:  cpu time    0.2164: real time    0.2169
    SETDIJ:  cpu time    0.0342: real time    0.0343
     EDDAV:  cpu time    6.0313: real time    6.0455
    CHARGE:  cpu time    0.3116: real time    0.3123
    MIXING:  cpu time    0.0079: real time    0.0079
    --------------------------------------------
      LOOP:  cpu time    6.6014: real time    6.6170

 eigenvalue-minimisations  :  2496
 total energy-change (2. order) :-0.1813763E+00  (-0.9168841E-02)
 number of electron     678.9999877 magnetization      34.1917395
 augmentation part      215.1686018 magnetization      24.0621210

 Broyden mixing:
  rms(total) = 0.19306E+01    rms(broyden)= 0.19306E+01
  rms(prec ) = 0.19797E+01
  weight for this iteration     100.00

 eigenvalues of (default mixing * dielectric matrix)
  average eigenvalue GAMMA=   0.4094
  1.7145  0.5052  0.5052  0.6253  0.6253  0.3936  0.3936  0.3999  0.2614  0.1728
  0.1420  0.1306  0.1083  0.0957  0.0673

 Free energy of the ion-electron system (eV)
  ---------------------------------------------------
  alpha Z        PSCENC =      2525.43149533
  Ewald energy   TEWEN  =    -43276.33754336
  -Hartree energ DENC   =    -15018.09529081
  -exchange      EXHF   =         0.00000000
  -V(xc)+E(xc)   XCENC  =      2718.57473208
  PAW double counting   =     65795.24399439   -67854.51962924
  entropy T*S    EENTRO =        -0.01921494
  eigenvalues    EBANDS =     -3229.42178080
  atomic energy  EATOM  =     57646.32533566
  Solvation  Ediel_sol  =         0.00000000
  ---------------------------------------------------
  free energy    TOTEN  =      -692.81790171 eV

  energy without entropy =     -692.79868677  energy(sigma->0) =     -692.80829424


--------------------------------------------------------------------------------------------------------




--------------------------------------- Iteration      1(  21)  ---------------------------------------


    POTLOK:  cpu time    0.2162: real time    0.2167
    SETDIJ:  cpu time    0.0342: real time    0.0343
     EDDAV:  cpu time    5.8558: real time    5.8696
    CHARGE:  cpu time    0.3109: real time    0.3117
    MIXING:  cpu time    0.0081: real time    0.0081
[...]
      5.82898      4.76417      6.67140         0.001512      0.000737     -0.000084
      7.25803      9.47431      5.84359         0.000360     -0.000215      0.004354
      8.69674      0.04388      5.01295         0.003590      0.000215      0.002489
      8.69590      4.75909      6.67277         0.000377     -0.000000      0.000654
     10.15114      9.53269      5.84604         0.001551      0.001387     -0.005978
     11.58277      0.02198      4.99516         0.002470      0.000535     -0.000682
     11.56369      4.76921      6.66807         0.000064      0.000677     -0.000246
      4.36822      9.50286      5.85766         0.000725      0.000352      0.008176
      4.36445      7.20649      7.44785        -0.000907      0.001239      0.002450
      8.72582     11.78731      1.69488        -0.002065     -0.001906     -0.000850
      1.52937      2.38027      0.82764         0.002018     -0.000846      0.002796
      2.88307      7.12959      0.00931        -0.002172     -0.004317      0.007133
      2.90073     11.97256      1.62692        -0.005552      0.003778      0.003436
      4.35969      2.38223      0.84893         0.000644      0.002103      0.001073
      5.82041      7.13596      0.00558         0.000607     -0.002103      0.001095
      5.80738     11.88627      1.64366        -0.001286      0.000000     -0.002228
      7.16181      2.37943      0.81033         0.001824      0.000611     -0.000566
      7.20197      7.23635      2.52861         0.001756      0.003227     -0.003517
      7.26655     11.88627      4.17101         0.001415     -0.000000      0.002451
      8.69592      2.28689      3.33533         0.004445     -0.005199     -0.000104
      1.49985      7.11093      2.53081        -0.001592     -0.003279     -0.001291
     10.12487     11.99565      4.16846         0.006737      0.003531     -0.002702
      2.83814      2.29794      3.31835         0.002575     -0.001239      0.000440
      4.38592      7.13876      2.41299        -0.001402     -0.000611      0.001297
      4.39252     11.98523      4.19672         0.000296      0.001906     -0.002213
      5.85391      2.28183      3.30691        -0.003924     -0.003227     -0.000237
      5.80558      7.23130      5.00407        -0.002312      0.005199      0.003798
      5.83518     11.77689      6.64511        -0.005708     -0.003531      0.004483
      7.21101      2.37894      5.82269        -0.002417      0.004838     -0.004909
      8.70215      7.13925      4.96178        -0.003043     -0.004838     -0.004548
      8.70799     11.88627      6.66766         0.000968     -0.000000      0.001677
     10.17098      2.38859      5.82304         0.007263      0.004317      0.001686
     11.55653      7.13792      5.05987         0.001412      0.000846      0.003146
     11.58561     11.79998      6.63411         0.005752     -0.003778     -0.003090
      4.35156      2.39350      5.89507        -0.000323      0.003279     -0.002024
     13.03232     10.51527      7.49779        -0.013883      0.009089      0.005145
      8.70553      3.67001      0.00805         0.000900      0.002035     -0.001031
      8.73711      1.12287      1.62415         0.002826     -0.003519      0.000723
      8.66326      8.56732      1.65589        -0.006539      0.000772      0.001745
      1.39940      5.94599      0.85892        -0.001664     -0.002357      0.001276
      1.42553     13.04144      0.78507        -0.006609     -0.001871     -0.003460
      7.26285     10.49689      7.46314         0.006898     -0.000256      0.001751
      7.29483      3.73493      7.47990        -0.000053     -0.000401      0.001213
      2.90851      0.98080      1.68866        -0.003997     -0.000393      0.001178
      2.89275      8.36252      1.72004         0.006476     -0.010298      0.005977
      4.35145      5.78011      0.77313        -0.001989     -0.001343     -0.000367
      4.34456     13.18058      0.88265        -0.002889     -0.000805     -0.001205
      5.87974     10.59196     -0.00369         0.000401      0.000805     -0.003105
     10.09828      3.73808      7.47661         0.000676      0.001343     -0.001906
      5.76552      0.96641      1.64584        -0.003559     -0.000773     -0.005271
      5.80764      8.55178      1.62152        -0.002785      0.000773     -0.005717
      7.28414      5.98057      0.84959        -0.000580     -0.001007      0.000094
      7.25592     13.12864      0.75130        -0.011307      0.010943     -0.011512
      7.25991     10.58445      2.44081        -0.006574      0.002834      0.004245
      7.27221      3.62401      2.47331         0.001373     -0.004465     -0.002054
      7.31293      1.06160      4.20705         0.005532      0.000444      0.000780
      7.25200      8.45659      4.24223        -0.002091     -0.000444      0.005181
      8.68711      5.96442      3.28137        -0.001699     -0.002380      0.000340
      8.73854     13.28037      3.36983         0.006666      0.002560      0.000978
      1.48816     10.70766      2.53846        -0.003712     -0.002960     -0.001396
     10.12256      3.65360      2.47354         0.000686      0.000090     -0.000056
     10.07336      1.08932      4.22389         0.006133     -0.000870      0.006363
     10.17778      8.37387      4.14476        -0.004308     -0.003460     -0.000257
      2.91926      5.84818      3.34876        -0.001343     -0.002035      0.000264
      2.92534     13.25727      3.31164         0.011397     -0.009089     -0.009451
      4.31031     10.64390      2.45195        -0.004316     -0.010943     -0.015549
      4.35875      3.53762      2.53857         0.000371      0.001007     -0.000455
      4.36747      0.95087      4.13606         0.004781     -0.000772     -0.004790
      4.30306      8.39532      4.18416        -0.000787      0.003519      0.002809
      5.77090      5.89418      3.34009        -0.002465      0.004465      0.000162
      5.77148     13.18809      3.30016         0.006963     -0.002834     -0.003571
      5.83671     10.49217      5.04521        -0.002486     -0.002560      0.006262
      5.76325      3.55377      4.96946         0.001144      0.002380     -0.001301
      5.76563      1.14432      6.69211         0.001932      0.003460     -0.003860
      5.88637      8.42887      6.64124         0.002443      0.000870      0.008493
      7.29816      5.76449      5.87071         0.000878      0.002245      0.001981
      7.29641     13.27160      5.79504         0.001131     -0.002067     -0.003485
      8.65806     10.50094      5.00889        -0.003584      0.002067     -0.000763
      8.70015      3.75370      5.06127         0.001277     -0.002245      0.001751
      8.71783      1.01608      6.66784         0.006263     -0.008280      0.009981
      8.68066      8.50211      6.68930         0.005512      0.008280      0.010415
     10.09542      5.78325      5.86298         0.001077      0.000401      0.000561
     10.11946     13.27565      5.81387        -0.001932      0.000256      0.006850
      2.89943     10.71734      4.94481         0.000308      0.001871     -0.007454
      2.95389      3.55844      4.97214         0.001937      0.002357     -0.000803
     11.64768      1.15567      6.68680         0.001939      0.010298      0.008597
     11.61262      8.53739      6.68475         0.003019      0.000393     -0.002872
      4.34592      5.86459      5.80869        -0.000391     -0.000090      0.000566
      4.38660     13.05112      5.87575         0.000647      0.002960     -0.003913
 -----------------------------------------------------------------------------------
    total drift:                               -0.004816     -0.002606     -0.006560


--------------------------------------------------------------------------------------------------------



  FREE ENERGIE OF THE ION-ELECTRON SYSTEM (eV)
  ---------------------------------------------------
  free  energy   TOTEN  =      -694.6033074438 eV

  energy  without entropy=     -694.5563715746  energy(sigma->0) =     -694.57983951
 
 d Force =-0.8160666E-04[-0.759E-04,-0.873E-04]  d Energy =-0.6253737E-04-0.191E-04
 d Force = 0.1977786E+00[ 0.198E+00, 0.198E+00]  d Ewald  =-0.5735972E+00 0.771E+00


--------------------------------------------------------------------------------------------------------


    POTLOK:  cpu time    0.2523: real time    0.2529


--------------------------------------------------------------------------------------------------------


 Quasi-Newton relaxation of ions (Broydens 2nd method)
  g(Force)  = 0.244E-03   g(Stress)= 0.257E-04

 retain information from N=  2 steps
 eigenvalues of (default step * inverse Hessian matrix)
  average eigenvalue of G=   0.9745
 eigenvalue spectrum of G is  0.0423  1.9067


--------------------------------------------------------------------------------------------------------


  
 reached required accuracy - stopping structural energy minimisation
     LOOP+:  cpu time   34.0134: real time   34.2681
    4ORBIT:  cpu time    0.0000: real time    0.0000

volume of typ            1:     4.3 %

volume of typ            2:    15.7 %

volume of typ            3:    22.6 %

volume of typ            4:     9.4 %
 
total charge     
 
# of ion       s       p       d       tot
------------------------------------------
    1        0.295   6.193   1.916   8.404
    2        0.293   6.191   1.916   8.400
    3        0.295   6.193   1.916   8.404
    4        0.293   6.191   1.916   8.400
    5        0.233   0.279   7.882   8.394
    6        0.233   0.280   7.883   8.396
    7        0.222   0.264   7.900   8.387
    8        0.243   0.300   7.873   8.416
    9        0.243   0.300   7.873   8.416
   10        0.222   0.264   7.904   8.389
   11        0.268   0.352   7.841   8.460
   12        0.229   0.271   7.886   8.386
   13        0.221   0.262   7.900   8.383
   14        0.236   0.286   7.883   8.406
   15        0.239   0.292   7.883   8.414
   16        0.222   0.265   7.898   8.386
   17        0.268   0.352   7.841   8.460
   18        0.229   0.271   7.886   8.386
   19        0.236   0.286   7.883   8.406
   20        0.222   0.265   7.898   8.386
   21        0.273   0.363   7.835   8.471
   22        0.273   0.363   7.835   8.471
   23        0.274   0.367   7.833   8.474
   24        0.233   0.280   7.883   8.396
   25        0.233   0.279   7.882   8.394
   26        0.222   0.264   7.900   8.387
   27        0.239   0.292   7.883   8.414
   28        2.078   0.261   0.099   2.438
   29        2.083   0.273   0.106   2.462
   30        2.079   0.268   0.101   2.448
   31        2.079   0.259   0.099   2.437
   32        2.087   0.284   0.112   2.483
   33        2.074   0.244   0.091   2.409
   34        2.074   0.244   0.091   2.409
   35        2.082   0.266   0.103   2.451
   36        2.078   0.261   0.098   2.438
   37        2.078   0.261   0.100   2.438
   38        2.070   0.229   0.083   2.382
   39        2.082   0.271   0.105   2.458
   40        2.090   0.301   0.120   2.512
   41        2.082   0.269   0.102   2.453
   42        2.078   0.261   0.099   2.438
   43        2.078   0.261   0.098   2.438
   44        2.083   0.273   0.106   2.462
   45        2.078   0.261   0.100   2.438
   46        2.082   0.271   0.105   2.458
   47        2.082   0.269   0.102   2.453
   48        2.077   0.255   0.097   2.430
   49        2.077   0.255   0.097   2.430
   50        2.070   0.228   0.082   2.380
   51        2.079   0.259   0.099   2.437
   52        2.079   0.268   0.101   2.448
   53        2.087   0.284   0.112   2.483
   54        2.090   0.301   0.120   2.512
   55        1.259   2.790   0.005   4.054
   56        1.250   2.834   0.005   4.088
   57        1.251   2.831   0.005   4.087
   58        1.258   2.784   0.006   4.048
   59        1.249   2.840   0.005   4.094
   60        1.252   2.835   0.005   4.092
   61        1.257   2.788   0.005   4.050
   62        1.255   2.791   0.005   4.052
   63        1.256   2.790   0.005   4.051
   64        1.251   2.835   0.005   4.091
   65        1.254   2.794   0.005   4.054
   66        1.256   2.792   0.005   4.053
   67        1.256   2.792   0.005   4.053
   68        1.254   2.794   0.005   4.054
   69        1.256   2.790   0.005   4.051
   70        1.256   2.790   0.005   4.051
   71        1.250   2.836   0.005   4.091
   72        1.252   2.830   0.005   4.086
   73        1.256   2.789   0.005   4.051
   74        1.249   2.831   0.005   4.086
   75        1.255   2.795   0.005   4.055
   76        1.255   2.795   0.005   4.055
   77        1.250   2.840   0.005   4.095
   78        1.257   2.788   0.005   4.050
   79        1.251   2.839   0.005   4.095
   80        1.249   2.832   0.005   4.085
   81        1.255   2.795   0.005   4.055
   82        1.250   2.836   0.005   4.091
   83        1.250   2.834   0.005   4.088
   84        1.259   2.790   0.005   4.054
   85        1.252   2.830   0.005   4.086
   86        1.250   2.836   0.005   4.091
   87        1.258   2.784   0.006   4.048
   88        1.251   2.831   0.005   4.087
   89        1.249   2.831   0.005   4.086
   90        1.256   2.789   0.005   4.051
   91        1.257   2.788   0.005   4.050
   92        1.250   2.840   0.005   4.095
   93        1.250   2.836   0.005   4.091
   94        1.255   2.795   0.005   4.055
   95        1.257   2.787   0.006   4.050
   96        1.257   2.785   0.005   4.048
   97        1.257   2.785   0.005   4.048
   98        1.257   2.787   0.006   4.050
   99        1.260   2.780   0.005   4.045
  100        1.260   2.780   0.005   4.045
  101        1.255   2.791   0.005   4.052
  102        1.257   2.788   0.005   4.050
  103        1.252   2.835   0.005   4.092
  104        1.249   2.840   0.005   4.094
  105        1.251   2.835   0.005   4.091
  106        1.256   2.790   0.005   4.051
  107        1.249   2.832   0.005   4.085
  108        1.251   2.839   0.005   4.095
--------------------------------------------------
tot         130.54  190.42  191.83  512.80
 
magnetization (x)
 
# of ion       s       p       d       tot
------------------------------------------
    1       -0.001  -0.001  -0.010  -0.012
    2       -0.002  -0.001  -0.004  -0.007
    3       -0.001  -0.001  -0.010  -0.012
    4       -0.002  -0.001  -0.004  -0.007
    5        0.001   0.000   1.205   1.206
    6        0.001   0.000   1.214   1.215
    7        0.002  -0.000   1.333   1.335
    8        0.001  -0.000   0.946   0.947
    9        0.001  -0.000   0.946   0.947
   10        0.002   0.000   1.360   1.362
   11       -0.002  -0.001   0.329   0.326
   12        0.001   0.000   1.298   1.300
   13        0.002   0.000   1.348   1.350
   14        0.001   0.000   1.112   1.113
   15        0.001   0.000   1.045   1.046
   16        0.002   0.000   1.314   1.316
   17       -0.002  -0.001   0.329   0.326
   18        0.001   0.000   1.298   1.300
   19        0.001   0.000   1.112   1.113
   20        0.002   0.000   1.314   1.316
   21       -0.002  -0.002   0.240   0.236
   22       -0.002  -0.002   0.240   0.236
   23       -0.002  -0.002   0.166   0.162
   24        0.001   0.000   1.214   1.215
   25        0.001   0.000   1.205   1.206
   26        0.002  -0.000   1.333   1.335
   27        0.001   0.000   1.045   1.046
   28        0.005   0.009   0.001   0.015
   29        0.005   0.009   0.001   0.015
   30        0.005   0.010   0.001   0.016
   31        0.004   0.011   0.003   0.018
   32        0.005   0.011   0.003   0.019
   33        0.005   0.010   0.001   0.016
   34        0.005   0.010   0.001   0.016
   35        0.005   0.012   0.002   0.018
   36        0.005   0.009   0.001   0.015
   37        0.004   0.009   0.002   0.014
   38        0.007   0.009   0.001   0.017
   39        0.005   0.012   0.002   0.019
   40        0.004   0.011   0.003   0.018
   41        0.006   0.011   0.001   0.019
   42        0.005   0.009   0.001   0.015
   43        0.005   0.009   0.001   0.015
   44        0.005   0.009   0.001   0.015
   45        0.004   0.009   0.002   0.014
   46        0.005   0.012   0.002   0.019
   47        0.006   0.011   0.001   0.019
   48        0.004   0.009   0.001   0.014
   49        0.004   0.009   0.001   0.014
   50        0.006   0.008   0.000   0.015
   51        0.004   0.011   0.003   0.018
   52        0.005   0.010   0.001   0.016
   53        0.005   0.011   0.003   0.019
   54        0.004   0.011   0.003   0.018
   55        0.015   0.115   0.000   0.131
   56        0.008   0.071   0.000   0.080
   57        0.009   0.075   0.000   0.084
   58        0.010   0.064   0.000   0.074
   59        0.011   0.131   0.000   0.142
   60        0.009   0.091   0.000   0.100
   61        0.009   0.046   0.000   0.055
   62        0.013   0.113   0.000   0.126
   63        0.010   0.064   0.000   0.074
   64        0.009   0.087   0.000   0.096
   65        0.013   0.120   0.000   0.133
   66        0.015   0.156   0.000   0.171
   67        0.015   0.156   0.000   0.171
   68        0.013   0.120   0.000   0.133
   69        0.011   0.068   0.000   0.079
   70        0.011   0.068   0.000   0.079
   71        0.011   0.132   0.000   0.143
   72        0.009   0.073   0.000   0.082
   73        0.015   0.136   0.000   0.151
   74        0.008   0.075   0.000   0.083
   75        0.014   0.155   0.000   0.169
   76        0.014   0.155   0.000   0.169
   77        0.011   0.128   0.000   0.139
   78        0.011   0.066   0.000   0.077
   79        0.010   0.101   0.000   0.111
   80        0.008   0.075   0.000   0.083
   81        0.015   0.182   0.000   0.198
   82        0.010   0.089   0.000   0.099
   83        0.008   0.071   0.000   0.080
   84        0.015   0.115   0.000   0.131
   85        0.009   0.073   0.000   0.082
   86        0.011   0.132   0.000   0.143
   87        0.010   0.064   0.000   0.074
   88        0.009   0.075   0.000   0.084
   89        0.008   0.075   0.000   0.083
   90        0.015   0.136   0.000   0.151
   91        0.011   0.066   0.000   0.077
   92        0.011   0.128   0.000   0.139
   93        0.010   0.089   0.000   0.099
   94        0.015   0.182   0.000   0.198
   95        0.012   0.123   0.000   0.136
   96        0.011   0.058   0.000   0.069
   97        0.011   0.058   0.000   0.069
   98        0.012   0.123   0.000   0.136
   99        0.013   0.108   0.000   0.122
  100        0.013   0.108   0.000   0.122
  101        0.013   0.113   0.000   0.126
  102        0.009   0.046   0.000   0.055
  103        0.009   0.091   0.000   0.100
  104        0.011   0.131   0.000   0.142
  105        0.009   0.087   0.000   0.096
  106        0.010   0.064   0.000   0.074
  107        0.008   0.075   0.000   0.083
  108        0.010   0.101   0.000   0.111
--------------------------------------------------
tot           0.74    5.66   22.98   29.38
 

 total amount of memory used by VASP MPI-rank0   149577. kBytes
=======================================================================

   base      :      30000. kBytes
   nonlr-proj:      40337. kBytes
   fftplans  :       9349. kBytes
   grid      :      57131. kBytes
   one-center:       1679. kBytes
   wavefun   :      11081. kBytes
 
  
  
 General timing and accounting informations for this job:
 ========================================================
  
                  Total CPU time used (sec):      819.301
                            User time (sec):      813.624
                          System time (sec):        5.678
                         Elapsed time (sec):      827.460
  
                   Maximum memory used (kb):      208372.
                   Average memory used (kb):           0.
  
                          Minor page faults:        39787
                          Major page faults:           45
                 Voluntary context switches:         1302
