 vasp.5.4.4.18Apr17-6-g9f103f2a35 (build May 12 2020 05:39:39) gamma-only       
  
 MD_VERSION_INFO: Compiled 2020-05-12T12:39:39-UTC in devlin.sd.materialsdesign.
 com:/home/medea2/data/build/wwolf/vasp-gpu5.4.4/13047/x86_64/src/src/build/gam 
 from svn 13047
 
 This VASP executable licensed from Materials Design, Inc.
 
 executed on                        Lin64 date 2023.04.01  18:25:26
 running on   16 total cores
 distrk:  each k-point on   16 cores,    1 groups
 distr:  one band on NCORES_PER_BAND=   1 cores,   16 groups


--------------------------------------------------------------------------------------------------------


 INCAR:
 POTCAR:    PAW_PBE Ta_pv 07Sep2000               
 POTCAR:    PAW_PBE Ni 02Aug2007                  
 POTCAR:    PAW_PBE Li_sv 10Sep2004               
 POTCAR:    PAW_PBE O 08Apr2002                   

 ----------------------------------------------------------------------------- 
|                                                                             |
|           W    W    AA    RRRRR   N    N  II  N    N   GGGG   !!!           |
|           W    W   A  A   R    R  NN   N  II  NN   N  G    G  !!!           |
|           W    W  A    A  R    R  N N  N  II  N N  N  G       !!!           |
|           W WW W  AAAAAA  RRRRR   N  N N  II  N  N N  G  GGG   !            |
|           WW  WW  A    A  R   R   N   NN  II  N   NN  G    G                |
|           W    W  A    A  R    R  N    N  II  N    N   GGGG   !!!           |
|                                                                             |
|      For optimal performance we recommend to set                            |
|        NCORE= 4 - approx SQRT( number of cores)                             |
|      NCORE specifies how many cores store one orbital (NPAR=cpu/NCORE).     |
|      This setting can  greatly improve the performance of VASP for DFT.     |
|      The default,   NCORE=1            might be grossly inefficient         |
|      on modern multi-core architectures or massively parallel machines.     |
|      Do your own testing !!!!                                               |
|      Unfortunately you need to use the default for GW and RPA calculations. |
|      (for HF NCORE is supported but not extensively tested yet)             |
|                                                                             |
 ----------------------------------------------------------------------------- 

 POTCAR:    PAW_PBE Ta_pv 07Sep2000               
  local pseudopotential read in
  partial core-charges read in
  partial kinetic energy density read in
  atomic valenz-charges read in
  non local Contribution for L=           1  read in
    real space projection operators read in
  non local Contribution for L=           1  read in
    real space projection operators read in
  non local Contribution for L=           2  read in
    real space projection operators read in
  non local Contribution for L=           2  read in
    real space projection operators read in
  non local Contribution for L=           0  read in
    real space projection operators read in
  non local Contribution for L=           0  read in
    real space projection operators read in
    PAW grid and wavefunctions read in
 
   number of l-projection  operators is LMAX  =           6
   number of lm-projection operators is LMMAX =          18
 
 POTCAR:    PAW_PBE Ni 02Aug2007                  
  local pseudopotential read in
  partial core-charges read in
  partial kinetic energy density read in
  atomic valenz-charges read in
  non local Contribution for L=           2  read in
    real space projection operators read in
  non local Contribution for L=           2  read in
    real space projection operators read in
  non local Contribution for L=           0  read in
    real space projection operators read in
  non local Contribution for L=           0  read in
    real space projection operators read in
  non local Contribution for L=           1  read in
    real space projection operators read in
  non local Contribution for L=           1  read in
    real space projection operators read in
    PAW grid and wavefunctions read in
 
   number of l-projection  operators is LMAX  =           6
   number of lm-projection operators is LMMAX =          18
 
 POTCAR:    PAW_PBE Li_sv 10Sep2004               
  local pseudopotential read in
  atomic valenz-charges read in
  non local Contribution for L=           0  read in
    real space projection operators read in
  non local Contribution for L=           0  read in
    real space projection operators read in
  non local Contribution for L=           1  read in
    real space projection operators read in
    PAW grid and wavefunctions read in
 
   number of l-projection  operators is LMAX  =           3
   number of lm-projection operators is LMMAX =           5
 
 POTCAR:    PAW_PBE O 08Apr2002                   
  local pseudopotential read in
  partial core-charges read in
  partial kinetic energy density read in
  kinetic energy density of atom read in
  atomic valenz-charges read in
  non local Contribution for L=           0  read in
    real space projection operators read in
  non local Contribution for L=           0  read in
    real space projection operators read in
  non local Contribution for L=           1  read in
    real space projection operators read in
  non local Contribution for L=           1  read in
    real space projection operators read in
    PAW grid and wavefunctions read in
 
   number of l-projection  operators is LMAX  =           4
   number of lm-projection operators is LMMAX =           8
 
 Optimization of the real space projectors (new method)

 maximal supplied QI-value         = 15.12
 optimisation between [QCUT,QGAM] = [ 11.34, 22.83] = [ 36.00,145.93] Ry 
 Optimized for a Real-space Cutoff    1.61 Angstroem

   l    n(q)    QCUT    max X(q) W(low)/X(q) W(high)/X(q)  e(spline) 
   1     11    11.338     4.092    0.40E-05    0.64E-05    0.47E-07
   1     11    11.338     4.834    0.13E-04    0.44E-04    0.21E-06
   2     10    11.338    62.294    0.15E-03    0.31E-03    0.77E-06
   2     10    11.338    50.966    0.15E-03    0.31E-03    0.77E-06
   0     11    11.338   103.792    0.33E-04    0.19E-04    0.90E-07
   0     11    11.338    56.335    0.26E-04    0.17E-04    0.79E-07
 Optimization of the real space projectors (new method)

 maximal supplied QI-value         = 16.25
 optimisation between [QCUT,QGAM] = [ 11.38, 22.75] = [ 36.24,144.96] Ry 
 Optimized for a Real-space Cutoff    1.47 Angstroem

   l    n(q)    QCUT    max X(q) W(low)/X(q) W(high)/X(q)  e(spline) 
   2      9    11.376    60.317    0.17E-03    0.16E-04    0.16E-06
   2      9    11.376    55.921    0.17E-03    0.16E-04    0.17E-06
   0     10    11.376    51.690    0.45E-04    0.60E-04    0.21E-06
   0     10    11.376    30.015    0.37E-04    0.55E-04    0.19E-06
   1     10    11.376    18.849    0.83E-04    0.11E-03    0.92E-07
   1     10    11.376    14.624    0.69E-04    0.92E-04    0.82E-07
 Optimization of the real space projectors (new method)

 maximal supplied QI-value         = 22.11
 optimisation between [QCUT,QGAM] = [ 11.28, 22.77] = [ 35.61,145.23] Ry 
 Optimized for a Real-space Cutoff    1.10 Angstroem

   l    n(q)    QCUT    max X(q) W(low)/X(q) W(high)/X(q)  e(spline) 
   0      7    11.276    10.506    0.54E-04    0.58E-04    0.16E-07
   0      7    11.276     8.367    0.11E-03    0.14E-03    0.35E-07
   1      7    11.276     8.983    0.23E-03    0.43E-03    0.86E-07
 Optimization of the real space projectors (new method)

 maximal supplied QI-value         = 24.76
 optimisation between [QCUT,QGAM] = [ 11.39, 22.77] = [ 36.31,145.25] Ry 
 Optimized for a Real-space Cutoff    1.10 Angstroem

   l    n(q)    QCUT    max X(q) W(low)/X(q) W(high)/X(q)  e(spline) 
   0      7    11.387    20.381    0.22E-03    0.48E-03    0.18E-06
   0      7    11.387    15.268    0.22E-03    0.52E-03    0.19E-06
   1      7    11.387     5.964    0.22E-03    0.73E-03    0.24E-06
   1      7    11.387     5.382    0.19E-03    0.60E-03    0.21E-06

 ----------------------------------------------------------------------------- 
|                                                                             |
|  ADVICE TO THIS USER RUNNING 'VASP/VAMP'   (HEAR YOUR MASTER'S VOICE ...):  |
|                                                                             |
|      You enforced a specific xc-type in the INCAR file,                     |
|      a different type was found on the POTCAR file                          |
|          I HOPE YOU KNOW, WHAT YOU ARE  DOING                               |
|                                                                             |
 ----------------------------------------------------------------------------- 

  PAW_PBE Ta_pv 07Sep2000               :
 energy of atom  1       EATOM=-1047.1984
 kinetic energy error for atom=    0.0019 (will be added to EATOM!!)
  PAW_PBE Ni 02Aug2007                  :
 energy of atom  2       EATOM=-1077.6739
 kinetic energy error for atom=    0.0030 (will be added to EATOM!!)
  PAW_PBE Li_sv 10Sep2004               :
 energy of atom  3       EATOM= -202.7858
 kinetic energy error for atom=    0.0143 (will be added to EATOM!!)
  PAW_PBE O 08Apr2002                   :
 energy of atom  4       EATOM= -432.3788
 kinetic energy error for atom=    0.0224 (will be added to EATOM!!)
 
 
 POSCAR: ce6451_1                                
  positions in direct lattice
  No initial velocities read in
 exchange correlation table for  LEXCH =       14
   RHO(1)=    0.500       N(1)  =     2000
   RHO(2)=  100.500       N(2)  =     4000
 


--------------------------------------------------------------------------------------------------------


 ion  position               nearest neighbor table
   1  0.000  0.000  0.990-  57 2.09  60 2.09  72 2.12  93 2.12 108 2.17 105 2.17  22 2.76  17 2.83
                             7 2.83   4 2.96  10 2.96  23 3.01  29 3.07  30 3.07
   2  0.885  0.332  0.235-  56 2.12  74 2.12  71 2.12  80 2.16  77 2.17  59 2.18  11 2.74  13 2.75
                             5 2.86   8 2.89  18 2.96  26 3.02  39 3.04  36 3.05  40 3.06
   3  0.115  0.668  0.120-  55 2.12  61 2.12  94 2.12  79 2.16  64 2.17  58 2.18   6 2.74  14 2.75
                            12 2.86  19 2.89   9 2.96  27 3.02  32 3.04  47 3.05  40 3.06
   4  0.343  1.000  0.989-  63 2.09  60 2.10  93 2.11  66 2.12  96 2.15  99 2.17  20 2.71   7 2.85
                            17 2.88   1 2.96  23 2.97  15 3.03  50 3.04  30 3.07  32 3.08
   5  0.215  0.332  0.235-  65 2.11  86 2.12  62 2.12  80 2.15  83 2.17  59 2.19  13 2.73  16 2.77
                             2 2.86   8 2.90  25 2.99  18 3.01  33 3.03  42 3.04  40 3.06  31 3.09
   6  0.441  0.664  0.102-  70 2.12  85 2.12  64 2.12 100 2.15  61 2.17  67 2.18  19 2.74   3 2.74
                            21 2.85  14 2.90   9 2.95  31 3.01  24 3.03  43 3.05  50 3.06  35 3.08
   7  0.669  0.002  0.998-  69 2.14 105 2.15  99 2.16  66 2.17 102 2.17  72 2.18  22 2.82   1 2.83
                             4 2.85  20 2.85  15 2.88  10 2.88  33 3.09  36 3.10
   8  0.551  0.333  0.234-  68 2.04  65 2.09  71 2.10  74 2.15  86 2.15  89 2.21  16 2.73  11 2.74
                             2 2.89   5 2.90  26 2.94  45 2.99  36 2.99  25 2.99  33 3.01  34 3.02
   9  0.778  0.666  0.110-  70 2.04  55 2.05 106 2.05  73 2.06  58 2.08  67 2.09  27 2.90  24 2.92
                             6 2.95   3 2.96  21 2.99  12 3.01  35 3.03  53 3.03  37 3.05  28 3.05
  10  0.657  0.000  0.332-  78 2.09  57 2.10  72 2.11  75 2.12  69 2.15  90 2.17  15 2.71  17 2.85
                             7 2.88   1 2.96  23 2.97  20 3.03  45 3.04  29 3.07  39 3.08
  11  0.559  0.336  0.543-  95 2.12  98 2.12  77 2.12  89 2.15  74 2.17  92 2.18   8 2.74   2 2.74
                            16 2.85  13 2.90  18 2.95  37 3.01  25 3.03  49 3.05  45 3.06  48 3.08
  12  0.785  0.668  0.450-  76 2.11  97 2.12  73 2.12  79 2.15  82 2.17  58 2.19  14 2.73  21 2.77
                             3 2.86  19 2.90  24 2.99   9 3.01  38 3.03  41 3.04  40 3.06  37 3.09
  13  0.894  0.335  0.544- 101 2.04  98 2.10 104 2.10  83 2.14  77 2.15  80 2.21   5 2.73   2 2.75
                            16 2.90  11 2.90  25 2.93  40 2.99  26 2.99  49 3.00  51 3.03  52 3.09
  14  0.106  0.665  0.438-  88 2.04  85 2.10 103 2.10  82 2.14  64 2.15  79 2.21  12 2.73   3 2.75
                            21 2.90   6 2.90  24 2.93  40 2.99  27 2.99  43 3.00  44 3.03  52 3.09
  15  0.342  0.999  0.335-  84 2.09  63 2.11  87 2.12  66 2.12  69 2.16  90 2.16  10 2.71  17 2.85
                             7 2.88  22 2.95  23 2.96   4 3.03  45 3.05  32 3.08  42 3.08  35 3.08
  16  0.229  0.336  0.543-  83 2.11 104 2.11 107 2.13  89 2.14  86 2.17  92 2.19   8 2.73   5 2.77
                            11 2.85  13 2.90  26 2.98  18 2.99  43 3.03  45 3.06  52 3.06  54 3.07
  17  0.331  0.998  0.666-  96 2.14 108 2.15  90 2.16  75 2.17  87 2.17  93 2.18  22 2.82   1 2.83
                            10 2.85  15 2.85  20 2.88   4 2.88  38 3.09  47 3.10
  18  0.222  0.334  0.888-  95 2.04  56 2.05 107 2.05  62 2.06  59 2.08  92 2.09  26 2.90  25 2.92
                            11 2.95   2 2.96  16 2.99   5 3.01  48 3.03  54 3.03  31 3.05  28 3.05
  19  0.449  0.667  0.785-  91 2.04  76 2.09  94 2.10  61 2.15  97 2.15 100 2.21  21 2.73   6 2.74
                             3 2.89  12 2.90  27 2.94  50 2.99  47 2.99  24 2.99  38 3.01  46 3.02
  20  0.658  0.001  0.677-  81 2.09  78 2.11 102 2.12  75 2.12  96 2.16  99 2.16   4 2.71   7 2.85
                            17 2.88  22 2.95  23 2.96  10 3.03  50 3.05  39 3.08  41 3.08  48 3.08
  21  0.771  0.664  0.773-  82 2.11 103 2.11 106 2.13 100 2.14  97 2.17  67 2.19  19 2.73  12 2.77
                             6 2.85  14 2.90  27 2.98   9 2.99  49 3.03  50 3.06  52 3.06  53 3.07
  22  0.000  0.000  0.675-  84 2.10  81 2.10 102 2.13  87 2.13 105 2.17 108 2.17   1 2.76   7 2.82
                            17 2.82  15 2.95  20 2.95  23 2.99  42 3.08  41 3.08  53 3.09  54 3.09
  23  0.000  0.000  0.334-  63 2.04  78 2.04  60 2.10  57 2.10  81 2.10  84 2.10  20 2.96  15 2.96
                            10 2.97   4 2.97  22 2.99   1 3.01
  24  0.440  0.666  0.448-  88 2.03  91 2.05  76 2.06  85 2.07  73 2.10  70 2.12  27 2.83  46 2.84
                             9 2.92  14 2.93  12 2.99  19 2.99   6 3.03
  25  0.560  0.334  0.888- 101 2.03  68 2.05  65 2.06  98 2.07  62 2.10  95 2.12  26 2.83  34 2.84
                            18 2.92  13 2.93   5 2.99   8 2.99  11 3.03
  26  0.886  0.334  0.889-  68 2.03 101 2.05  71 2.07 104 2.08 107 2.09  56 2.13  25 2.83  18 2.90
                             8 2.94  16 2.98  13 2.99   2 3.02
  27  0.114  0.666  0.775-  91 2.03  88 2.05  94 2.07 103 2.08 106 2.09  55 2.13  24 2.83   9 2.90
                            19 2.94  21 2.98  14 2.99   3 3.02
  28  0.000  0.500  0.992- 107 2.11 106 2.11  71 2.13  94 2.13  58 2.14  59 2.14   9 3.05  18 3.05

  29  0.895  0.839  0.227-  79 1.97  60 2.07  72 2.09  78 2.12  55 2.22  73 2.22  10 3.07   1 3.07

  30  0.105  0.161  0.122-  80 1.97  57 2.07  93 2.09  63 2.12  56 2.22  62 2.22   4 3.07   1 3.07

  31  0.343  0.496  1.000- 100 1.98  64 2.07  59 2.08  65 2.10  95 2.13  94 2.25   6 3.01  18 3.05
                             5 3.09
  32  0.212  0.838  0.226-  79 1.98  66 2.07  61 2.10  84 2.12  60 2.13  85 2.24   3 3.04  15 3.08
                             4 3.08
  33  0.453  0.173  0.104-  86 2.01  99 2.02  68 2.05  69 2.07  62 2.14  63 2.27   8 3.01   5 3.03
                             7 3.09
  34  0.668  0.487  0.989- 100 2.03  65 2.04 101 2.06  71 2.12 106 2.24  25 2.84   8 3.02
  35  0.546  0.826  0.234-  85 2.03  90 2.05  73 2.10  67 2.11  72 2.20  66 2.21   9 3.03   6 3.08
                            15 3.08
  36  0.778  0.173  0.104-  74 2.01 105 2.03  69 2.06  68 2.07  56 2.09  57 2.25   8 2.99   2 3.05
                             7 3.10
  37  0.657  0.504  0.343-  89 1.98  77 2.07  58 2.08  76 2.10  70 2.13  71 2.25  11 3.01   9 3.05
                            12 3.09
  38  0.547  0.827  0.557-  97 2.01  90 2.02  91 2.05  96 2.07  73 2.14  78 2.27  19 3.01  12 3.03
                            17 3.09
  39  0.788  0.162  0.439-  80 1.98  75 2.07  74 2.10  81 2.12  57 2.13  98 2.24   2 3.04  20 3.08
                            10 3.08
  40  0.000  0.500  0.335-  64 2.04  77 2.04  82 2.06  83 2.06  59 2.16  58 2.16  14 2.99  13 2.99
                             5 3.06  12 3.06   2 3.06   3 3.06
  41  0.894  0.838  0.546-  79 2.00  84 2.08  97 2.08 102 2.09  78 2.14 103 2.24  12 3.04  22 3.08
                            20 3.08
  42  0.106  0.162  0.440-  80 2.00  81 2.08  86 2.08  87 2.09  63 2.14 104 2.24   5 3.04  22 3.08
                            15 3.08
  43  0.335  0.505  0.341-  89 2.01  64 2.02  83 2.07  88 2.08  70 2.09  65 2.27  14 3.00  16 3.03
                             6 3.05
  44  0.227  0.820  0.562- 103 2.05  91 2.07  90 2.08 108 2.10  85 2.11  14 3.03
  45  0.445  0.168  0.441-  74 2.03  86 2.05  69 2.08  87 2.09  75 2.15  92 2.16   8 2.99  10 3.04
                            15 3.05  16 3.06  11 3.06
  46  0.332  0.513  0.657-  89 2.03  76 2.04  88 2.06  94 2.12 107 2.24  24 2.84  19 3.02
  47  0.222  0.827  0.882-  61 2.01 108 2.03  96 2.06  91 2.07  55 2.09  60 2.25  19 2.99   3 3.05
                            17 3.10
  48  0.454  0.174  0.780-  98 2.03  99 2.05  62 2.10  92 2.11  93 2.20  75 2.21  18 3.03  11 3.08
                            20 3.08
  49  0.665  0.495  0.675- 100 2.01  77 2.02  82 2.07 101 2.08  95 2.09  76 2.27  13 3.00  21 3.03
                            11 3.05
  50  0.555  0.832  0.887-  61 2.03  97 2.05  96 2.08 102 2.09  66 2.15  67 2.16  19 2.99   4 3.04
                            20 3.05  21 3.06   6 3.06
  51  0.773  0.180  0.789- 104 2.05  68 2.07  99 2.08 105 2.10  98 2.11  13 3.03
  52  0.000  0.500  0.671-  83 2.04  82 2.04  88 2.14 101 2.14 106 2.14 107 2.14  16 3.06  21 3.06
                            13 3.09  14 3.09
  53  0.901  0.826  0.879- 108 2.01  67 2.07 103 2.07  55 2.11 102 2.19  72 2.25   9 3.03  21 3.07
                            22 3.09
  54  0.099  0.174  0.780- 105 2.01  92 2.07 104 2.07  56 2.11  87 2.19  93 2.25  18 3.03  16 3.07
                            22 3.09
  55  0.998  0.745  0.005-   9 2.05  47 2.09  53 2.11   3 2.12  27 2.13  29 2.22
  56  0.002  0.255  0.004-  18 2.05  36 2.09  54 2.11   2 2.12  26 2.13  30 2.22
  57  0.888  0.077  0.217-  30 2.07   1 2.09  10 2.10  23 2.10  39 2.13  36 2.25
  58  0.884  0.582  0.221-   9 2.08  37 2.08  28 2.14  40 2.16   3 2.18  12 2.19
  59  0.116  0.418  0.104-  18 2.08  31 2.08  28 2.14  40 2.16   2 2.18   5 2.19
  60  0.112  0.923  0.106-  29 2.07   1 2.09   4 2.10  23 2.10  32 2.13  47 2.25
  61  0.329  0.758  0.001-  47 2.01  50 2.03  32 2.10   3 2.12  19 2.15   6 2.17
  62  0.329  0.256  0.001-  18 2.06  25 2.10  48 2.10   5 2.12  33 2.14  30 2.22
  63  0.226  0.075  0.220-  23 2.04   4 2.09  15 2.11  30 2.12  42 2.14  33 2.27
  64  0.226  0.574  0.222-  43 2.02  40 2.04  31 2.07   6 2.12  14 2.15   3 2.17
  65  0.447  0.410  0.112-  34 2.04  25 2.06   8 2.09  31 2.10   5 2.11  43 2.27
  66  0.439  0.916  0.114-  32 2.07  15 2.12   4 2.12  50 2.15   7 2.17  35 2.21
  67  0.672  0.751  0.001-  53 2.07   9 2.09  35 2.11  50 2.16   6 2.18  21 2.19
  68  0.662  0.259  0.010-  26 2.03   8 2.04  25 2.05  33 2.05  36 2.07  51 2.07
  69  0.559  0.091  0.215-  36 2.06  33 2.07  45 2.08   7 2.14  10 2.15  15 2.16
  70  0.557  0.588  0.218-   9 2.04  43 2.09  24 2.12   6 2.12  37 2.13
  71  0.779  0.412  0.112-  26 2.07   8 2.10  34 2.12   2 2.12  28 2.13  37 2.25
  72  0.777  0.915  0.115-  29 2.09  10 2.11   1 2.12   7 2.18  35 2.20  53 2.25
  73  0.671  0.744  0.330-   9 2.06  24 2.10  35 2.10  12 2.12  38 2.14  29 2.22
  74  0.671  0.242  0.330-  36 2.01  45 2.03  39 2.10   2 2.12   8 2.15  11 2.17
  75  0.561  0.084  0.553-  39 2.07  20 2.12  10 2.12  45 2.15  17 2.17  48 2.21
  76  0.553  0.590  0.559-  46 2.04  24 2.06  19 2.09  37 2.10  12 2.11  49 2.27
  77  0.774  0.426  0.448-  49 2.02  40 2.04  37 2.07  11 2.12  13 2.15   2 2.17
  78  0.774  0.925  0.446-  23 2.04  10 2.09  20 2.11  29 2.12  41 2.14  38 2.27
  79  0.998  0.762  0.331-  29 1.97  32 1.98  41 2.00  12 2.15   3 2.16  14 2.21
  80  0.002  0.238  0.329-  30 1.97  39 1.98  42 2.00   5 2.15   2 2.16  13 2.21
  81  0.888  0.079  0.561-  42 2.08  20 2.09  22 2.10  23 2.10  39 2.12
  82  0.888  0.575  0.561-  52 2.04  40 2.06  49 2.07  21 2.11  14 2.14  12 2.17
  83  0.112  0.425  0.449-  52 2.04  40 2.06  43 2.07  16 2.11  13 2.14   5 2.17
  84  0.112  0.921  0.449-  41 2.08  15 2.09  22 2.10  23 2.10  32 2.12
  85  0.335  0.744  0.330-  35 2.03  24 2.07  14 2.10  44 2.11   6 2.12  32 2.24
  86  0.332  0.242  0.329-  33 2.01  45 2.05  42 2.08   5 2.12   8 2.15  16 2.17
  87  0.222  0.086  0.552-  45 2.09  42 2.09  15 2.12  22 2.13  17 2.17  54 2.19
  88  0.217  0.591  0.552-  24 2.03  14 2.04  27 2.05  46 2.06  43 2.08  52 2.14
  89  0.441  0.429  0.450-  37 1.98  43 2.01  46 2.03  16 2.14  11 2.15   8 2.21
  90  0.441  0.906  0.450-  38 2.02  35 2.05  44 2.08  15 2.16  17 2.16  10 2.17
  91  0.338  0.741  0.672-  27 2.03  19 2.04  24 2.05  38 2.05  47 2.07  44 2.07
  92  0.328  0.249  0.673-  54 2.07  18 2.09  48 2.11  45 2.16  11 2.18  16 2.19
  93  0.223  0.085  0.892-  30 2.09   4 2.11   1 2.12  17 2.18  48 2.20  54 2.25
  94  0.221  0.588  0.891-  27 2.07  19 2.10  46 2.12   3 2.12  28 2.13  31 2.25
  95  0.443  0.412  0.776-  18 2.04  49 2.09  25 2.12  11 2.12  31 2.13
  96  0.441  0.909  0.775-  47 2.06  38 2.07  50 2.08  17 2.14   4 2.15  20 2.16
  97  0.668  0.758  0.661-  38 2.01  50 2.05  41 2.08  12 2.12  19 2.15  21 2.17
  98  0.665  0.256  0.665-  48 2.03  25 2.07  13 2.10  51 2.11  11 2.12  39 2.24
  99  0.559  0.094  0.891-  33 2.02  48 2.05  51 2.08  20 2.16   7 2.16   4 2.17
 100  0.559  0.571  0.891-  31 1.98  49 2.01  34 2.03  21 2.14   6 2.15  19 2.21
 101  0.783  0.409  0.768-  25 2.03  13 2.04  26 2.05  34 2.06  49 2.08  52 2.14
 102  0.778  0.914  0.774-  50 2.09  41 2.09  20 2.12  22 2.13   7 2.17  53 2.19
 103  0.002  0.744  0.664-  44 2.05  53 2.07  27 2.08  14 2.10  21 2.11  41 2.24
 104  0.998  0.256  0.665-  51 2.05  54 2.07  26 2.08  13 2.10  16 2.11  42 2.24
 105  0.887  0.094  0.890-  54 2.01  36 2.03  51 2.10   7 2.15   1 2.17  22 2.17
 106  0.885  0.587  0.891-   9 2.05  27 2.09  28 2.11  21 2.13  52 2.14  34 2.24
 107  0.115  0.413  0.777-  18 2.05  26 2.09  28 2.11  16 2.13  52 2.14  46 2.24
 108  0.113  0.906  0.776-  53 2.01  47 2.03  44 2.10  17 2.15   1 2.17  22 2.17
 
  LATTYP: Found a base centered monoclinic cell.
 ALAT       =    14.9064722531
 B/A-ratio  =     0.5877949566
 C/A-ratio  =     2.2511403744
 COS(beta)  =    -0.7652769272
  
  Lattice vectors:
  
 A1 = (   4.2642029748,  -0.0052375869,  -7.5206523779)
 A2 = (   8.6451775700,  -0.0052375869,   0.0674182308)
 A3 = ( -25.8063862544, -15.4299515381,  14.8993236634)


Analysis of symmetry for initial positions (statically):
=====================================================================
 Subroutine PRICEL returns:
 Original cell was already a primitive cell.
 

 Routine SETGRP: Setting up the symmetry group for a 
 base centered monoclinic supercell.


 Subroutine GETGRP returns: Found  2 space group operations
 (whereof  2 operations were pure point group operations)
 out of a pool of  4 trial point group operations.


The static configuration has the point symmetry C_2 .


Analysis of symmetry for dynamics (positions and initial velocities):
=====================================================================
 Subroutine PRICEL returns:
 Original cell was already a primitive cell.
 

 Routine SETGRP: Setting up the symmetry group for a 
 base centered monoclinic supercell.


 Subroutine GETGRP returns: Found  2 space group operations
 (whereof  2 operations were pure point group operations)
 out of a pool of  4 trial point group operations.


The dynamic configuration has the point symmetry C_2 .


Analysis of structural, dynamic, and magnetic symmetry:
=====================================================================
 Subroutine PRICEL returns:
 Original cell was already a primitive cell.
 

 Routine SETGRP: Setting up the symmetry group for a 
 base centered monoclinic supercell.


 Subroutine GETGRP returns: Found  2 space group operations
 (whereof  2 operations were pure point group operations)
 out of a pool of  4 trial point group operations.


The magnetic configuration has the point symmetry C_2 .


 Subroutine INISYM returns: Found  2 space group operations
 (whereof  2 operations are pure point group operations),
 and found     1 'primitive' translations

 
 
 KPOINTS: Automatic mesh                          

Automatic generation of k-mesh.
Space group operators:
 irot       det(A)        alpha          n_x          n_y          n_z        tau_x        tau_y        tau_z
    1     1.000000     0.000001     1.000000     0.000000     0.000000     0.000000     0.000000     0.000000
    2     1.000000   180.000000    -0.500000     0.000000    -0.866025     0.000000     0.000000     0.000000
 
 Subroutine IBZKPT returns following result:
 ===========================================
 
 Found      1 irreducible k-points:
 
 Following reciprocal coordinates:
            Coordinates               Weight
  0.000000  0.000000  0.000000      1.000000
 
 Following cartesian coordinates:
            Coordinates               Weight
  0.000000  0.000000  0.000000      1.000000
 


--------------------------------------------------------------------------------------------------------




 Dimension of arrays:
   k-points           NKPTS =      1   k-points in BZ     NKDIM =      1   number of bands    NBANDS=    432
   number of dos      NEDOS =    301   number of ions     NIONS =    108
   non local maximal  LDIM  =      6   non local SUM 2l+1 LMDIM =     18
   total plane-waves  NPLWV = 491520
   max r-space proj   IRMAX =   8583   max aug-charges    IRDMAX=  27563
   dimension x,y,z NGX =    64 NGY =  120 NGZ =   64
   dimension x,y,z NGXF=   128 NGYF=  240 NGZF=  128
   support grid    NGXF=   128 NGYF=  240 NGZF=  128
   ions per type =              22   5  27  54
   NGX,Y,Z   is equivalent  to a cutoff of  12.31, 12.91, 12.14 a.u.
   NGXF,Y,Z  is equivalent  to a cutoff of  24.61, 25.82, 24.29 a.u.

 SYSTEM =  unknown system                          
 POSCAR =  ce6451_1                                

 Startparameter for this run:
   NWRITE =      1    write-flag & timer
   PREC   = accura    normal or accurate (medium, high low for compatibility)
   ISTART =      0    job   : 0-new  1-cont  2-samecut
   ICHARG =      2    charge: 1-file 2-atom 10-const
   ISPIN  =      2    spin polarized calculation?
   LNONCOLLINEAR =      F non collinear calculations
   LSORBIT =      F    spin-orbit coupling
   INIWAV =      1    electr: 0-lowe 1-rand  2-diag
   LASPH  =      F    aspherical Exc in radial PAW
   METAGGA=      F    non-selfconsistent MetaGGA calc.

 Electronic Relaxation 1
   ENCUT  =  500.0 eV  36.75 Ry    6.06 a.u.  15.76 28.17 15.98*2*pi/ulx,y,z
   ENINI  =  500.0     initial cutoff
   ENAUG  =  628.9 eV  augmentation charge cutoff
   NELM   =     80;   NELMIN=  2; NELMDL= -5     # of ELM steps 
   EDIFF  = 0.1E-04   stopping-criterion for ELM
   LREAL  =      T    real-space projection
   NLSPLINE    = F    spline interpolate recip. space projectors
   LCOMPAT=      F    compatible to vasp.4.4
   GGA_COMPAT  = T    GGA compatible to vasp.4.4-vasp.4.6
   LMAXPAW     = -100 max onsite density
   LMAXMIX     =    2 max onsite mixed and CHGCAR
   VOSKOWN=      1    Vosko Wilk Nusair interpolation
   ROPT   =   -0.00025  -0.00025  -0.00025  -0.00025
 Ionic relaxation
   EDIFFG = -.2E-01   stopping-criterion for IOM
   NSW    =     20    number of steps for IOM
   NBLOCK =      1;   KBLOCK =     20    inner block; outer block 
   IBRION =      1    ionic relax: 0-MD 1-quasi-New 2-CG
   NFREE  =      0    steps in history (QN), initial steepest desc. (CG)
   ISIF   =      3    stress and relaxation
   IWAVPR =     11    prediction:  0-non 1-charg 2-wave 3-comb
   ISYM   =      2    0-nonsym 1-usesym 2-fastsym
   LCORR  =      T    Harris-Foulkes like correction to forces

   POTIM  = 0.5000    time-step for ionic-motion
   TEIN   =    0.0    initial temperature
   TEBEG  =    0.0;   TEEND  =   0.0 temperature during run
   SMASS  =  -3.00    Nose mass-parameter (am)
   estimated Nose-frequenzy (Omega)   =  0.10E-29 period in steps =****** mass=  -0.171E-26a.u.
   SCALEE = 1.0000    scale energy and forces
   NPACO  =    256;   APACO  = 16.0  distance and # of slots for P.C.
   PSTRESS=    0.0 pullay stress

  Mass of Ions in am
   POMASS = 180.95 58.69  7.01 16.00
  Ionic Valenz
   ZVAL   =  11.00 10.00  3.00  6.00
  Atomic Wigner-Seitz radii
   RWIGS  =   1.34  1.15  1.23  0.73
  virtual crystal weights 
   VCA    =   1.00  1.00  1.00  1.00
   NELECT =     697.0000    total number of electrons
   NUPDOWN=      -1.0000    fix difference up-down

 DOS related values:
   EMIN   =  10.00;   EMAX   =-10.00  energy-range for DOS
   EFERMI =   0.00
   ISMEAR =     0;   SIGMA  =   0.05  broadening in eV -4-tet -1-fermi 0-gaus

 Electronic relaxation 2 (details)
   IALGO  =     38    algorithm
   LDIAG  =      T    sub-space diagonalisation (order eigenvalues)
   LSUBROT=      F    optimize rotation matrix (better conditioning)
   TURBO    =      0    0=normal 1=particle mesh
   IRESTART =      0    0=no restart 2=restart with 2 vectors
   NREBOOT  =      0    no. of reboots
   NMIN     =      0    reboot dimension
   EREF     =   0.00    reference energy to select bands
   IMIX   =      4    mixing-type and parameters
     AMIX     =   0.40;   BMIX     =  1.00
     AMIX_MAG =   1.60;   BMIX_MAG =  1.00
     AMIN     =   0.10
     WC   =   100.;   INIMIX=   1;  MIXPRE=   1;  MAXMIX= -45

 Intra band minimization:
   WEIMIN = 0.0010     energy-eigenvalue tresh-hold
   EBREAK =  0.58E-08  absolut break condition
   DEPER  =   0.30     relativ break condition  

   TIME   =   0.40     timestep for ELM

  volume/ion in A,a.u.               =       9.34        63.05
  Fermi-wavevector in a.u.,A,eV,Ry     =   1.447170  2.734754 28.494676  2.094300
  Thomas-Fermi vector in A             =   2.565155
 
 Write flags
   LWAVE        =      F    write WAVECAR
   LDOWNSAMPLE  =      F    k-point downsampling of WAVECAR
   LCHARG       =      T    write CHGCAR
   LVTOT        =      F    write LOCPOT, total local potential
   LVHAR        =      F    write LOCPOT, Hartree potential only
   LELF         =      F    write electronic localiz. function (ELF)
   LORBIT       =      0    0 simple, 1 ext, 2 COOP (PROOUT), +10 PAW based schemes


 Dipole corrections
   LMONO  =      F    monopole corrections only (constant potential shift)
   LDIPOL =      F    correct potential (dipole corrections)
   IDIPOL =      0    1-x, 2-y, 3-z, 4-all directions 
   EPSILON=  1.0000000 bulk dielectric constant

 Exchange correlation treatment:
   GGA     =    PS    GGA type
   LEXCH   =    14    internal setting for exchange type
   VOSKOWN=      1    Vosko Wilk Nusair interpolation
   LHFCALC =     F    Hartree Fock is set to
   LHFONE  =     F    Hartree Fock one center treatment
   AEXX    =    0.0000 exact exchange contribution

 Linear response parameters
   LEPSILON=     F    determine dielectric tensor
   LRPA    =     F    only Hartree local field effects (RPA)
   LNABLA  =     F    use nabla operator in PAW spheres
   LVEL    =     F    velocity operator in full k-point grid
   LINTERFAST=   F  fast interpolation
   KINTER  =     0    interpolate to denser k-point grid
   CSHIFT  =0.1000    complex shift for real part using Kramers Kronig
   OMEGAMAX=  -1.0    maximum frequency
   DEG_THRESHOLD= 0.2000000E-02 threshold for treating states as degnerate
   RTIME   =   -0.100 relaxation time in fs
  (WPLASMAI=    0.000 imaginary part of plasma frequency in eV, 0.658/RTIME)
   DFIELD  = 0.0000000 0.0000000 0.0000000 field for delta impulse in time
 
 Orbital magnetization related:
   ORBITALMAG=     F  switch on orbital magnetization
   LCHIMAG   =     F  perturbation theory with respect to B field
   DQ        =  0.001000  dq finite difference perturbation B field
   LLRAUG    =     F  two centre corrections for induced B field



--------------------------------------------------------------------------------------------------------


 quasi-Newton-method for relaxation of ions
 charge density and potential will be updated during run
 spin polarized calculation
 Variant of blocked Davidson
 Davidson routine will perform the subspace rotation
 perform sub-space diagonalisation
    after iterative eigenvector-optimisation
 modified Broyden-mixing scheme, WC =      100.0
 initial mixing is a Kerker type mixing with AMIX =  0.4000 and BMIX =      1.0000
 Hartree-type preconditioning will be used
 using additional bands           83
 real space projection scheme for non local part
 use partial core corrections
 calculate Harris-corrections to forces 
   (improved forces if not selfconsistent)
 use gradient corrections 
 use of overlap-Matrix (Vanderbilt PP)
 Gauss-broadening in eV      SIGMA  =   0.05


--------------------------------------------------------------------------------------------------------


  energy-cutoff  :      500.00
  volume of cell :     1009.02
      direct lattice vectors                 reciprocal lattice vectors
     8.645177570 -0.005237587  0.067418231     0.116194652  0.000124083 -0.067085014
    -0.012374835 15.450901886  0.007144631     0.000039388  0.064721183 -0.000022741
     4.380974595  0.000000000  7.588070609    -0.001032399 -0.000062041  0.132381862

  length of vectors
     8.645442028 15.450908493  8.761949210     0.134170085  0.064721199  0.132385902


 
 k-points in units of 2pi/SCALE and weight: Automatic mesh                          
   0.00000000  0.00000000  0.00000000       1.000
 
 k-points in reciprocal lattice and weights: Automatic mesh                          
   0.00000000  0.00000000  0.00000000       1.000
 
 position of ions in fractional coordinates (direct lattice) 
   0.00000000  0.00000000  0.98993351
   0.88452188  0.33219926  0.23510038
   0.11547812  0.66780074  0.11962225
   0.34309371  0.99981018  0.98922274
   0.21515639  0.33183619  0.23510417
   0.44123423  0.66423231  0.10182482
   0.66869760  0.00239051  0.99757897
   0.55089267  0.33255895  0.23441303
   0.77818439  0.66555194  0.11022544
   0.65690629  0.00018982  0.33231646
   0.55876577  0.33576769  0.54305905
   0.78484361  0.66816381  0.45026057
   0.89363173  0.33545688  0.54408821
   0.10636827  0.66454312  0.43771993
   0.34180533  0.99916712  0.33549144
   0.22925629  0.33573998  0.54334321
   0.33130240  0.99760949  0.66627657
   0.22181561  0.33444806  0.88840983
   0.44910733  0.66744105  0.78530570
   0.65819467  0.00083288  0.67729677
   0.77074371  0.66426002  0.77259950
   0.00000000  0.00000000  0.67540395
   0.00000000  0.00000000  0.33396286
   0.44049776  0.66615887  0.44788986
   0.55950224  0.33384113  0.88838762
   0.88617756  0.33439975  0.88925597
   0.11382244  0.66560025  0.77543354
   0.00000000  0.50000000  0.99236473
   0.89512506  0.83883701  0.22681545
   0.10487494  0.16116299  0.12194051
   0.34317793  0.49568373  0.99975989
   0.21234724  0.83769497  0.22632849
   0.45316431  0.17284995  0.10383126
   0.66833901  0.48703604  0.98855568
   0.54643709  0.82605358  0.23365714
   0.77799139  0.17315381  0.10366462
   0.65682207  0.50431627  0.34293782
   0.54683569  0.82715005  0.55699557
   0.78765276  0.16230503  0.43867572
   0.00000000  0.50000000  0.33544438
   0.89437979  0.83761844  0.54561107
   0.10562021  0.16238156  0.43999086
   0.33473924  0.50523755  0.34056567
   0.22744457  0.82005834  0.56167317
   0.44539880  0.16790188  0.44148016
   0.33166099  0.51296396  0.65689469
   0.22200861  0.82684619  0.88165601
   0.45356291  0.17394642  0.78009424
   0.66526076  0.49476245  0.67530490
   0.55460120  0.83209812  0.88687896
   0.77255543  0.17994166  0.78911774
   0.00000000  0.50000000  0.67088748
   0.90082236  0.82607096  0.87878100
   0.09917764  0.17392904  0.77960336
   0.99810011  0.74508618  0.00541560
   0.00189989  0.25491382  0.00351571
   0.88835426  0.07746088  0.21718199
   0.88366843  0.58243412  0.22060858
   0.11633157  0.41756588  0.10427701
   0.11164574  0.92253912  0.10553625
   0.32930760  0.75831479  0.00080066
   0.32855836  0.25586196  0.00149996
   0.22599329  0.07508120  0.21974216
   0.22636018  0.57410099  0.22201643
   0.44655258  0.41019356  0.11195471
   0.43889518  0.91565208  0.11414187
   0.67222271  0.75050569  0.00125339
   0.66245751  0.25927321  0.00993964
   0.55921915  0.09118268  0.21537487
   0.55732092  0.58787985  0.21819209
   0.77922425  0.41195326  0.11212267
   0.77705119  0.91457586  0.11526304
   0.67144164  0.74413804  0.33005832
   0.67069240  0.24168521  0.33010827
   0.56110482  0.08434792  0.55303705
   0.55344742  0.58980644  0.55850728
   0.77363982  0.42589901  0.44837661
   0.77400671  0.92491880  0.44573545
   0.99811055  0.76178117  0.33124985
   0.00188945  0.23821883  0.32936040
   0.88771606  0.07873665  0.56097217
   0.88834645  0.57494683  0.56097824
   0.11165355  0.42505317  0.44932469
   0.11228394  0.92126335  0.44868823
   0.33466852  0.74385040  0.33049486
   0.33200901  0.24176834  0.32936803
   0.22238028  0.08606368  0.55171891
   0.21653326  0.59108967  0.55157313
   0.44128524  0.42938700  0.44972978
   0.44106800  0.90634746  0.44965275
   0.33754249  0.74072679  0.67239716
   0.32777729  0.24949431  0.67347611
   0.22294881  0.08542414  0.89231423
   0.22077575  0.58804674  0.89134692
   0.44267908  0.41212015  0.77551301
   0.44078085  0.90881732  0.77459402
   0.66799099  0.75823166  0.66137704
   0.66533148  0.25614960  0.66516338
   0.55893200  0.09365254  0.89072076
   0.55871476  0.57061300  0.89101502
   0.78346674  0.40891033  0.76810639
   0.77761972  0.91393632  0.77409920
   0.00175258  0.74377696  0.66363391
   0.99824742  0.25622304  0.66538649
   0.88650232  0.09355805  0.88967741
   0.88525477  0.58712763  0.89146842
   0.11474523  0.41287237  0.77672319
   0.11349768  0.90644195  0.77617973
 
 position of ions in cartesian coordinates  (Angst):
   4.33687356  0.00000000  7.51168537
   8.67270660  5.12814541  1.84596462
   1.51412697 10.31751889  0.92025860
   7.28749325 15.44617201  7.53656604
   2.88594417  5.12604151  1.80086335
   4.25242045 10.26067725  0.80714685
  10.15134803  0.03343317  7.61479915
   5.78540712  5.13545036  1.81825884
   7.20220099 10.27930192  0.89361736
   7.13493914 -0.00050771  2.56592958
   7.20560213  5.18498705  4.16084035
   8.74942407 10.31962279  3.47429555
  10.10509039  5.17843087  4.19122354
   2.82898886 10.26723343  3.33336881
   4.41238272 15.43624290  2.57591533
   4.35817941  5.18628474  4.14078143
   5.77076355 15.41223112  5.08521703
   5.80559749  5.16636238  6.75866044
   7.31475746 10.31021394  5.99400174
   8.65741943  0.00942140  5.18375598
  10.03973491 10.25937956  5.91924763
   2.95892755  0.00000000  5.12501286
   1.46308281  0.00000000  2.53413376
   5.76213185 10.29044820  3.43307692
   8.72486858  5.15521610  6.78125381
  11.55283204  5.16213630  6.80987078
   4.37293315 10.28352800  5.89647363
   4.34133725  7.72545094  7.53370596
   8.72180735 12.95610004  1.78743258
   1.43888639  2.48956425  0.93351513
   7.34062282  7.65696325  7.61292656
   2.81695262 12.94203060  1.73769766
   4.37042905  2.66831413  0.81966542
  10.10271975  7.52164559  7.54976823
   5.73746939 12.76041081  1.81574855
   7.17788303  2.67130773  0.84030238
   7.17450447  7.78870104  2.65012133
   7.15743924 12.77735017  4.26929809
   8.72921666  2.50363369  3.38296410
   1.46338589  7.72545094  2.54894796
  10.11201495 12.93727594  4.20641730
   2.83868481  2.50838836  3.34696260
   4.37963749  7.80462259  2.61041361
   4.41682650 12.66944969  4.28320860
   5.78258732  2.59190266  3.38121022
   5.73875926  7.92401871  5.01058823
   5.77158435 12.77435657  6.71094299
   7.33655239  2.68525349  5.95123137
   8.70366841  7.64104171  5.17264686
   8.66972297 12.85376164  6.77303544
  10.13375690  2.77621461  6.04125107
   2.93295359  7.72545094  5.09431388
  11.62746401 12.75882322  6.73488610
   4.27067848  2.68684108  5.92361438
   8.64325797 11.50702583  0.11370746
   0.02867261  3.93863847  0.02862681
   8.63049054  1.19218762  1.70843698
   8.59874355  8.99450415  1.73773012
   1.45737470  6.45116015  0.80208754
   1.41613261 14.25347667  0.81493468
   2.84104633 11.71492264  0.03369468
   2.84385040  3.95157719  0.03536066
   2.91550782  1.15888860  1.68319152
   2.92246789  8.86919249  1.70403889
   4.34592101  6.33552159  0.88255671
   4.28304835 14.14535170  0.90224810
   5.80768838 11.59246896  0.06019296
   5.76739965  4.00253525  0.12193681
   5.77697232  1.40592568  1.67263275
   5.76675740  9.08035487  1.69743076
   7.22264072  6.36096815  0.90627191
   7.21139224 14.12695201  0.93354581
   7.24150073 11.49408711  2.55508984
   7.24146002  3.73074166  2.55182851
   7.27264828  1.30031260  4.23491551
   7.22415867  9.11014271  4.27951907
   8.64730973  6.57647181  3.45751370
   8.63273541 14.28677570  3.44106243
  10.07061320 11.76497843  2.58628074
   1.45630626  3.68068587  2.50103934
  10.13109344  1.21190276  4.31710723
  10.13042935  8.87879427  4.32074102
   2.92848486  6.56687003  3.42007181
   2.92500585 14.23376153  3.41883004
   4.33195334 11.49140669  2.53569563
   4.31023797  3.73379997  2.52337867
   4.33851851  1.32859674  4.20208942
   4.28108172  9.13173438  4.20419726
   5.77993041  6.63210514  3.44539981
   5.77181255 14.00157555  3.44820836
   5.85470327 11.44312905  5.13024586
   5.78108715  3.85319534  5.13426499
   5.83558091  1.31871229  6.78658452
   5.80633679  9.08469615  6.78268905
   7.21944213  6.36530943  5.91743656
   7.19285898 14.03973862  5.91388395
   8.66299374 11.71186432  5.06902773
   8.66280285  3.95425761  5.09399226
   8.73313248  1.44408875  6.79720334
   8.72664124  8.81355916  6.80282927
  10.13320347  6.31392991  5.88418698
  10.10265968 14.11706756  5.93287487
   2.91331055 11.49201565  5.04113313
  11.54189680  3.95364864  5.11813036
  11.56046634  1.44091312  6.81136986
  11.55141957  9.06701481  6.82840244
   4.38968822  6.37864949  5.90451615
   4.37041421 14.00475118  5.90383460
 


--------------------------------------------------------------------------------------------------------


 use serial FFT for orbitals x direction half grid
 k-point  1 :   0.0000 0.0000 0.0000  plane waves:   12813

 maximum and minimum number of plane-waves per node :     12813    12813

 maximum number of plane-waves:     12813
 maximum index in each direction: 
   IXMAX=   15   IYMAX=   28   IZMAX=   15
   IXMIN=    0   IYMIN=  -28   IZMIN=  -13

 The following grids will avoid any aliasing or wrap around errors in the Hartre
 e energy
  - symmetry arguments have not been applied
  - exchange correlation energies might require even more grid points
  - we recommend to set PREC=Normal or Accurate and rely on VASP defaults
 NGX is ok and might be reduce to    64
 NGY is ok and might be reduce to   120
 NGZ is ok and might be reduce to    60

 serial   3D FFT for wavefunctions
 parallel 3D FFT for charge:
    minimum data exchange during FFTs selected (reduces bandwidth)


 total amount of memory used by VASP MPI-rank0   163999. kBytes
=======================================================================

   base      :      30000. kBytes
   nonlr-proj:      46941. kBytes
   fftplans  :      10383. kBytes
   grid      :      63467. kBytes
   one-center:       1679. kBytes
   wavefun   :      11529. kBytes
 
     INWAV:  cpu time    0.0000: real time    0.0000
 Broyden mixing: mesh for mixing (old mesh)
   NGX = 31   NGY = 57   NGZ = 31
  (NGX  =128   NGY  =240   NGZ  =128)
  gives a total of  54777 points

 initial charge density was supplied:
 charge density of overlapping atoms calculated
 number of electron     697.0000000 magnetization      12.5000000
 keeping initial charge density in first step


--------------------------------------------------------------------------------------------------------


 Maximum index for non-local projection operator         8303
 Maximum index for augmentation-charges         1728 (set IRDMAX)


--------------------------------------------------------------------------------------------------------


 First call to EWALD:  gamma=   0.177
 Maximum number of real-space cells 4x 2x 3
 Maximum number of reciprocal cells 2x 4x 2

    FEWALD:  cpu time    0.0055: real time    0.0056


--------------------------------------- Iteration      1(   1)  ---------------------------------------


    POTLOK:  cpu time    0.3113: real time    0.3144
    SETDIJ:  cpu time    0.0433: real time    0.0435
     EDDAV:  cpu time    5.9294: real time    5.9604
    --------------------------------------------
      LOOP:  cpu time    6.2846: real time    6.3188

 eigenvalue-minimisations  :  1728
 total energy-change (2. order) : 0.1097983E+05  (-0.3796297E+05)
 number of electron     697.0000000 magnetization      12.5000000
 augmentation part      697.0000000 magnetization      12.5000000

 Free energy of the ion-electron system (eV)
  ---------------------------------------------------
  alpha Z        PSCENC =      4350.34952947
  Ewald energy   TEWEN  =    -45857.75590099
  -Hartree energ DENC   =    -11683.90853097
  -exchange      EXHF   =         0.00000000
  -V(xc)+E(xc)   XCENC  =      2576.18791160
  PAW double counting   =     43705.32444516   -44171.67351699
  entropy T*S    EENTRO =        -0.01408460
  eigenvalues    EBANDS =      4940.21565022
  atomic energy  EATOM  =     57121.10803460
  Solvation  Ediel_sol  =         0.00000000
  ---------------------------------------------------
  free energy    TOTEN  =     10979.83353750 eV

  energy without entropy =    10979.84762210  energy(sigma->0) =    10979.84057980


--------------------------------------------------------------------------------------------------------




--------------------------------------- Iteration      1(   2)  ---------------------------------------


     EDDAV:  cpu time    6.3945: real time    6.4098
    --------------------------------------------
      LOOP:  cpu time    6.3944: real time    6.4097

 eigenvalue-minimisations  :  1904
 total energy-change (2. order) :-0.1012952E+05  (-0.9507406E+04)
 number of electron     697.0000000 magnetization      12.5000000
 augmentation part      697.0000000 magnetization      12.5000000

 Free energy of the ion-electron system (eV)
  ---------------------------------------------------
  alpha Z        PSCENC =      4350.34952947
  Ewald energy   TEWEN  =    -45857.75590099
  -Hartree energ DENC   =    -11683.90853097
  -exchange      EXHF   =         0.00000000
  -V(xc)+E(xc)   XCENC  =      2576.18791160
  PAW double counting   =     43705.32444516   -44171.67351699
  entropy T*S    EENTRO =        -0.02799638
  eigenvalues    EBANDS =     -5189.29381823
  atomic energy  EATOM  =     57121.10803460
  Solvation  Ediel_sol  =         0.00000000
  ---------------------------------------------------
  free energy    TOTEN  =       850.31015727 eV

  energy without entropy =      850.33815365  energy(sigma->0) =      850.32415546


--------------------------------------------------------------------------------------------------------




--------------------------------------- Iteration      1(   3)  ---------------------------------------


     EDDAV:  cpu time    6.1193: real time    6.1338
    --------------------------------------------
      LOOP:  cpu time    6.1193: real time    6.1338

 eigenvalue-minimisations  :  1968
 total energy-change (2. order) :-0.1665804E+04  (-0.1568424E+04)
 number of electron     697.0000000 magnetization      12.5000000
 augmentation part      697.0000000 magnetization      12.5000000

 Free energy of the ion-electron system (eV)
  ---------------------------------------------------
  alpha Z        PSCENC =      4350.34952947
  Ewald energy   TEWEN  =    -45857.75590099
  -Hartree energ DENC   =    -11683.90853097
  -exchange      EXHF   =         0.00000000
  -V(xc)+E(xc)   XCENC  =      2576.18791160
  PAW double counting   =     43705.32444516   -44171.67351699
  entropy T*S    EENTRO =        -0.02970928
  eigenvalues    EBANDS =     -6855.09565803
  atomic energy  EATOM  =     57121.10803460
  Solvation  Ediel_sol  =         0.00000000
  ---------------------------------------------------
  free energy    TOTEN  =      -815.49339542 eV

  energy without entropy =     -815.46368615  energy(sigma->0) =     -815.47854079


--------------------------------------------------------------------------------------------------------




--------------------------------------- Iteration      1(   4)  ---------------------------------------


     EDDAV:  cpu time    7.0722: real time    7.0891
    --------------------------------------------
      LOOP:  cpu time    7.0723: real time    7.0891

 eigenvalue-minimisations  :  2272
 total energy-change (2. order) :-0.1650035E+03  (-0.1614631E+03)
 number of electron     697.0000000 magnetization      12.5000000
 augmentation part      697.0000000 magnetization      12.5000000

 Free energy of the ion-electron system (eV)
  ---------------------------------------------------
  alpha Z        PSCENC =      4350.34952947
  Ewald energy   TEWEN  =    -45857.75590099
  -Hartree energ DENC   =    -11683.90853097
  -exchange      EXHF   =         0.00000000
  -V(xc)+E(xc)   XCENC  =      2576.18791160
  PAW double counting   =     43705.32444516   -44171.67351699
  entropy T*S    EENTRO =        -0.06902547
  eigenvalues    EBANDS =     -7020.05983365
  atomic energy  EATOM  =     57121.10803460
  Solvation  Ediel_sol  =         0.00000000
  ---------------------------------------------------
  free energy    TOTEN  =      -980.49688724 eV

  energy without entropy =     -980.42786177  energy(sigma->0) =     -980.46237451


--------------------------------------------------------------------------------------------------------




--------------------------------------- Iteration      1(   5)  ---------------------------------------


     EDDAV:  cpu time    9.7069: real time    9.7299
    CHARGE:  cpu time    0.4254: real time    0.4265
    MIXING:  cpu time    0.0060: real time    0.0060
    --------------------------------------------
      LOOP:  cpu time   10.1379: real time   10.1620

 eigenvalue-minimisations  :  3200
 total energy-change (2. order) :-0.1690257E+02  (-0.1678624E+02)
 number of electron     697.0000066 magnetization      13.3375787
 augmentation part      164.6921781 magnetization       9.0187360

 Broyden mixing:
  rms(total) = 0.13609E+02    rms(broyden)= 0.13608E+02
  rms(prec ) = 0.14382E+02
  weight for this iteration     100.00

 Free energy of the ion-electron system (eV)
  ---------------------------------------------------
  alpha Z        PSCENC =      4350.34952947
  Ewald energy   TEWEN  =    -45857.75590099
  -Hartree energ DENC   =    -11683.90853097
  -exchange      EXHF   =         0.00000000
  -V(xc)+E(xc)   XCENC  =      2576.18791160
  PAW double counting   =     43705.32444516   -44171.67351699
  entropy T*S    EENTRO =        -0.08137920
  eigenvalues    EBANDS =     -7036.95005477
  atomic energy  EATOM  =     57121.10803460
  Solvation  Ediel_sol  =         0.00000000
  ---------------------------------------------------
  free energy    TOTEN  =      -997.39946210 eV

  energy without entropy =     -997.31808289  energy(sigma->0) =     -997.35877250


--------------------------------------------------------------------------------------------------------




--------------------------------------- Iteration      1(   6)  ---------------------------------------


    POTLOK:  cpu time    0.2890: real time    0.2897
    SETDIJ:  cpu time    0.0439: real time    0.0440
     EDDAV:  cpu time    7.9291: real time    7.9478
    CHARGE:  cpu time    0.4309: real time    0.4319
    MIXING:  cpu time    0.0065: real time    0.0066
    --------------------------------------------
      LOOP:  cpu time    8.6994: real time    8.7201

 eigenvalue-minimisations  :  2480
 total energy-change (2. order) : 0.1721802E+02  (-0.1025918E+03)
 number of electron     697.0000076 magnetization      11.9245755
 augmentation part      174.3727519 magnetization      12.9002387

 Broyden mixing:
  rms(total) = 0.15158E+02    rms(broyden)= 0.15158E+02
  rms(prec ) = 0.15700E+02
  weight for this iteration     100.00

 eigenvalues of (default mixing * dielectric matrix)
  average eigenvalue GAMMA=   0.3596
  0.3596

 Free energy of the ion-electron system (eV)
  ---------------------------------------------------
  alpha Z        PSCENC =      4350.34952947
  Ewald energy   TEWEN  =    -45857.75590099
  -Hartree energ DENC   =    -11788.75877883
  -exchange      EXHF   =         0.00000000
  -V(xc)+E(xc)   XCENC  =      2615.47806341
  PAW double counting   =     58259.76318618   -58697.23658197
  entropy T*S    EENTRO =        -0.02941473
  eigenvalues    EBANDS =     -6983.09957801
  atomic energy  EATOM  =     57121.10803460
  Solvation  Ediel_sol  =         0.00000000
  ---------------------------------------------------
  free energy    TOTEN  =      -980.18144086 eV

  energy without entropy =     -980.15202613  energy(sigma->0) =     -980.16673350


--------------------------------------------------------------------------------------------------------




--------------------------------------- Iteration      1(   7)  ---------------------------------------


    POTLOK:  cpu time    0.2916: real time    0.2923
    SETDIJ:  cpu time    0.0438: real time    0.0439
     EDDAV:  cpu time    7.8972: real time    7.9159
    CHARGE:  cpu time    0.4161: real time    0.4170
    MIXING:  cpu time    0.0067: real time    0.0067
    --------------------------------------------
      LOOP:  cpu time    8.6554: real time    8.6759

 eigenvalue-minimisations  :  2496
 total energy-change (2. order) : 0.9209900E+02  (-0.3126002E+02)
 number of electron     697.0000073 magnetization       9.8404412
 augmentation part      170.6007463 magnetization       8.2803174

 Broyden mixing:
  rms(total) = 0.64099E+01    rms(broyden)= 0.64098E+01
  rms(prec ) = 0.68390E+01
  weight for this iteration     100.00

 eigenvalues of (default mixing * dielectric matrix)
  average eigenvalue GAMMA=   0.7584
  0.8287  0.6882

 Free energy of the ion-electron system (eV)
  ---------------------------------------------------
  alpha Z        PSCENC =      4350.34952947
  Ewald energy   TEWEN  =    -45857.75590099
  -Hartree energ DENC   =    -11869.06525856
  -exchange      EXHF   =         0.00000000
  -V(xc)+E(xc)   XCENC  =      2608.47302337
  PAW double counting   =     63391.25417222   -63908.72085814
  entropy T*S    EENTRO =        -0.04706236
  eigenvalues    EBANDS =     -6723.67811964
  atomic energy  EATOM  =     57121.10803460
  Solvation  Ediel_sol  =         0.00000000
  ---------------------------------------------------
  free energy    TOTEN  =      -888.08244002 eV

  energy without entropy =     -888.03537766  energy(sigma->0) =     -888.05890884


--------------------------------------------------------------------------------------------------------




--------------------------------------- Iteration      1(   8)  ---------------------------------------


    POTLOK:  cpu time    0.2906: real time    0.2913
    SETDIJ:  cpu time    0.0446: real time    0.0447
     EDDAV:  cpu time    7.6797: real time    7.6979
    CHARGE:  cpu time    0.4155: real time    0.4165
    MIXING:  cpu time    0.0070: real time    0.0070
    --------------------------------------------
      LOOP:  cpu time    8.4374: real time    8.4574

 eigenvalue-minimisations  :  2416
 total energy-change (2. order) :-0.1678223E+03  (-0.4437940E+02)
 number of electron     697.0000042 magnetization       8.8103669
 augmentation part      142.8678627 magnetization       7.6986850

 Broyden mixing:
  rms(total) = 0.15099E+02    rms(broyden)= 0.15098E+02
  rms(prec ) = 0.18798E+02
  weight for this iteration     100.00

 eigenvalues of (default mixing * dielectric matrix)
  average eigenvalue GAMMA=   0.6350
  1.1958  0.5019  0.2074

 Free energy of the ion-electron system (eV)
  ---------------------------------------------------
  alpha Z        PSCENC =      4350.34952947
  Ewald energy   TEWEN  =    -45857.75590099
  -Hartree energ DENC   =    -11884.56943620
  -exchange      EXHF   =         0.00000000
  -V(xc)+E(xc)   XCENC  =      2601.18749454
  PAW double counting   =     72049.33639380   -72638.02563838
  entropy T*S    EENTRO =        -0.04200738
  eigenvalues    EBANDS =     -6797.49321385
  atomic energy  EATOM  =     57121.10803460
  Solvation  Ediel_sol  =         0.00000000
  ---------------------------------------------------
  free energy    TOTEN  =     -1055.90474439 eV

  energy without entropy =    -1055.86273700  energy(sigma->0) =    -1055.88374070


--------------------------------------------------------------------------------------------------------




--------------------------------------- Iteration      1(   9)  ---------------------------------------


    POTLOK:  cpu time    0.2904: real time    0.2911
    SETDIJ:  cpu time    0.0455: real time    0.0456
     EDDAV:  cpu time    7.5502: real time    7.5682
    CHARGE:  cpu time    0.4393: real time    0.4404
    MIXING:  cpu time    0.0070: real time    0.0070
    --------------------------------------------
      LOOP:  cpu time    8.3324: real time    8.3522

 eigenvalue-minimisations  :  2368
 total energy-change (2. order) : 0.1786402E+03  (-0.6323234E+01)
 number of electron     697.0000073 magnetization       5.9276524
 augmentation part      168.6648057 magnetization       7.2967662

 Broyden mixing:
  rms(total) = 0.32254E+01    rms(broyden)= 0.32240E+01
  rms(prec ) = 0.36291E+01
  weight for this iteration     100.00

 eigenvalues of (default mixing * dielectric matrix)
  average eigenvalue GAMMA=   0.7400
  1.6079  0.6713  0.4891  0.1918

 Free energy of the ion-electron system (eV)
  ---------------------------------------------------
  alpha Z        PSCENC =      4350.34952947
  Ewald energy   TEWEN  =    -45857.75590099
  -Hartree energ DENC   =    -11702.00255986
  -exchange      EXHF   =         0.00000000
  -V(xc)+E(xc)   XCENC  =      2593.20262165
  PAW double counting   =     75708.10443046   -76261.41316809
  entropy T*S    EENTRO =        -0.03461638
  eigenvalues    EBANDS =     -6828.82287523
  atomic energy  EATOM  =     57121.10803460
  Solvation  Ediel_sol  =         0.00000000
  ---------------------------------------------------
  free energy    TOTEN  =      -877.26450436 eV

  energy without entropy =     -877.22988798  energy(sigma->0) =     -877.24719617


--------------------------------------------------------------------------------------------------------




--------------------------------------- Iteration      1(  10)  ---------------------------------------


    POTLOK:  cpu time    0.2888: real time    0.2895
    SETDIJ:  cpu time    0.0455: real time    0.0456
     EDDAV:  cpu time    7.7990: real time    7.8175
    CHARGE:  cpu time    0.4238: real time    0.4248
    MIXING:  cpu time    0.0078: real time    0.0078
    --------------------------------------------
      LOOP:  cpu time    8.5649: real time    8.5852

 eigenvalue-minimisations  :  2464
 total energy-change (2. order) :-0.4936232E+02  (-0.2575790E+02)
 number of electron     697.0000051 magnetization       4.3930680
 augmentation part      161.1908668 magnetization       2.1579166

 Broyden mixing:
  rms(total) = 0.97308E+01    rms(broyden)= 0.97305E+01
  rms(prec ) = 0.12202E+02
  weight for this iteration     100.00

 eigenvalues of (default mixing * dielectric matrix)
  average eigenvalue GAMMA=   0.7232
  2.0601  0.5892  0.5892  0.2279  0.1496

 Free energy of the ion-electron system (eV)
  ---------------------------------------------------
  alpha Z        PSCENC =      4350.34952947
  Ewald energy   TEWEN  =    -45857.75590099
  -Hartree energ DENC   =    -11712.49271918
  -exchange      EXHF   =         0.00000000
  -V(xc)+E(xc)   XCENC  =      2596.10948305
  PAW double counting   =     80839.22258631   -81402.75740847
  entropy T*S    EENTRO =        -0.04404074
  eigenvalues    EBANDS =     -6860.36638873
  atomic energy  EATOM  =     57121.10803460
  Solvation  Ediel_sol  =         0.00000000
  ---------------------------------------------------
  free energy    TOTEN  =      -926.62682467 eV

  energy without entropy =     -926.58278393  energy(sigma->0) =     -926.60480430


--------------------------------------------------------------------------------------------------------




--------------------------------------- Iteration      1(  11)  ---------------------------------------


    POTLOK:  cpu time    0.2970: real time    0.2978
    SETDIJ:  cpu time    0.0452: real time    0.0453
     EDDAV:  cpu time    7.3313: real time    7.3487
    CHARGE:  cpu time    0.4265: real time    0.4275
    MIXING:  cpu time    0.0074: real time    0.0074
    --------------------------------------------
      LOOP:  cpu time    8.1074: real time    8.1267

 eigenvalue-minimisations  :  2288
 total energy-change (2. order) : 0.4688136E+02  (-0.3847689E+01)
 number of electron     697.0000073 magnetization       2.9433706
 augmentation part      168.3589527 magnetization       3.5843202

 Broyden mixing:
  rms(total) = 0.23300E+01    rms(broyden)= 0.23287E+01
  rms(prec ) = 0.27760E+01
  weight for this iteration     100.00

 eigenvalues of (default mixing * dielectric matrix)
  average eigenvalue GAMMA=   0.7233
  2.1716  0.6991  0.6991  0.4415  0.2136  0.1151

 Free energy of the ion-electron system (eV)
  ---------------------------------------------------
  alpha Z        PSCENC =      4350.34952947
  Ewald energy   TEWEN  =    -45857.75590099
  -Hartree energ DENC   =    -11705.52544155
  -exchange      EXHF   =         0.00000000
  -V(xc)+E(xc)   XCENC  =      2596.93251088
  PAW double counting   =     83977.34925864   -84544.47888771
  entropy T*S    EENTRO =        -0.03310467
  eigenvalues    EBANDS =     -6817.69146829
  atomic energy  EATOM  =     57121.10803460
  Solvation  Ediel_sol  =         0.00000000
  ---------------------------------------------------
  free energy    TOTEN  =      -879.74546961 eV

  energy without entropy =     -879.71236494  energy(sigma->0) =     -879.72891727


--------------------------------------------------------------------------------------------------------




--------------------------------------- Iteration      1(  12)  ---------------------------------------


    POTLOK:  cpu time    0.2933: real time    0.2940
    SETDIJ:  cpu time    0.0453: real time    0.0454
     EDDAV:  cpu time    7.7716: real time    7.7900
    CHARGE:  cpu time    0.4275: real time    0.4285
    MIXING:  cpu time    0.0082: real time    0.0082
    --------------------------------------------
      LOOP:  cpu time    8.5459: real time    8.5661

 eigenvalue-minimisations  :  2448
 total energy-change (2. order) : 0.1849756E+01  (-0.1383134E+01)
 number of electron     697.0000073 magnetization       2.1483628
 augmentation part      168.6390615 magnetization       3.1766029

 Broyden mixing:
  rms(total) = 0.18706E+01    rms(broyden)= 0.18706E+01
  rms(prec ) = 0.23907E+01
  weight for this iteration     100.00

 eigenvalues of (default mixing * dielectric matrix)
  average eigenvalue GAMMA=   0.6898
  2.2076  0.7317  0.7317  0.4151  0.4151  0.2085  0.1189

 Free energy of the ion-electron system (eV)
  ---------------------------------------------------
  alpha Z        PSCENC =      4350.34952947
  Ewald energy   TEWEN  =    -45857.75590099
  -Hartree energ DENC   =    -11705.94574847
  -exchange      EXHF   =         0.00000000
  -V(xc)+E(xc)   XCENC  =      2596.56050290
  PAW double counting   =     85048.27433386   -85616.08797609
  entropy T*S    EENTRO =        -0.00949648
  eigenvalues    EBANDS =     -6814.38899223
  atomic energy  EATOM  =     57121.10803460
  Solvation  Ediel_sol  =         0.00000000
  ---------------------------------------------------
  free energy    TOTEN  =      -877.89571341 eV

  energy without entropy =     -877.88621694  energy(sigma->0) =     -877.89096517


--------------------------------------------------------------------------------------------------------




--------------------------------------- Iteration      1(  13)  ---------------------------------------


    POTLOK:  cpu time    0.2968: real time    0.2975
    SETDIJ:  cpu time    0.0457: real time    0.0458
     EDDAV:  cpu time    7.6025: real time    7.6205
    CHARGE:  cpu time    0.4112: real time    0.4122
    MIXING:  cpu time    0.0080: real time    0.0080
    --------------------------------------------
      LOOP:  cpu time    8.3642: real time    8.3840

 eigenvalue-minimisations  :  2384
 total energy-change (2. order) : 0.6926387E+00  (-0.7102444E+00)
 number of electron     697.0000071 magnetization       1.9562650
 augmentation part      169.0765178 magnetization       2.4453571

 Broyden mixing:
  rms(total) = 0.22173E+01    rms(broyden)= 0.22169E+01
  rms(prec ) = 0.26268E+01
  weight for this iteration     100.00

 eigenvalues of (default mixing * dielectric matrix)
  average eigenvalue GAMMA=   0.6292
  2.2072  0.7220  0.7220  0.4753  0.4753  0.2057  0.1193  0.1068

 Free energy of the ion-electron system (eV)
  ---------------------------------------------------
  alpha Z        PSCENC =      4350.34952947
  Ewald energy   TEWEN  =    -45857.75590099
  -Hartree energ DENC   =    -11710.01011336
  -exchange      EXHF   =         0.00000000
  -V(xc)+E(xc)   XCENC  =      2596.24385288
  PAW double counting   =     85232.29843565   -85799.87953499
  entropy T*S    EENTRO =        -0.04725296
  eigenvalues    EBANDS =     -6809.51012505
  atomic energy  EATOM  =     57121.10803460
  Solvation  Ediel_sol  =         0.00000000
  ---------------------------------------------------
  free energy    TOTEN  =      -877.20307475 eV

  energy without entropy =     -877.15582179  energy(sigma->0) =     -877.17944827


--------------------------------------------------------------------------------------------------------




--------------------------------------- Iteration      1(  14)  ---------------------------------------


    POTLOK:  cpu time    0.2871: real time    0.2877
    SETDIJ:  cpu time    0.0440: real time    0.0441
     EDDAV:  cpu time    8.0514: real time    8.0705
    CHARGE:  cpu time    0.4376: real time    0.4386
    MIXING:  cpu time    0.0088: real time    0.0088
    --------------------------------------------
      LOOP:  cpu time    8.8288: real time    8.8498

 eigenvalue-minimisations  :  2560
 total energy-change (2. order) : 0.8179443E+00  (-0.1846163E+00)
 number of electron     697.0000072 magnetization       1.8051664
 augmentation part      168.8931913 magnetization       2.4183975

 Broyden mixing:
  rms(total) = 0.17186E+01    rms(broyden)= 0.17185E+01
  rms(prec ) = 0.20793E+01
  weight for this iteration     100.00

 eigenvalues of (default mixing * dielectric matrix)
  average eigenvalue GAMMA=   0.5858
  2.2074  0.6442  0.6442  0.4868  0.4868  0.2454  0.2454  0.1186  0.1931

 Free energy of the ion-electron system (eV)
  ---------------------------------------------------
  alpha Z        PSCENC =      4350.34952947
  Ewald energy   TEWEN  =    -45857.75590099
  -Hartree energ DENC   =    -11711.99882266
  -exchange      EXHF   =         0.00000000
  -V(xc)+E(xc)   XCENC  =      2596.10179909
  PAW double counting   =     85241.07922761   -85808.77475183
  entropy T*S    EENTRO =        -0.06105191
  eigenvalues    EBANDS =     -6806.43319381
  atomic energy  EATOM  =     57121.10803460
  Solvation  Ediel_sol  =         0.00000000
  ---------------------------------------------------
  free energy    TOTEN  =      -876.38513043 eV

  energy without entropy =     -876.32407852  energy(sigma->0) =     -876.35460447


--------------------------------------------------------------------------------------------------------




--------------------------------------- Iteration      1(  15)  ---------------------------------------


    POTLOK:  cpu time    0.2862: real time    0.2868
    SETDIJ:  cpu time    0.0446: real time    0.0447
     EDDAV:  cpu time    7.9015: real time    7.9202
    CHARGE:  cpu time    0.4304: real time    0.4314
    MIXING:  cpu time    0.0089: real time    0.0089
    --------------------------------------------
      LOOP:  cpu time    8.6716: real time    8.6921

 eigenvalue-minimisations  :  2496
 total energy-change (2. order) : 0.2873944E+00  (-0.5449149E-01)
 number of electron     697.0000073 magnetization       1.5740085
 augmentation part      168.6737520 magnetization       2.6023617

 Broyden mixing:
  rms(total) = 0.15062E+01    rms(broyden)= 0.15061E+01
  rms(prec ) = 0.18385E+01
  weight for this iteration     100.00

 eigenvalues of (default mixing * dielectric matrix)
  average eigenvalue GAMMA=   0.5977
  2.2328  0.6874  0.6874  0.4876  0.4876  0.4507  0.4507  0.2099  0.1185  0.1650

 Free energy of the ion-electron system (eV)
  ---------------------------------------------------
  alpha Z        PSCENC =      4350.34952947
  Ewald energy   TEWEN  =    -45857.75590099
  -Hartree energ DENC   =    -11714.08600359
  -exchange      EXHF   =         0.00000000
  -V(xc)+E(xc)   XCENC  =      2596.02384372
  PAW double counting   =     85254.32377354   -85821.96295147
  entropy T*S    EENTRO =        -0.04455719
  eigenvalues    EBANDS =     -6804.05350413
  atomic energy  EATOM  =     57121.10803460
  Solvation  Ediel_sol  =         0.00000000
  ---------------------------------------------------
  free energy    TOTEN  =      -876.09773604 eV

  energy without entropy =     -876.05317885  energy(sigma->0) =     -876.07545744


--------------------------------------------------------------------------------------------------------




--------------------------------------- Iteration      1(  16)  ---------------------------------------


    POTLOK:  cpu time    0.2915: real time    0.2922
    SETDIJ:  cpu time    0.0454: real time    0.0455
     EDDAV:  cpu time    7.6692: real time    7.6874
    CHARGE:  cpu time    0.4195: real time    0.4205
    MIXING:  cpu time    0.0103: real time    0.0103
    --------------------------------------------
      LOOP:  cpu time    8.4359: real time    8.4559

 eigenvalue-minimisations  :  2416
 total energy-change (2. order) : 0.5822334E-01  (-0.3377671E-01)
 number of electron     697.0000073 magnetization       1.4913375
 augmentation part      168.3833798 magnetization       2.5745346

 Broyden mixing:
  rms(total) = 0.14125E+01    rms(broyden)= 0.14125E+01
  rms(prec ) = 0.16954E+01
  weight for this iteration     100.00

 eigenvalues of (default mixing * dielectric matrix)
  average eigenvalue GAMMA=   0.5571
  2.2322  0.6846  0.6846  0.5076  0.5076  0.4569  0.4569  0.2105  0.1185  0.1687
  0.1000

 Free energy of the ion-electron system (eV)
  ---------------------------------------------------
  alpha Z        PSCENC =      4350.34952947
  Ewald energy   TEWEN  =    -45857.75590099
  -Hartree energ DENC   =    -11715.41692485
  -exchange      EXHF   =         0.00000000
  -V(xc)+E(xc)   XCENC  =      2596.14924455
  PAW double counting   =     85307.24809829   -85874.66407695
  entropy T*S    EENTRO =        -0.04157839
  eigenvalues    EBANDS =     -6803.01593843
  atomic energy  EATOM  =     57121.10803460
  Solvation  Ediel_sol  =         0.00000000
  ---------------------------------------------------
  free energy    TOTEN  =      -876.03951270 eV

  energy without entropy =     -875.99793431  energy(sigma->0) =     -876.01872351


--------------------------------------------------------------------------------------------------------




--------------------------------------- Iteration      1(  17)  ---------------------------------------


    POTLOK:  cpu time    0.2850: real time    0.2856
    SETDIJ:  cpu time    0.0453: real time    0.0454
     EDDAV:  cpu time    7.8677: real time    7.8864
    CHARGE:  cpu time    0.4338: real time    0.4348
    MIXING:  cpu time    0.0092: real time    0.0092
    --------------------------------------------
      LOOP:  cpu time    8.6409: real time    8.6615

 eigenvalue-minimisations  :  2496
 total energy-change (2. order) :-0.7637393E-01  (-0.4575466E-02)
 number of electron     697.0000073 magnetization       1.8100937
 augmentation part      168.4127615 magnetization       2.9315938

 Broyden mixing:
  rms(total) = 0.14213E+01    rms(broyden)= 0.14213E+01
  rms(prec ) = 0.17067E+01
  weight for this iteration     100.00

 eigenvalues of (default mixing * dielectric matrix)
  average eigenvalue GAMMA=   0.6273
  2.2413  0.6823  0.7018  0.7018  0.7230  0.7230  0.4674  0.4674  0.3104  0.1185
  0.2130  0.1783

 Free energy of the ion-electron system (eV)
  ---------------------------------------------------
  alpha Z        PSCENC =      4350.34952947
  Ewald energy   TEWEN  =    -45857.75590099
  -Hartree energ DENC   =    -11715.25560717
  -exchange      EXHF   =         0.00000000
  -V(xc)+E(xc)   XCENC  =      2596.20522650
  PAW double counting   =     85325.20650624   -85892.41677802
  entropy T*S    EENTRO =        -0.03586155
  eigenvalues    EBANDS =     -6803.52103572
  atomic energy  EATOM  =     57121.10803460
  Solvation  Ediel_sol  =         0.00000000
  ---------------------------------------------------
  free energy    TOTEN  =      -876.11588663 eV

  energy without entropy =     -876.08002508  energy(sigma->0) =     -876.09795585


--------------------------------------------------------------------------------------------------------




--------------------------------------- Iteration      1(  18)  ---------------------------------------


    POTLOK:  cpu time    0.2916: real time    0.2923
    SETDIJ:  cpu time    0.0466: real time    0.0467
     EDDAV:  cpu time    7.0265: real time    7.0431
    CHARGE:  cpu time    0.4401: real time    0.4411
    MIXING:  cpu time    0.0099: real time    0.0099
    --------------------------------------------
      LOOP:  cpu time    7.8146: real time    7.8331

 eigenvalue-minimisations  :  2368
 total energy-change (2. order) : 0.3485789E+00  (-0.8583473E-01)
 number of electron     697.0000073 magnetization       1.8374457
 augmentation part      168.0504664 magnetization       2.6716297

 Broyden mixing:
  rms(total) = 0.13557E+01    rms(broyden)= 0.13554E+01
  rms(prec ) = 0.15747E+01
  weight for this iteration     100.00

 eigenvalues of (default mixing * dielectric matrix)
  average eigenvalue GAMMA=   0.6181
  2.2444  0.8088  0.7261  0.7261  0.7356  0.7356  0.4616  0.4616  0.3144  0.3144
  0.1185  0.2118  0.1762

 Free energy of the ion-electron system (eV)
  ---------------------------------------------------
  alpha Z        PSCENC =      4350.34952947
  Ewald energy   TEWEN  =    -45857.75590099
  -Hartree energ DENC   =    -11716.44748962
  -exchange      EXHF   =         0.00000000
  -V(xc)+E(xc)   XCENC  =      2595.98665889
  PAW double counting   =     85383.83029617   -85951.48424448
  entropy T*S    EENTRO =        -0.06808660
  eigenvalues    EBANDS =     -6801.28610521
  atomic energy  EATOM  =     57121.10803460
  Solvation  Ediel_sol  =         0.00000000
  ---------------------------------------------------
  free energy    TOTEN  =      -875.76730777 eV

  energy without entropy =     -875.69922117  energy(sigma->0) =     -875.73326447


--------------------------------------------------------------------------------------------------------




--------------------------------------- Iteration      1(  19)  ---------------------------------------


    POTLOK:  cpu time    0.2960: real time    0.2967
    SETDIJ:  cpu time    0.0478: real time    0.0479
     EDDAV:  cpu time    7.1437: real time    7.1607
    CHARGE:  cpu time    0.4262: real time    0.4272
    MIXING:  cpu time    0.0100: real time    0.0100
    --------------------------------------------
      LOOP:  cpu time    7.9237: real time    7.9425

 eigenvalue-minimisations  :  2208
 total energy-change (2. order) :-0.8830220E-01  (-0.5506869E-01)
 number of electron     697.0000072 magnetization       0.8810442
 augmentation part      168.1691666 magnetization       1.4114467

 Broyden mixing:
  rms(total) = 0.12532E+01    rms(broyden)= 0.12531E+01
  rms(prec ) = 0.14985E+01
  weight for this iteration     100.00

 eigenvalues of (default mixing * dielectric matrix)
  average eigenvalue GAMMA=   0.6174
  2.2480  0.7429  0.7758  0.7758  0.8166  0.8166  0.4600  0.4600  0.3812  0.3812
  0.1185  0.2775  0.2126  0.1776

 Free energy of the ion-electron system (eV)
  ---------------------------------------------------
  alpha Z        PSCENC =      4350.34952947
  Ewald energy   TEWEN  =    -45857.75590099
  -Hartree energ DENC   =    -11716.32974420
  -exchange      EXHF   =         0.00000000
  -V(xc)+E(xc)   XCENC  =      2595.98470624
  PAW double counting   =     85393.79829997   -85961.34661456
  entropy T*S    EENTRO =        -0.06371253
  eigenvalues    EBANDS =     -6801.60020797
  atomic energy  EATOM  =     57121.10803460
  Solvation  Ediel_sol  =         0.00000000
  ---------------------------------------------------
  free energy    TOTEN  =      -875.85560996 eV

  energy without entropy =     -875.79189744  energy(sigma->0) =     -875.82375370


--------------------------------------------------------------------------------------------------------




--------------------------------------- Iteration      1(  20)  ---------------------------------------


    POTLOK:  cpu time    0.2933: real time    0.2940
    SETDIJ:  cpu time    0.0458: real time    0.0459
     EDDAV:  cpu time    7.6179: real time    7.6360
    CHARGE:  cpu time    0.4226: real time    0.4236
    MIXING:  cpu time    0.0103: real time    0.0103
    --------------------------------------------
      LOOP:  cpu time    8.3899: real time    8.4098

 eigenvalue-minimisations  :  2384
 total energy-change (2. order) : 0.2263002E-01  (-0.5057144E-01)
 number of electron     697.0000073 magnetization      -0.4988316
 augmentation part      168.1226709 magnetization      -0.1403881

 Broyden mixing:
  rms(total) = 0.13203E+01    rms(broyden)= 0.13202E+01
  rms(prec ) = 0.15534E+01
  weight for this iteration     100.00

 eigenvalues of (default mixing * dielectric matrix)
  average eigenvalue GAMMA=   0.6391
  2.2372  0.9152  0.9152  0.6415  0.8941  0.8941  0.5128  0.5128  0.4791  0.4791
  0.3439  0.1185  0.2117  0.1774  0.2539

 Free energy of the ion-electron system (eV)
  ---------------------------------------------------
  alpha Z        PSCENC =      4350.34952947
  Ewald energy   TEWEN  =    -45857.75590099
  -Hartree energ DENC   =    -11719.67654397
  -exchange      EXHF   =         0.00000000
  -V(xc)+E(xc)   XCENC  =      2596.16963082
  PAW double counting   =     85437.45594814   -86003.35292394
  entropy T*S    EENTRO =        -0.05880006
  eigenvalues    EBANDS =     -6800.07195403
  atomic energy  EATOM  =     57121.10803460
  Solvation  Ediel_sol  =         0.00000000
  ---------------------------------------------------
  free energy    TOTEN  =      -875.83297995 eV

  energy without entropy =     -875.77417989  energy(sigma->0) =     -875.80357992


[...]
      7.30159     10.36299      5.97033         0.000816     -0.003021     -0.000740
      8.66048      0.00140      5.16367         0.003743     -0.002511      0.002106
     10.02732     10.30909      5.90361         0.001567     -0.004103     -0.000626
      2.95335      0.00000      5.11535         0.000406      0.000000      0.000704
      1.45015      0.00000      2.51173        -0.002873     -0.000000     -0.004975
      5.78592     10.33009      3.35819         0.016254     -0.007092     -0.030296
      8.64532      5.19046      6.75292        -0.034364      0.007092     -0.001071
     11.50952      5.19262      6.78406        -0.008801      0.003697      0.002447
      4.38079     10.32792      5.85422         0.006519     -0.003697     -0.006399
      4.32804      7.76369      7.51398        -0.002620     -0.000000     -0.004539
      8.70665     12.97643      1.77286        -0.001887     -0.008630     -0.000215
      1.44240      2.54412      0.92127         0.000758      0.008630     -0.001741
      7.33433      7.69585      7.59992        -0.004204      0.003583     -0.000251
      2.82200     12.97364      1.72427         0.002742     -0.007228     -0.000429
      4.36588      2.71244      0.80733        -0.003979      0.003324      0.002224
     10.08807      7.55550      7.52174        -0.004059      0.000310      0.008775
      5.73449     12.79740      1.81216        -0.001123      0.000359     -0.000041
      7.17640      2.71170      0.82940        -0.002513      0.005977     -0.001159
      7.17494      7.82469      2.64633         0.001885     -0.003583     -0.003766
      7.14624     12.80810      4.24771         0.003916     -0.003324     -0.002334
      8.71227      2.54690      3.36913        -0.001743      0.007228      0.002160
      1.46042      7.76369      2.54710         0.002390      0.000000      0.004140
     10.10367     12.97522      4.19037         0.006190     -0.005271      0.002812
      2.83751      2.54532      3.33987        -0.000660      0.005271      0.006767
      4.37883      7.84217      2.59924        -0.001494     -0.001949      0.002628
      4.43982     12.67527      4.27626         0.017007     -0.019679      0.001158
      5.77249      2.63355      3.37572        -0.000313      0.005439      0.005014
      5.73037      7.96504      4.99205         0.009629     -0.000310      0.000873
      5.76009     12.80885      6.69272         0.000253     -0.005977     -0.002756
      7.33214      2.72314      5.93537         0.000526     -0.000359     -0.000993
      8.69160      7.67838      5.15487         0.003023      0.001949      0.000020
      8.66722     12.88700      6.75006         0.004498     -0.005439      0.002236
     10.11345      2.84527      6.04620        -0.007501      0.019679      0.015307
      2.91962      7.76369      5.07451         0.000904      0.000000      0.001565
     11.62249     12.77160      6.69141         0.005655     -0.012108     -0.004582
      4.24407      2.74895      5.90574        -0.006796      0.012108      0.002607
      8.62992     11.52439      0.08872        -0.002899     -0.011487     -0.000587
      0.02226      3.99615      0.01275         0.000941      0.011487     -0.002805
      8.62862      1.18054      1.69248         0.003469     -0.007468     -0.000021
      8.59574      9.04228      1.73485        -0.000657      0.006999      0.003850
      1.46493      6.47827      0.80621         0.003663     -0.006999      0.001356
      1.41180     14.34001      0.81350        -0.001753      0.007468      0.002994
      2.83609     11.77031      0.03536        -0.001205      0.001612      0.000250
      2.81470      3.90331      0.06275        -0.008086     -0.015919      0.011375
      2.90918      1.15985      1.67453         0.000304     -0.001308     -0.003145
      2.91326      8.90981      1.70433        -0.002931     -0.002304      0.000220
      4.33881      6.35097      0.87199        -0.002881     -0.006898     -0.000726
      4.27624     14.22713      0.89449        -0.000354      0.005887     -0.000844
      5.79752     11.64510      0.06574        -0.000034     -0.004151      0.004673
      5.77439      4.00747      0.12894        -0.003356     -0.000332      0.005441
      5.77295      1.38767      1.66411        -0.000218     -0.008204     -0.000622
      5.75177      9.06270      1.64707        -0.001781     -0.021405     -0.019955
      7.21751      6.38746      0.89574        -0.000345     -0.001137      0.002819
      7.21013     14.22338      0.91422        -0.001268      0.009233     -0.002038
      7.27700     11.61724      2.53205         0.013894      0.015919     -0.001315
      7.24259      3.75024      2.53688         0.000819     -0.001612     -0.000919
      7.26654      1.29342      4.21365        -0.000554     -0.005887     -0.000728
      7.21577      9.16957      4.25659         0.000812      0.006898     -0.002858
      8.64937      6.61074      3.43820         0.001656      0.002304     -0.002428
      8.62561     14.36069      3.41976        -0.002875      0.001308     -0.001309
     10.06899     11.82246      2.56524         0.003502     -0.000963      0.000068
      1.44745      3.69808      2.49728        -0.001692      0.000963      0.003066
     10.12001      1.18691      4.27158        -0.001854     -0.011387     -0.010492
     10.12057      8.92904      4.30573         0.003852      0.001587      0.004073
      2.92897      6.59150      3.41219         0.001602     -0.001587      0.005373
      2.89967     14.33363      3.39463        -0.008159      0.011387     -0.006851
      4.32514     11.54587      2.53204         0.004984     -0.006108     -0.000054
      4.31195      3.74521      2.51974         0.001201     -0.004305      0.004946
      4.32315      1.34231      4.19110        -0.003090      0.005086      0.000136
      4.26551      9.17155      4.19627         0.003658      0.000804     -0.005336
      5.77448      6.66149      3.43447        -0.001235     -0.002759     -0.000511
      5.76571     14.06588      3.42957        -0.000291     -0.002306     -0.002541
      5.85448     11.51307      5.12831         0.006390      0.000332     -0.000186
      5.78818      3.87544      5.11675         0.004064      0.004151      0.002307
      5.81668      1.29717      6.76433        -0.001131     -0.009233     -0.002117
      5.79699      9.13308      6.76149         0.002614      0.001137      0.001110
      7.18053      6.45785      5.86779        -0.016391      0.021405     -0.011520
      7.18470     14.13288      5.89465        -0.000430      0.008204     -0.000500
      8.65620     11.77533      5.05720         0.003683      0.004305      0.003513
      8.66025      3.97468      5.07477        -0.002539      0.006108      0.004289
      8.71725      1.45467      6.77111        -0.002055      0.002306     -0.001523
      8.71711      8.85905      6.78116         0.000175      0.002759     -0.001325
     10.13133      6.34899      5.85525        -0.006450     -0.000804      0.000500
     10.09804     14.17823      5.90258         0.001663     -0.005086     -0.002608
      2.90594     11.54849      5.03105         0.003089     -0.001667     -0.000893
     11.53406      3.97205      5.09521        -0.002318      0.001667      0.002228
     11.54700      1.43968      6.78580         0.000102     -0.000163     -0.000361
     11.55298      9.14796      6.80582         0.004491      0.013294      0.003678
      4.37790      6.37258      5.90274         0.000940     -0.013294      0.005728
      4.36356     14.08086      5.88755        -0.000364      0.000163     -0.000092
 -----------------------------------------------------------------------------------
    total drift:                                0.026589      0.000003      0.046111


--------------------------------------------------------------------------------------------------------



  FREE ENERGIE OF THE ION-ELECTRON SYSTEM (eV)
  ---------------------------------------------------
  free  energy   TOTEN  =      -875.6261651341 eV

  energy  without entropy=     -875.5923797395  energy(sigma->0) =     -875.60927244
 
 d Force = 0.3497249E-03[ 0.275E-03, 0.424E-03]  d Energy = 0.3476225E-03 0.210E-05
 d Force =-0.2537119E+00[-0.255E+00,-0.253E+00]  d Ewald  =-0.7171748E+00 0.463E+00


--------------------------------------------------------------------------------------------------------


    POTLOK:  cpu time    0.3350: real time    0.3358


--------------------------------------------------------------------------------------------------------


 Quasi-Newton relaxation of ions (Broydens 2nd method)
  g(Force)  = 0.582E-03   g(Stress)= 0.342E-05

 retain information from N=  3 steps
 eigenvalues of (default step * inverse Hessian matrix)
  average eigenvalue of G=   0.9430
 eigenvalue spectrum of G is  0.4852  0.2670  2.0768


--------------------------------------------------------------------------------------------------------


     LOOP+:  cpu time   53.5854: real time   54.2872
    4ORBIT:  cpu time    0.0000: real time    0.0000

volume of typ            1:    21.9 %

volume of typ            2:     3.1 %

volume of typ            3:    20.8 %

volume of typ            4:     8.7 %
 
total charge     
 
# of ion       s       p       d       tot
------------------------------------------
    1        0.240   6.100   2.154   8.494
    2        0.228   6.077   2.242   8.547
    3        0.228   6.077   2.242   8.547
    4        0.241   6.101   2.148   8.489
    5        0.228   6.077   2.244   8.549
    6        0.228   6.075   2.258   8.561
    7        0.225   6.063   2.281   8.568
    8        0.242   6.095   2.175   8.513
    9        0.259   6.134   2.016   8.410
   10        0.241   6.101   2.148   8.489
   11        0.228   6.075   2.258   8.561
   12        0.228   6.077   2.244   8.549
   13        0.242   6.096   2.171   8.509
   14        0.242   6.096   2.171   8.509
   15        0.238   6.096   2.161   8.496
   16        0.229   6.078   2.240   8.546
   17        0.225   6.063   2.281   8.568
   18        0.259   6.134   2.016   8.410
   19        0.242   6.095   2.175   8.513
   20        0.238   6.096   2.161   8.496
   21        0.229   6.078   2.240   8.546
   22        0.236   6.090   2.185   8.510
   23        0.213   0.237   7.959   8.409
   24        0.196   0.219   8.022   8.437
   25        0.196   0.219   8.022   8.437
   26        0.208   0.238   7.946   8.392
   27        0.208   0.238   7.946   8.392
   28        2.070   0.230   0.089   2.389
   29        2.080   0.269   0.108   2.457
   30        2.080   0.269   0.108   2.457
   31        2.083   0.275   0.113   2.471
   32        2.081   0.267   0.109   2.457
   33        2.087   0.287   0.118   2.493
   34        2.078   0.258   0.102   2.438
   35        2.080   0.262   0.106   2.448
   36        2.087   0.287   0.117   2.492
   37        2.083   0.275   0.113   2.471
   38        2.087   0.287   0.118   2.493
   39        2.081   0.267   0.109   2.457
   40        2.084   0.281   0.119   2.484
   41        2.081   0.268   0.109   2.458
   42        2.081   0.268   0.109   2.458
   43        2.087   0.289   0.120   2.496
   44        2.081   0.265   0.105   2.451
   45        2.082   0.274   0.114   2.470
   46        2.078   0.258   0.102   2.438
   47        2.087   0.287   0.117   2.492
   48        2.080   0.262   0.106   2.448
   49        2.087   0.289   0.120   2.496
   50        2.082   0.274   0.114   2.470
   51        2.081   0.265   0.105   2.451
   52        2.078   0.262   0.104   2.444
   53        2.079   0.259   0.105   2.443
   54        2.079   0.259   0.105   2.443
   55        1.244   2.845   0.005   4.094
   56        1.244   2.845   0.005   4.094
   57        1.245   2.839   0.005   4.089
   58        1.245   2.843   0.006   4.094
   59        1.245   2.843   0.006   4.094
   60        1.245   2.839   0.005   4.089
   61        1.243   2.849   0.006   4.098
   62        1.245   2.842   0.005   4.093
   63        1.244   2.841   0.005   4.091
   64        1.244   2.848   0.006   4.098
   65        1.243   2.843   0.006   4.092
   66        1.246   2.843   0.006   4.095
   67        1.243   2.845   0.006   4.094
   68        1.242   2.842   0.005   4.089
   69        1.246   2.839   0.006   4.092
   70        1.249   2.838   0.006   4.092
   71        1.244   2.835   0.005   4.084
   72        1.247   2.838   0.006   4.092
   73        1.245   2.842   0.005   4.093
   74        1.243   2.849   0.006   4.098
   75        1.246   2.843   0.006   4.095
   76        1.243   2.843   0.006   4.092
   77        1.244   2.848   0.006   4.098
   78        1.244   2.841   0.005   4.091
   79        1.240   2.853   0.006   4.099
   80        1.240   2.853   0.006   4.099
   81        1.245   2.836   0.005   4.087
   82        1.245   2.847   0.007   4.098
   83        1.245   2.847   0.007   4.098
   84        1.245   2.836   0.005   4.087
   85        1.242   2.842   0.005   4.090
   86        1.243   2.848   0.006   4.098
   87        1.246   2.840   0.006   4.092
   88        1.244   2.834   0.005   4.082
   89        1.242   2.848   0.006   4.095
   90        1.244   2.837   0.006   4.088
   91        1.242   2.842   0.005   4.089
   92        1.243   2.845   0.006   4.094
   93        1.247   2.838   0.006   4.092
   94        1.244   2.835   0.005   4.084
   95        1.249   2.838   0.006   4.092
   96        1.246   2.839   0.006   4.092
   97        1.243   2.848   0.006   4.098
   98        1.242   2.842   0.005   4.090
   99        1.244   2.837   0.006   4.088
  100        1.242   2.848   0.006   4.095
  101        1.244   2.834   0.005   4.082
  102        1.246   2.840   0.006   4.092
  103        1.242   2.844   0.005   4.091
  104        1.242   2.844   0.005   4.091
  105        1.245   2.838   0.006   4.089
  106        1.245   2.841   0.005   4.091
  107        1.245   2.841   0.005   4.091
  108        1.245   2.838   0.006   4.089
--------------------------------------------------
tot         129.61  295.89   91.38  516.88
 
magnetization (x)
 
# of ion       s       p       d       tot
------------------------------------------
    1        0.000   0.000   0.003   0.004
    2        0.000   0.000   0.018   0.019
    3        0.000   0.000   0.018   0.019
    4        0.000   0.000   0.011   0.011
    5       -0.000  -0.000  -0.021  -0.021
    6       -0.000  -0.000  -0.023  -0.023
    7       -0.000  -0.000  -0.024  -0.025
    8        0.000   0.000   0.002   0.003
    9        0.000   0.000   0.008   0.009
   10        0.000   0.000   0.011   0.011
   11       -0.000  -0.000  -0.023  -0.023
   12       -0.000  -0.000  -0.021  -0.021
   13        0.000   0.000   0.001   0.002
   14        0.000   0.000   0.001   0.002
   15        0.000   0.000   0.005   0.005
   16        0.000   0.000   0.017   0.018
   17       -0.000  -0.000  -0.024  -0.025
   18        0.000   0.000   0.008   0.009
   19        0.000   0.000   0.002   0.003
   20        0.000   0.000   0.005   0.005
   21        0.000   0.000   0.017   0.018
   22        0.000   0.000   0.006   0.006
   23       -0.002  -0.001  -1.411  -1.414
   24       -0.001   0.000  -0.419  -0.419
   25       -0.001   0.000  -0.419  -0.419
   26       -0.002  -0.002  -1.449  -1.452
   27       -0.002  -0.002  -1.449  -1.452
   28        0.000   0.000   0.000   0.001
   29       -0.000  -0.001  -0.000  -0.002
   30       -0.000  -0.001  -0.000  -0.002
   31       -0.001  -0.001  -0.000  -0.002
   32       -0.001  -0.001  -0.000  -0.003
   33       -0.002  -0.004  -0.001  -0.007
   34       -0.000  -0.000  -0.000  -0.000
   35        0.000   0.000   0.000   0.000
   36       -0.000  -0.001  -0.000  -0.001
   37       -0.001  -0.001  -0.000  -0.002
   38       -0.002  -0.004  -0.001  -0.007
   39       -0.001  -0.001  -0.000  -0.003
   40        0.000   0.000   0.000   0.000
   41       -0.001  -0.002  -0.000  -0.003
   42       -0.001  -0.002  -0.000  -0.003
   43       -0.002  -0.004  -0.001  -0.007
   44       -0.000  -0.000  -0.000  -0.000
   45        0.000   0.000   0.000   0.000
   46       -0.000  -0.000  -0.000  -0.000
   47       -0.000  -0.001  -0.000  -0.001
   48        0.000   0.000   0.000   0.000
   49       -0.002  -0.004  -0.001  -0.007
   50        0.000   0.000   0.000   0.000
   51       -0.000  -0.000  -0.000  -0.000
   52        0.001  -0.000   0.000   0.001
   53        0.000   0.000   0.000   0.001
   54        0.000   0.000   0.000   0.001
   55       -0.004  -0.043  -0.000  -0.048
   56       -0.004  -0.043  -0.000  -0.048
   57       -0.004  -0.045  -0.000  -0.050
   58       -0.000   0.001  -0.000   0.001
   59       -0.000   0.001  -0.000   0.001
   60       -0.004  -0.045  -0.000  -0.050
   61       -0.000  -0.001  -0.000  -0.001
   62        0.000   0.009   0.000   0.010
   63       -0.004  -0.051  -0.000  -0.055
   64       -0.000  -0.001   0.000  -0.001
   65       -0.004  -0.054  -0.000  -0.059
   66       -0.000  -0.000  -0.000  -0.000
   67        0.000   0.001   0.000   0.001
   68       -0.004  -0.048  -0.000  -0.052
   69       -0.000  -0.000  -0.000  -0.000
   70        0.001   0.013   0.000   0.014
   71       -0.005  -0.061  -0.000  -0.066
   72       -0.000   0.000  -0.000  -0.000
   73        0.000   0.009   0.000   0.010
   74       -0.000  -0.001  -0.000  -0.001
   75       -0.000  -0.000  -0.000  -0.000
   76       -0.004  -0.054  -0.000  -0.059
   77       -0.000  -0.001   0.000  -0.001
   78       -0.004  -0.051  -0.000  -0.055
   79        0.000  -0.000  -0.000  -0.000
   80        0.000  -0.000  -0.000  -0.000
   81       -0.004  -0.048  -0.000  -0.052
   82       -0.000  -0.002  -0.000  -0.003
   83       -0.000  -0.002  -0.000  -0.003
   84       -0.004  -0.048  -0.000  -0.052
   85       -0.004  -0.055  -0.000  -0.060
   86       -0.000  -0.001   0.000  -0.001
   87       -0.000  -0.000  -0.000  -0.000
   88       -0.005  -0.056  -0.000  -0.060
   89        0.000  -0.000  -0.000  -0.000
   90       -0.000  -0.000  -0.000  -0.000
   91       -0.004  -0.048  -0.000  -0.052
   92        0.000   0.001   0.000   0.001
   93       -0.000   0.000  -0.000  -0.000
   94       -0.005  -0.061  -0.000  -0.066
   95        0.001   0.013   0.000   0.014
   96       -0.000  -0.000  -0.000  -0.000
   97       -0.000  -0.001   0.000  -0.001
   98       -0.004  -0.055  -0.000  -0.060
   99       -0.000  -0.000  -0.000  -0.000
  100        0.000  -0.000  -0.000  -0.000
  101       -0.005  -0.056  -0.000  -0.060
  102       -0.000  -0.000  -0.000  -0.000
  103       -0.005  -0.059  -0.000  -0.064
  104       -0.005  -0.059  -0.000  -0.064
  105        0.000   0.000  -0.000   0.000
  106       -0.004  -0.042  -0.000  -0.047
  107       -0.004  -0.042  -0.000  -0.047
  108        0.000   0.000  -0.000   0.000
--------------------------------------------------
tot          -0.11   -1.12   -5.16   -6.39
 

 total amount of memory used by VASP MPI-rank0   163999. kBytes
=======================================================================

   base      :      30000. kBytes
   nonlr-proj:      46941. kBytes
   fftplans  :      10383. kBytes
   grid      :      63467. kBytes
   one-center:       1679. kBytes
   wavefun   :      11529. kBytes
 
  
  
 General timing and accounting informations for this job:
 ========================================================
  
                  Total CPU time used (sec):     2645.402
                            User time (sec):     2632.222
                          System time (sec):       13.180
                         Elapsed time (sec):     2680.372
  
                   Maximum memory used (kb):      215404.
                   Average memory used (kb):           0.
  
                          Minor page faults:        67300
                          Major page faults:           55
                 Voluntary context switches:         1450
