 vasp.5.4.4.18Apr17-6-g9f103f2a35 (build May 12 2020 05:39:39) gamma-only       
  
 MD_VERSION_INFO: Compiled 2020-05-12T12:39:39-UTC in devlin.sd.materialsdesign.
 com:/home/medea2/data/build/wwolf/vasp-gpu5.4.4/13047/x86_64/src/src/build/gam 
 from svn 13047
 
 This VASP executable licensed from Materials Design, Inc.
 
 executed on                        Lin64 date 2023.04.01  23:36:57
 running on   16 total cores
 distrk:  each k-point on   16 cores,    1 groups
 distr:  one band on NCORES_PER_BAND=   1 cores,   16 groups


--------------------------------------------------------------------------------------------------------


 INCAR:
 POTCAR:    PAW_PBE Ta_pv 07Sep2000               
 POTCAR:    PAW_PBE Ni 02Aug2007                  
 POTCAR:    PAW_PBE Li_sv 10Sep2004               
 POTCAR:    PAW_PBE O 08Apr2002                   

 ----------------------------------------------------------------------------- 
|                                                                             |
|           W    W    AA    RRRRR   N    N  II  N    N   GGGG   !!!           |
|           W    W   A  A   R    R  NN   N  II  NN   N  G    G  !!!           |
|           W    W  A    A  R    R  N N  N  II  N N  N  G       !!!           |
|           W WW W  AAAAAA  RRRRR   N  N N  II  N  N N  G  GGG   !            |
|           WW  WW  A    A  R   R   N   NN  II  N   NN  G    G                |
|           W    W  A    A  R    R  N    N  II  N    N   GGGG   !!!           |
|                                                                             |
|      For optimal performance we recommend to set                            |
|        NCORE= 4 - approx SQRT( number of cores)                             |
|      NCORE specifies how many cores store one orbital (NPAR=cpu/NCORE).     |
|      This setting can  greatly improve the performance of VASP for DFT.     |
|      The default,   NCORE=1            might be grossly inefficient         |
|      on modern multi-core architectures or massively parallel machines.     |
|      Do your own testing !!!!                                               |
|      Unfortunately you need to use the default for GW and RPA calculations. |
|      (for HF NCORE is supported but not extensively tested yet)             |
|                                                                             |
 ----------------------------------------------------------------------------- 

 POTCAR:    PAW_PBE Ta_pv 07Sep2000               
  local pseudopotential read in
  partial core-charges read in
  partial kinetic energy density read in
  atomic valenz-charges read in
  non local Contribution for L=           1  read in
    real space projection operators read in
  non local Contribution for L=           1  read in
    real space projection operators read in
  non local Contribution for L=           2  read in
    real space projection operators read in
  non local Contribution for L=           2  read in
    real space projection operators read in
  non local Contribution for L=           0  read in
    real space projection operators read in
  non local Contribution for L=           0  read in
    real space projection operators read in
    PAW grid and wavefunctions read in
 
   number of l-projection  operators is LMAX  =           6
   number of lm-projection operators is LMMAX =          18
 
 POTCAR:    PAW_PBE Ni 02Aug2007                  
  local pseudopotential read in
  partial core-charges read in
  partial kinetic energy density read in
  atomic valenz-charges read in
  non local Contribution for L=           2  read in
    real space projection operators read in
  non local Contribution for L=           2  read in
    real space projection operators read in
  non local Contribution for L=           0  read in
    real space projection operators read in
  non local Contribution for L=           0  read in
    real space projection operators read in
  non local Contribution for L=           1  read in
    real space projection operators read in
  non local Contribution for L=           1  read in
    real space projection operators read in
    PAW grid and wavefunctions read in
 
   number of l-projection  operators is LMAX  =           6
   number of lm-projection operators is LMMAX =          18
 
 POTCAR:    PAW_PBE Li_sv 10Sep2004               
  local pseudopotential read in
  atomic valenz-charges read in
  non local Contribution for L=           0  read in
    real space projection operators read in
  non local Contribution for L=           0  read in
    real space projection operators read in
  non local Contribution for L=           1  read in
    real space projection operators read in
    PAW grid and wavefunctions read in
 
   number of l-projection  operators is LMAX  =           3
   number of lm-projection operators is LMMAX =           5
 
 POTCAR:    PAW_PBE O 08Apr2002                   
  local pseudopotential read in
  partial core-charges read in
  partial kinetic energy density read in
  kinetic energy density of atom read in
  atomic valenz-charges read in
  non local Contribution for L=           0  read in
    real space projection operators read in
  non local Contribution for L=           0  read in
    real space projection operators read in
  non local Contribution for L=           1  read in
    real space projection operators read in
  non local Contribution for L=           1  read in
    real space projection operators read in
    PAW grid and wavefunctions read in
 
   number of l-projection  operators is LMAX  =           4
   number of lm-projection operators is LMMAX =           8
 
 Optimization of the real space projectors (new method)

 maximal supplied QI-value         = 15.12
 optimisation between [QCUT,QGAM] = [ 11.34, 22.83] = [ 36.00,145.93] Ry 
 Optimized for a Real-space Cutoff    1.61 Angstroem

   l    n(q)    QCUT    max X(q) W(low)/X(q) W(high)/X(q)  e(spline) 
   1     11    11.338     4.092    0.40E-05    0.64E-05    0.47E-07
   1     11    11.338     4.834    0.13E-04    0.44E-04    0.21E-06
   2     10    11.338    62.294    0.15E-03    0.31E-03    0.77E-06
   2     10    11.338    50.966    0.15E-03    0.31E-03    0.77E-06
   0     11    11.338   103.792    0.33E-04    0.19E-04    0.90E-07
   0     11    11.338    56.335    0.26E-04    0.17E-04    0.79E-07
 Optimization of the real space projectors (new method)

 maximal supplied QI-value         = 16.25
 optimisation between [QCUT,QGAM] = [ 11.38, 22.75] = [ 36.24,144.96] Ry 
 Optimized for a Real-space Cutoff    1.47 Angstroem

   l    n(q)    QCUT    max X(q) W(low)/X(q) W(high)/X(q)  e(spline) 
   2      9    11.376    60.317    0.17E-03    0.16E-04    0.16E-06
   2      9    11.376    55.921    0.17E-03    0.16E-04    0.17E-06
   0     10    11.376    51.690    0.45E-04    0.60E-04    0.21E-06
   0     10    11.376    30.015    0.37E-04    0.55E-04    0.19E-06
   1     10    11.376    18.849    0.83E-04    0.11E-03    0.92E-07
   1     10    11.376    14.624    0.69E-04    0.92E-04    0.82E-07
 Optimization of the real space projectors (new method)

 maximal supplied QI-value         = 22.11
 optimisation between [QCUT,QGAM] = [ 11.28, 22.77] = [ 35.61,145.23] Ry 
 Optimized for a Real-space Cutoff    1.10 Angstroem

   l    n(q)    QCUT    max X(q) W(low)/X(q) W(high)/X(q)  e(spline) 
   0      7    11.276    10.506    0.54E-04    0.58E-04    0.16E-07
   0      7    11.276     8.367    0.11E-03    0.14E-03    0.35E-07
   1      7    11.276     8.983    0.23E-03    0.43E-03    0.86E-07
 Optimization of the real space projectors (new method)

 maximal supplied QI-value         = 24.76
 optimisation between [QCUT,QGAM] = [ 11.39, 22.77] = [ 36.31,145.25] Ry 
 Optimized for a Real-space Cutoff    1.10 Angstroem

   l    n(q)    QCUT    max X(q) W(low)/X(q) W(high)/X(q)  e(spline) 
   0      7    11.387    20.381    0.22E-03    0.48E-03    0.18E-06
   0      7    11.387    15.268    0.22E-03    0.52E-03    0.19E-06
   1      7    11.387     5.964    0.22E-03    0.73E-03    0.24E-06
   1      7    11.387     5.382    0.19E-03    0.60E-03    0.21E-06

 ----------------------------------------------------------------------------- 
|                                                                             |
|  ADVICE TO THIS USER RUNNING 'VASP/VAMP'   (HEAR YOUR MASTER'S VOICE ...):  |
|                                                                             |
|      You enforced a specific xc-type in the INCAR file,                     |
|      a different type was found on the POTCAR file                          |
|          I HOPE YOU KNOW, WHAT YOU ARE  DOING                               |
|                                                                             |
 ----------------------------------------------------------------------------- 

  PAW_PBE Ta_pv 07Sep2000               :
 energy of atom  1       EATOM=-1047.1984
 kinetic energy error for atom=    0.0019 (will be added to EATOM!!)
  PAW_PBE Ni 02Aug2007                  :
 energy of atom  2       EATOM=-1077.6739
 kinetic energy error for atom=    0.0030 (will be added to EATOM!!)
  PAW_PBE Li_sv 10Sep2004               :
 energy of atom  3       EATOM= -202.7858
 kinetic energy error for atom=    0.0143 (will be added to EATOM!!)
  PAW_PBE O 08Apr2002                   :
 energy of atom  4       EATOM= -432.3788
 kinetic energy error for atom=    0.0224 (will be added to EATOM!!)
 
 
 POSCAR: ce425780_1                              
  positions in direct lattice
  No initial velocities read in
 exchange correlation table for  LEXCH =       14
   RHO(1)=    0.500       N(1)  =     2000
   RHO(2)=  100.500       N(2)  =     4000
 


--------------------------------------------------------------------------------------------------------


 ion  position               nearest neighbor table
   1  0.999  0.997  0.001-  57 1.97 108 1.97  72 2.03  60 2.03  93 2.04 105 2.04  13 2.95  15 2.95
                             2 2.95   3 2.95  54 2.96  25 2.97  19 2.97  47 3.06  53 3.06  29 3.09
   2  0.333  0.997  0.001-  63 1.97  96 1.97  60 2.03  66 2.03  93 2.04  99 2.04  15 2.95  17 2.95
                             1 2.95   3 2.95  48 2.96  19 2.97  22 2.97  47 3.06  50 3.06  32 3.09
   3  0.666  0.997  0.001-  69 1.97 102 1.97  66 2.03  72 2.03 105 2.04  99 2.04  17 2.95  13 2.95
                             1 2.95   2 2.95  51 2.96  25 2.97  22 2.97  53 3.06  50 3.06  35 3.09
   4  0.556  0.336  0.554-  74 1.97  95 1.97  89 2.03  77 2.03  92 2.04  98 2.04   7 2.95  11 2.95
                             6 2.95   5 2.95  48 2.96  23 2.97  20 2.97  46 3.06  49 3.06  37 3.09
   5  0.889  0.336  0.554-  80 1.97 101 1.97  77 2.03  83 2.03  98 2.04 104 2.04   9 2.95   7 2.95
                             4 2.95   6 2.95  51 2.96  26 2.97  23 2.97  49 3.06  52 3.06  40 3.09
   6  0.223  0.336  0.554-  86 1.97 107 1.97  89 2.03  83 2.03  92 2.04 104 2.04  11 2.95   9 2.95
                             4 2.95   5 2.95  54 2.96  20 2.97  26 2.97  46 3.06  52 3.06  43 3.09
   7  0.892  0.338  0.216-  71 1.97  59 1.97  56 2.01  74 2.11  80 2.11  77 2.14  36 2.77  30 2.77
                            28 2.80  26 2.83  20 2.83   4 2.95   5 2.95  11 2.95   9 2.95
   8  0.111  0.666  0.111-  94 1.94  79 1.95  61 1.97  55 1.97  64 1.97  58 1.97  40 2.71  47 2.82
                            29 2.84  32 2.84  21 2.91  27 2.91  16 2.92  14 2.92  12 2.95  10 2.95
   9  0.225  0.338  0.216-  59 1.97  65 1.97  62 2.01  80 2.11  86 2.11  83 2.14  30 2.77  33 2.77
                            31 2.80  20 2.83  23 2.83   5 2.95   6 2.95   7 2.95  11 2.95
  10  0.445  0.666  0.111- 100 1.94  85 1.95  67 1.97  61 1.97  70 1.97  64 1.97  43 2.71  50 2.82
                            35 2.84  32 2.84  24 2.91  21 2.91  18 2.92  16 2.92  12 2.95   8 2.95
  11  0.559  0.338  0.216-  65 1.97  71 1.97  68 2.01  86 2.11  74 2.11  89 2.14  33 2.77  36 2.77
                            34 2.80  23 2.83  26 2.83   6 2.95   4 2.95   7 2.95   9 2.95
  12  0.778  0.666  0.111- 106 1.94  73 1.95  55 1.97  67 1.97  58 1.97  70 1.97  37 2.71  53 2.82
                            35 2.84  29 2.84  27 2.91  24 2.91  14 2.92  18 2.92   8 2.95  10 2.95
  13  0.664  0.995  0.340-  78 1.97  90 1.97  75 2.01  57 2.11  69 2.11  72 2.14  39 2.77  45 2.77
                            38 2.80  22 2.83  19 2.83   1 2.95   3 2.95  15 2.95  17 2.95
  14  0.778  0.667  0.445-  97 1.94  58 1.95  82 1.97  76 1.97  73 1.97  79 1.97  29 2.71  49 2.82
                            40 2.84  37 2.84  21 2.91  24 2.91  12 2.92   8 2.92  18 2.95  16 2.95
  15  0.997  0.995  0.340-  84 1.97  78 1.97  81 2.01  63 2.11  57 2.11  60 2.14  42 2.77  39 2.77
                            41 2.80  25 2.83  22 2.83   2 2.95   1 2.95  13 2.95  17 2.95
  16  0.111  0.667  0.445- 103 1.94  64 1.95  88 1.97  82 1.97  79 1.97  85 1.97  32 2.71  52 2.82
                            43 2.84  40 2.84  24 2.91  27 2.91   8 2.92  10 2.92  18 2.95  14 2.95
  17  0.330  0.995  0.340-  90 1.97  84 1.97  87 2.01  69 2.11  63 2.11  66 2.14  45 2.77  42 2.77
                            44 2.80  19 2.83  25 2.83   3 2.95   2 2.95  13 2.95  15 2.95
  18  0.444  0.667  0.445-  91 1.94  70 1.95  76 1.97  88 1.97  85 1.97  73 1.97  35 2.71  46 2.82
                            37 2.84  43 2.84  21 2.91  27 2.91  10 2.92  12 2.92  14 2.95  16 2.95
  19  0.337  0.999  0.660-  75 1.98  87 1.98  90 2.00 108 2.10  96 2.10  93 2.15  45 2.75  17 2.83
                            13 2.83  25 2.95  22 2.95   2 2.97   1 2.97
  20  0.219  0.335  0.896-  62 1.98  56 1.98  59 2.00  95 2.10 107 2.10  92 2.15  30 2.75   9 2.83
                             7 2.83  26 2.95  23 2.95   6 2.97   4 2.97
  21  0.444  0.667  0.778-  61 1.94  76 1.94  91 1.97  97 1.97  94 1.97 100 1.97  50 2.75  47 2.75
                            46 2.75  49 2.75   8 2.91  18 2.91  14 2.91  10 2.91  27 2.95  24 2.95
  22  0.670  0.999  0.660-  81 1.98  75 1.98  78 2.00  96 2.10 102 2.10  99 2.15  39 2.75  13 2.83
                            15 2.83  19 2.95  25 2.95   3 2.97   2 2.97
  23  0.552  0.335  0.896-  62 1.98  68 1.98  65 2.00 101 2.10  95 2.10  98 2.15  33 2.75  11 2.83
                             9 2.83  20 2.95  26 2.95   4 2.97   5 2.97
  24  0.778  0.667  0.778-  67 1.94  82 1.94 103 1.97  97 1.97 106 1.97 100 1.97  53 2.75  50 2.75
                            52 2.75  49 2.75  10 2.91  12 2.91  16 2.91  14 2.91  27 2.95  21 2.95
  25  0.003  0.999  0.660-  87 1.98  81 1.98  84 2.00 102 2.10 108 2.10 105 2.15  42 2.75  15 2.83
                            17 2.83  19 2.95  22 2.95   1 2.97   3 2.97
  26  0.885  0.335  0.896-  56 1.98  68 1.98  71 2.00 107 2.10 101 2.10 104 2.15  36 2.75   7 2.83
                            11 2.83  20 2.95  23 2.95   5 2.97   6 2.97
  27  0.111  0.667  0.778-  55 1.94  88 1.94  91 1.97 103 1.97  94 1.97 106 1.97  47 2.75  53 2.75
                            52 2.75  46 2.75  12 2.91   8 2.91  18 2.91  16 2.91  21 2.95  24 2.95
  28  1.000  0.498  0.001- 107 2.10  59 2.11  71 2.11  58 2.18  94 2.22 106 2.22   7 2.80
  29  0.880  0.823  0.241-  78 2.04  79 2.05  73 2.05  55 2.19  60 2.26  72 2.26  14 2.71   8 2.84
                            12 2.84   1 3.09
  30  0.109  0.182  0.116-  80 1.99  62 2.06  56 2.06  93 2.17  63 2.24  57 2.24  20 2.75   9 2.77
                             7 2.77
  31  0.333  0.498  0.001-  95 2.10  65 2.11  59 2.11  64 2.18 100 2.22  94 2.22   9 2.80
  32  0.213  0.823  0.241-  84 2.04  79 2.05  85 2.05  61 2.19  66 2.26  60 2.26  16 2.71   8 2.84
                            10 2.84   2 3.09
  33  0.442  0.182  0.116-  86 1.99  68 2.06  62 2.06  99 2.17  69 2.24  63 2.24  23 2.75  11 2.77
                             9 2.77
  34  0.666  0.498  0.001- 101 2.10  71 2.11  65 2.11  70 2.18 106 2.22 100 2.22  11 2.80
  35  0.546  0.823  0.241-  90 2.04  73 2.05  85 2.05  67 2.19  72 2.26  66 2.26  18 2.71  12 2.84
                            10 2.84   3 3.09
  36  0.775  0.182  0.116-  74 1.99  56 2.06  68 2.06 105 2.17  57 2.24  69 2.24  26 2.75   7 2.77
                            11 2.77
  37  0.676  0.511  0.315-  71 2.04  70 2.05  58 2.05  76 2.19  89 2.26  77 2.26  12 2.71  18 2.84
                            14 2.84   4 3.09
  38  0.556  0.836  0.555-  96 2.10  90 2.11  78 2.11  73 2.18  91 2.22  97 2.22  13 2.80
  39  0.780  0.151  0.439-  57 1.99  75 2.06  81 2.06  98 2.17  74 2.24  80 2.24  22 2.75  13 2.77
                            15 2.77
  40  0.009  0.511  0.315-  59 2.04  58 2.05  64 2.05  82 2.19  77 2.26  83 2.26   8 2.71  14 2.84
                            16 2.84   5 3.09
  41  0.889  0.836  0.555- 102 2.10  78 2.11  84 2.11  79 2.18  97 2.22 103 2.22  15 2.80
  42  0.114  0.151  0.439-  63 1.99  87 2.06  81 2.06 104 2.17  86 2.24  80 2.24  25 2.75  15 2.77
                            17 2.77
  43  0.343  0.511  0.315-  65 2.04  64 2.05  70 2.05  88 2.19  83 2.26  89 2.26  10 2.71  16 2.84
                            18 2.84   6 3.09
  44  0.223  0.836  0.555- 108 2.10  84 2.11  90 2.11  85 2.18 103 2.22  91 2.22  17 2.80
  45  0.447  0.151  0.439-  69 1.99  87 2.06  75 2.06  92 2.17  86 2.24  74 2.24  19 2.75  17 2.77
                            13 2.77
  46  0.328  0.513  0.677-  94 1.99  76 2.12  88 2.12  89 2.13  95 2.15 107 2.15  21 2.75  27 2.75
                            18 2.82   6 3.06   4 3.06
  47  0.227  0.821  0.879-  91 1.99  55 2.12  61 2.12  60 2.13 108 2.15  96 2.15  27 2.75  21 2.75
                             8 2.82   2 3.06   1 3.06
  48  0.444  0.167  0.778-  62 2.09  75 2.09  92 2.14  98 2.14  99 2.14  93 2.14   4 2.96   2 2.96

  49  0.662  0.513  0.677- 100 1.99  82 2.12  76 2.12  77 2.13 101 2.15  95 2.15  24 2.75  21 2.75
                            14 2.82   5 3.06   4 3.06
  50  0.561  0.821  0.879-  97 1.99  61 2.12  67 2.12  66 2.13  96 2.15 102 2.15  21 2.75  24 2.75
                            10 2.82   2 3.06   3 3.06
  51  0.778  0.167  0.778-  68 2.09  81 2.09  98 2.14 104 2.14 105 2.14  99 2.14   5 2.96   3 2.96

  52  0.995  0.513  0.677- 106 1.99  88 2.12  82 2.12  83 2.13 107 2.15 101 2.15  27 2.75  24 2.75
                            16 2.82   6 3.06   5 3.06
  53  0.894  0.821  0.879- 103 1.99  67 2.12  55 2.12  72 2.13 102 2.15 108 2.15  24 2.75  27 2.75
                            12 2.82   3 3.06   1 3.06
  54  0.111  0.167  0.778-  56 2.09  87 2.09 104 2.14  92 2.14  93 2.14 105 2.14   6 2.96   1 2.96

  55  0.000  0.736  1.000-  27 1.94  12 1.97   8 1.97  47 2.12  53 2.12  29 2.19
  56  0.003  0.259  0.994-  26 1.98  20 1.98   7 2.01  36 2.06  30 2.06  54 2.09
  57  0.892  0.077  0.215-   1 1.97  39 1.99  13 2.11  15 2.11  36 2.24  30 2.24
  58  0.889  0.597  0.223-  14 1.95  12 1.97   8 1.97  40 2.05  37 2.05  28 2.18
  59  0.108  0.412  0.117-   9 1.97   7 1.97  20 2.00  40 2.04  28 2.11  31 2.11
  60  0.117  0.915  0.099-   2 2.03   1 2.03  47 2.13  15 2.14  29 2.26  32 2.26
  61  0.333  0.736  1.000-  21 1.94   8 1.97  10 1.97  50 2.12  47 2.12  32 2.19
  62  0.336  0.259  0.994-  20 1.98  23 1.98   9 2.01  30 2.06  33 2.06  48 2.09
  63  0.226  0.077  0.215-   2 1.97  42 1.99  15 2.11  17 2.11  30 2.24  33 2.24
  64  0.222  0.597  0.223-  16 1.95   8 1.97  10 1.97  43 2.05  40 2.05  31 2.18
  65  0.442  0.412  0.117-  11 1.97   9 1.97  23 2.00  43 2.04  34 2.11  31 2.11
  66  0.451  0.915  0.099-   3 2.03   2 2.03  50 2.13  17 2.14  32 2.26  35 2.26
  67  0.667  0.736  1.000-  24 1.94  10 1.97  12 1.97  53 2.12  50 2.12  35 2.19
  68  0.670  0.259  0.994-  26 1.98  23 1.98  11 2.01  33 2.06  36 2.06  51 2.09
  69  0.559  0.077  0.215-   3 1.97  45 1.99  17 2.11  13 2.11  33 2.24  36 2.24
  70  0.555  0.597  0.223-  18 1.95  10 1.97  12 1.97  37 2.05  43 2.05  34 2.18
  71  0.775  0.412  0.117-   7 1.97  11 1.97  26 2.00  37 2.04  34 2.11  28 2.11
  72  0.784  0.915  0.099-   1 2.03   3 2.03  53 2.13  13 2.14  35 2.26  29 2.26
  73  0.667  0.737  0.333-  12 1.95  14 1.97  18 1.97  35 2.05  29 2.05  38 2.18
  74  0.663  0.257  0.340-   4 1.97  36 1.99   7 2.11  11 2.11  39 2.24  45 2.24
  75  0.553  0.074  0.561-  19 1.98  22 1.98  13 2.01  39 2.06  45 2.06  48 2.09
  76  0.555  0.597  0.556-  21 1.94  18 1.97  14 1.97  46 2.12  49 2.12  37 2.19
  77  0.772  0.418  0.457-   4 2.03   5 2.03  49 2.13   7 2.14  40 2.26  37 2.26
  78  0.781  0.921  0.439-  13 1.97  15 1.97  22 2.00  29 2.04  41 2.11  38 2.11
  79  0.000  0.737  0.333-   8 1.95  14 1.97  16 1.97  29 2.05  32 2.05  41 2.18
  80  0.996  0.257  0.340-   5 1.97  30 1.99   9 2.11   7 2.11  39 2.24  42 2.24
  81  0.886  0.074  0.561-  22 1.98  25 1.98  15 2.01  39 2.06  42 2.06  51 2.09
  82  0.889  0.597  0.556-  24 1.94  14 1.97  16 1.97  49 2.12  52 2.12  40 2.19
  83  0.105  0.418  0.457-   6 2.03   5 2.03  52 2.13   9 2.14  43 2.26  40 2.26
  84  0.114  0.921  0.439-  15 1.97  17 1.97  25 2.00  32 2.04  44 2.11  41 2.11
  85  0.334  0.737  0.333-  10 1.95  18 1.97  16 1.97  32 2.05  35 2.05  44 2.18
  86  0.330  0.257  0.340-   6 1.97  33 1.99  11 2.11   9 2.11  45 2.24  42 2.24
  87  0.219  0.074  0.561-  19 1.98  25 1.98  17 2.01  45 2.06  42 2.06  54 2.09
  88  0.222  0.597  0.556-  27 1.94  16 1.97  18 1.97  52 2.12  46 2.12  43 2.19
  89  0.438  0.418  0.457-   6 2.03   4 2.03  46 2.13  11 2.14  37 2.26  43 2.26
  90  0.447  0.921  0.439-  17 1.97  13 1.97  19 2.00  35 2.04  38 2.11  44 2.11
  91  0.333  0.736  0.667-  18 1.94  21 1.97  27 1.97  47 1.99  38 2.22  44 2.22
  92  0.339  0.253  0.655-   4 2.04   6 2.04  48 2.14  54 2.14  20 2.15  45 2.17
  93  0.216  0.080  0.901-   1 2.04   2 2.04  54 2.14  48 2.14  19 2.15  30 2.17
  94  0.222  0.597  0.889-   8 1.94  27 1.97  21 1.97  46 1.99  28 2.22  31 2.22
  95  0.448  0.415  0.770-   4 1.97  31 2.10  20 2.10  23 2.10  46 2.15  49 2.15
  96  0.441  0.918  0.785-   2 1.97  38 2.10  22 2.10  19 2.10  50 2.15  47 2.15
  97  0.667  0.736  0.667-  14 1.94  21 1.97  24 1.97  50 1.99  41 2.22  38 2.22
  98  0.673  0.253  0.655-   5 2.04   4 2.04  51 2.14  48 2.14  23 2.15  39 2.17
  99  0.549  0.080  0.901-   2 2.04   3 2.04  48 2.14  51 2.14  22 2.15  33 2.17
 100  0.556  0.597  0.889-  10 1.94  21 1.97  24 1.97  49 1.99  31 2.22  34 2.22
 101  0.782  0.415  0.770-   5 1.97  34 2.10  26 2.10  23 2.10  49 2.15  52 2.15
 102  0.774  0.918  0.785-   3 1.97  41 2.10  25 2.10  22 2.10  53 2.15  50 2.15
 103  1.000  0.736  0.667-  16 1.94  24 1.97  27 1.97  53 1.99  44 2.22  41 2.22
 104  0.006  0.253  0.655-   6 2.04   5 2.04  54 2.14  51 2.14  26 2.15  42 2.17
 105  0.883  0.080  0.901-   3 2.04   1 2.04  51 2.14  54 2.14  25 2.15  36 2.17
 106  0.889  0.597  0.889-  12 1.94  24 1.97  27 1.97  52 1.99  34 2.22  28 2.22
 107  0.115  0.415  0.770-   6 1.97  28 2.10  26 2.10  20 2.10  52 2.15  46 2.15
 108  0.107  0.918  0.785-   1 1.97  44 2.10  19 2.10  25 2.10  47 2.15  53 2.15
 
  LATTYP: Found a base centered monoclinic cell.
 ALAT       =    15.0968836946
 B/A-ratio  =     0.5870650192
 C/A-ratio  =     2.2054668982
 COS(beta)  =    -0.7793491106
  
  Lattice vectors:
  
 A1 = (   4.4314261580,  -0.0276331741,   7.5483912676)
 A2 = (  -4.4314261580,  -0.0276331741,   7.5483912676)
 A3 = (   0.0000000000, -14.1441336377, -30.1420902972)


Analysis of symmetry for initial positions (statically):
=====================================================================
 Subroutine PRICEL returns following result:
 
  LATTYP: Found a base centered monoclinic cell.
 ALAT       =    15.0968836946
 B/A-ratio  =     0.1956883378
 C/A-ratio  =     1.3703344692
 COS(beta)  =    -0.7112479735
  
  Lattice vectors:
  
 A1 = (   1.4771420822,  -0.0276331741,   7.5483912676)
 A2 = (  -1.4771419936,  -0.0276331741,   7.5483912676)
 A3 = (  -0.0000000886, -14.1993999860, -15.0453077619)
 
   3 primitive cells build up your supercell.
 

 Routine SETGRP: Setting up the symmetry group for a 
 base centered monoclinic supercell.


 Subroutine GETGRP returns: Found  4 space group operations
 (whereof  2 operations were pure point group operations)
 out of a pool of  4 trial point group operations.


The static configuration has the point symmetry C_1h.
 The point group associated with its full space group is C_2h.


Analysis of symmetry for dynamics (positions and initial velocities):
=====================================================================
 Subroutine PRICEL returns following result:
 
  LATTYP: Found a base centered monoclinic cell.
 ALAT       =    15.0968836946
 B/A-ratio  =     0.1956883378
 C/A-ratio  =     1.3703344692
 COS(beta)  =    -0.7112479735
  
  Lattice vectors:
  
 A1 = (   1.4771420822,  -0.0276331741,   7.5483912676)
 A2 = (  -1.4771419936,  -0.0276331741,   7.5483912676)
 A3 = (  -0.0000000886, -14.1993999860, -15.0453077619)
 
   3 primitive cells build up your supercell.
 

 Routine SETGRP: Setting up the symmetry group for a 
 base centered monoclinic supercell.


 Subroutine GETGRP returns: Found  4 space group operations
 (whereof  2 operations were pure point group operations)
 out of a pool of  4 trial point group operations.


The dynamic configuration has the point symmetry C_1h.
 The point group associated with its full space group is C_2h.


Analysis of structural, dynamic, and magnetic symmetry:
=====================================================================
 Subroutine PRICEL returns following result:
 
  LATTYP: Found a base centered monoclinic cell.
 ALAT       =    15.0968836946
 B/A-ratio  =     0.1956883378
 C/A-ratio  =     1.3703344692
 COS(beta)  =    -0.7112479735
  
  Lattice vectors:
  
 A1 = (   1.4771420822,  -0.0276331741,   7.5483912676)
 A2 = (  -1.4771419936,  -0.0276331741,   7.5483912676)
 A3 = (  -0.0000000886, -14.1993999860, -15.0453077619)
 
   3 primitive cells build up your supercell.
 

 Routine SETGRP: Setting up the symmetry group for a 
 base centered monoclinic supercell.


 Subroutine GETGRP returns: Found  4 space group operations
 (whereof  2 operations were pure point group operations)
 out of a pool of  4 trial point group operations.


The magnetic configuration has the point symmetry C_1h.
 The point group associated with its full space group is C_2h.


 Subroutine INISYM returns: Found  4 space group operations
 (whereof  2 operations are pure point group operations),
 and found     3 'primitive' translations

 
 
 KPOINTS: Automatic mesh                          

Automatic generation of k-mesh.
Space group operators:
 irot       det(A)        alpha          n_x          n_y          n_z        tau_x        tau_y        tau_z
    1     1.000000     0.000000     1.000000     0.000000     0.000000     0.000000     0.000000     0.000000
    2    -1.000000   180.000000     1.000000     0.000000     0.000000     0.000000     0.000000     0.000000
    3    -1.000000     0.000000     1.000000     0.000000     0.000000     0.222222    -0.666667    -0.444444
    4     1.000000   180.000000     1.000000     0.000000     0.000000     0.222222    -0.666667    -0.444444
 
 Subroutine IBZKPT returns following result:
 ===========================================
 
 Found      1 irreducible k-points:
 
 Following reciprocal coordinates:
            Coordinates               Weight
  0.000000  0.000000  0.000000      1.000000
 
 Following cartesian coordinates:
            Coordinates               Weight
  0.000000  0.000000  0.000000      1.000000
 


--------------------------------------------------------------------------------------------------------




 Dimension of arrays:
   k-points           NKPTS =      1   k-points in BZ     NKDIM =      1   number of bands    NBANDS=    448
   number of dos      NEDOS =    301   number of ions     NIONS =    108
   non local maximal  LDIM  =      6   non local SUM 2l+1 LMDIM =     18
   total plane-waves  NPLWV = 483840
   max r-space proj   IRMAX =   8937   max aug-charges    IRDMAX=  28700
   dimension x,y,z NGX =    70 NGY =  108 NGZ =   64
   dimension x,y,z NGXF=   140 NGYF=  216 NGZF=  128
   support grid    NGXF=   140 NGYF=  216 NGZF=  128
   ions per type =               6  21  27  54
   NGX,Y,Z   is equivalent  to a cutoff of  13.13, 12.60, 12.16 a.u.
   NGXF,Y,Z  is equivalent  to a cutoff of  26.26, 25.19, 24.31 a.u.

 SYSTEM =  unknown system                          
 POSCAR =  ce425780_1                              

 Startparameter for this run:
   NWRITE =      1    write-flag & timer
   PREC   = accura    normal or accurate (medium, high low for compatibility)
   ISTART =      0    job   : 0-new  1-cont  2-samecut
   ICHARG =      2    charge: 1-file 2-atom 10-const
   ISPIN  =      2    spin polarized calculation?
   LNONCOLLINEAR =      F non collinear calculations
   LSORBIT =      F    spin-orbit coupling
   INIWAV =      1    electr: 0-lowe 1-rand  2-diag
   LASPH  =      F    aspherical Exc in radial PAW
   METAGGA=      F    non-selfconsistent MetaGGA calc.

 Electronic Relaxation 1
   ENCUT  =  500.0 eV  36.75 Ry    6.06 a.u.  16.16 25.99 15.96*2*pi/ulx,y,z
   ENINI  =  500.0     initial cutoff
   ENAUG  =  628.9 eV  augmentation charge cutoff
   NELM   =     80;   NELMIN=  2; NELMDL= -5     # of ELM steps 
   EDIFF  = 0.1E-04   stopping-criterion for ELM
   LREAL  =      T    real-space projection
   NLSPLINE    = F    spline interpolate recip. space projectors
   LCOMPAT=      F    compatible to vasp.4.4
   GGA_COMPAT  = T    GGA compatible to vasp.4.4-vasp.4.6
   LMAXPAW     = -100 max onsite density
   LMAXMIX     =    2 max onsite mixed and CHGCAR
   VOSKOWN=      1    Vosko Wilk Nusair interpolation
   ROPT   =   -0.00025  -0.00025  -0.00025  -0.00025
 Ionic relaxation
   EDIFFG = -.2E-01   stopping-criterion for IOM
   NSW    =     20    number of steps for IOM
   NBLOCK =      1;   KBLOCK =     20    inner block; outer block 
   IBRION =      1    ionic relax: 0-MD 1-quasi-New 2-CG
   NFREE  =      0    steps in history (QN), initial steepest desc. (CG)
   ISIF   =      3    stress and relaxation
   IWAVPR =     11    prediction:  0-non 1-charg 2-wave 3-comb
   ISYM   =      2    0-nonsym 1-usesym 2-fastsym
   LCORR  =      T    Harris-Foulkes like correction to forces

   POTIM  = 0.5000    time-step for ionic-motion
   TEIN   =    0.0    initial temperature
   TEBEG  =    0.0;   TEEND  =   0.0 temperature during run
   SMASS  =  -3.00    Nose mass-parameter (am)
   estimated Nose-frequenzy (Omega)   =  0.10E-29 period in steps =****** mass=  -0.180E-26a.u.
   SCALEE = 1.0000    scale energy and forces
   NPACO  =    256;   APACO  = 16.0  distance and # of slots for P.C.
   PSTRESS=    0.0 pullay stress

  Mass of Ions in am
   POMASS = 180.95 58.69  7.01 16.00
  Ionic Valenz
   ZVAL   =  11.00 10.00  3.00  6.00
  Atomic Wigner-Seitz radii
   RWIGS  =   1.34  1.15  1.23  0.73
  virtual crystal weights 
   VCA    =   1.00  1.00  1.00  1.00
   NELECT =     681.0000    total number of electrons
   NUPDOWN=      -1.0000    fix difference up-down

 DOS related values:
   EMIN   =  10.00;   EMAX   =-10.00  energy-range for DOS
   EFERMI =   0.00
   ISMEAR =     0;   SIGMA  =   0.05  broadening in eV -4-tet -1-fermi 0-gaus

 Electronic relaxation 2 (details)
   IALGO  =     38    algorithm
   LDIAG  =      T    sub-space diagonalisation (order eigenvalues)
   LSUBROT=      F    optimize rotation matrix (better conditioning)
   TURBO    =      0    0=normal 1=particle mesh
   IRESTART =      0    0=no restart 2=restart with 2 vectors
   NREBOOT  =      0    no. of reboots
   NMIN     =      0    reboot dimension
   EREF     =   0.00    reference energy to select bands
   IMIX   =      4    mixing-type and parameters
     AMIX     =   0.40;   BMIX     =  1.00
     AMIX_MAG =   1.60;   BMIX_MAG =  1.00
     AMIN     =   0.10
     WC   =   100.;   INIMIX=   1;  MIXPRE=   1;  MAXMIX= -45

 Intra band minimization:
   WEIMIN = 0.0010     energy-eigenvalue tresh-hold
   EBREAK =  0.56E-08  absolut break condition
   DEPER  =   0.30     relativ break condition  

   TIME   =   0.40     timestep for ELM

  volume/ion in A,a.u.               =       8.83        59.59
  Fermi-wavevector in a.u.,A,eV,Ry     =   1.463291  2.765220 29.133086  2.141221
  Thomas-Fermi vector in A             =   2.579404
 
 Write flags
   LWAVE        =      F    write WAVECAR
   LDOWNSAMPLE  =      F    k-point downsampling of WAVECAR
   LCHARG       =      T    write CHGCAR
   LVTOT        =      F    write LOCPOT, total local potential
   LVHAR        =      F    write LOCPOT, Hartree potential only
   LELF         =      F    write electronic localiz. function (ELF)
   LORBIT       =      0    0 simple, 1 ext, 2 COOP (PROOUT), +10 PAW based schemes


 Dipole corrections
   LMONO  =      F    monopole corrections only (constant potential shift)
   LDIPOL =      F    correct potential (dipole corrections)
   IDIPOL =      0    1-x, 2-y, 3-z, 4-all directions 
   EPSILON=  1.0000000 bulk dielectric constant

 Exchange correlation treatment:
   GGA     =    PS    GGA type
   LEXCH   =    14    internal setting for exchange type
   VOSKOWN=      1    Vosko Wilk Nusair interpolation
   LHFCALC =     F    Hartree Fock is set to
   LHFONE  =     F    Hartree Fock one center treatment
   AEXX    =    0.0000 exact exchange contribution

 Linear response parameters
   LEPSILON=     F    determine dielectric tensor
   LRPA    =     F    only Hartree local field effects (RPA)
   LNABLA  =     F    use nabla operator in PAW spheres
   LVEL    =     F    velocity operator in full k-point grid
   LINTERFAST=   F  fast interpolation
   KINTER  =     0    interpolate to denser k-point grid
   CSHIFT  =0.1000    complex shift for real part using Kramers Kronig
   OMEGAMAX=  -1.0    maximum frequency
   DEG_THRESHOLD= 0.2000000E-02 threshold for treating states as degnerate
   RTIME   =   -0.100 relaxation time in fs
  (WPLASMAI=    0.000 imaginary part of plasma frequency in eV, 0.658/RTIME)
   DFIELD  = 0.0000000 0.0000000 0.0000000 field for delta impulse in time
 
 Orbital magnetization related:
   ORBITALMAG=     F  switch on orbital magnetization
   LCHIMAG   =     F  perturbation theory with respect to B field
   DQ        =  0.001000  dq finite difference perturbation B field
   LLRAUG    =     F  two centre corrections for induced B field



--------------------------------------------------------------------------------------------------------


 quasi-Newton-method for relaxation of ions
 charge density and potential will be updated during run
 spin polarized calculation
 Variant of blocked Davidson
 Davidson routine will perform the subspace rotation
 perform sub-space diagonalisation
    after iterative eigenvector-optimisation
 modified Broyden-mixing scheme, WC =      100.0
 initial mixing is a Kerker type mixing with AMIX =  0.4000 and BMIX =      1.0000
 Hartree-type preconditioning will be used
 using additional bands          107
 real space projection scheme for non local part
 use partial core corrections
 calculate Harris-corrections to forces 
   (improved forces if not selfconsistent)
 use gradient corrections 
 use of overlap-Matrix (Vanderbilt PP)
 Gauss-broadening in eV      SIGMA  =   0.05


--------------------------------------------------------------------------------------------------------


  energy-cutoff  :      500.00
  volume of cell :      953.63
      direct lattice vectors                 reciprocal lattice vectors
     8.862852316  0.000000000  0.000000000     0.112830493 -0.000239199 -0.066240155
     0.000000000 14.254666334 -0.051474773     0.000000000  0.070153394  0.000256818
     4.431426158 -0.027633174  7.548391268     0.000000000  0.000478397  0.132480311

  length of vectors
     8.862852316 14.254759274  8.753085862     0.130837822  0.070153864  0.132481174


 
 k-points in units of 2pi/SCALE and weight: Automatic mesh                          
   0.00000000  0.00000000  0.00000000       1.000
 
 k-points in reciprocal lattice and weights: Automatic mesh                          
   0.00000000  0.00000000  0.00000000       1.000
 
 position of ions in fractional coordinates (direct lattice) 
   0.99942097  0.99727176  0.00115805
   0.33275430  0.99727176  0.00115805
   0.66608764  0.99727176  0.00115805
   0.55613458  0.33606157  0.55439751
   0.88946791  0.33606157  0.55439751
   0.22280125  0.33606157  0.55439751
   0.89204720  0.33840339  0.21590559
   0.11134099  0.66635192  0.11065136
   0.22538053  0.33840339  0.21590559
   0.44467433  0.66635192  0.11065136
   0.55871387  0.33840339  0.21590559
   0.77800766  0.66635192  0.11065136
   0.66350836  0.99492994  0.33964996
   0.77754790  0.66698142  0.44490419
   0.99684169  0.99492994  0.33964996
   0.11088124  0.66698142  0.44490419
   0.33017503  0.99492994  0.33964996
   0.44421457  0.66698142  0.44490419
   0.33675952  0.99880281  0.65981429
   0.21879603  0.33453052  0.89574127
   0.44444444  0.66666667  0.77777778
   0.67009285  0.99880281  0.65981429
   0.55212936  0.33453052  0.89574127
   0.77777778  0.66666667  0.77777778
   0.00342619  0.99880281  0.65981429
   0.88546270  0.33453052  0.89574127
   0.11111111  0.66666667  0.77777778
   0.99969165  0.49778800  0.00061671
   0.87953541  0.82277281  0.24092919
   0.10855750  0.18213041  0.11621834
   0.33302498  0.49778800  0.00061671
   0.21286874  0.82277281  0.24092919
   0.44189084  0.18213041  0.11621834
   0.66635832  0.49778800  0.00061671
   0.54620208  0.82277281  0.24092919
   0.77522417  0.18213041  0.11621834
   0.67602015  0.51056052  0.31462636
   0.55586390  0.83554533  0.55493885
   0.78033139  0.15120293  0.43933721
   0.00935348  0.51056052  0.31462636
   0.88919723  0.83554533  0.55493885
   0.11366473  0.15120293  0.43933721
   0.34268682  0.51056052  0.31462636
   0.22253057  0.83554533  0.55493885
   0.44699806  0.15120293  0.43933721
   0.32820968  0.51277187  0.67691398
   0.22734587  0.82056146  0.87864158
   0.44444444  0.16666667  0.77777778
   0.66154301  0.51277187  0.67691398
   0.56067920  0.82056146  0.87864158
   0.77777778  0.16666667  0.77777778
   0.99487635  0.51277187  0.67691398
   0.89401254  0.82056146  0.87864158
   0.11111111  0.16666667  0.77777778
   0.00013399  0.73598855  0.99973202
   0.00291700  0.25903178  0.99416600
   0.89246247  0.07674961  0.21507506
   0.88868359  0.59671898  0.22263282
   0.10825963  0.41237207  0.11681407
   0.11738585  0.91517427  0.09856163
   0.33346732  0.73598855  0.99973202
   0.33625033  0.25903178  0.99416600
   0.22579580  0.07674961  0.21507506
   0.22201692  0.59671898  0.22263282
   0.44159297  0.41237207  0.11681407
   0.45071919  0.91517427  0.09856163
   0.66680066  0.73598855  0.99973202
   0.66958367  0.25903178  0.99416600
   0.55912914  0.07674961  0.21507506
   0.55535026  0.59671898  0.22263282
   0.77492630  0.41237207  0.11681407
   0.78405252  0.91517427  0.09856163
   0.66687197  0.73661435  0.33292273
   0.66309309  0.25658372  0.34048049
   0.55263855  0.07430155  0.56138956
   0.55542156  0.59734478  0.55582354
   0.77150304  0.41815907  0.45699392
   0.78062926  0.92096127  0.43874148
   0.00020530  0.73661435  0.33292273
   0.99642642  0.25658372  0.34048049
   0.88597188  0.07430155  0.56138956
   0.88875489  0.59734478  0.55582354
   0.10483638  0.41815907  0.45699392
   0.11396260  0.92096127  0.43874148
   0.33353864  0.73661435  0.33292273
   0.32975976  0.25658372  0.34048049
   0.21930522  0.07430155  0.56138956
   0.22208823  0.59734478  0.55582354
   0.43816971  0.41815907  0.45699392
   0.44729593  0.92096127  0.43874148
   0.33330920  0.73634793  0.66671493
   0.33941368  0.25345509  0.65450598
   0.21614187  0.07987824  0.90104958
   0.22224635  0.59698540  0.88884063
   0.44828551  0.41500155  0.77009563
   0.44060337  0.91833179  0.78545993
   0.66664253  0.73634793  0.66671493
   0.67274701  0.25345509  0.65450598
   0.54947520  0.07987824  0.90104958
   0.55557968  0.59698540  0.88884063
   0.78161885  0.41500155  0.77009563
   0.77393671  0.91833179  0.78545993
   0.99997587  0.73634793  0.66671493
   0.00608035  0.25345509  0.65450598
   0.88280854  0.07987824  0.90104958
   0.88891302  0.59698540  0.88884063
   0.11495218  0.41500155  0.77009563
   0.10727004  0.91833179  0.78545993
 
 position of ions in cartesian coordinates  (Angst):
   8.86285227 14.21574418 -0.04259292
   2.95428403 14.21574418 -0.04259292
   5.90856820 14.21574418 -0.04259292
   7.38571028  4.77512579  4.16751063
  10.33999435  4.77512579  4.16751063
   4.43142620  4.77512579  4.16751063
   8.86285227  4.81786125  1.61232063
   1.47714208  9.49556663  0.80093945
   2.95428403  4.81786125  1.61232063
   4.43142625  9.49556663  0.80093945
   5.90856820  4.81786125  1.61232063
   7.38571032  9.49556663  0.80093945
   7.38571032 14.17300871  2.51259700
   8.86285227  9.49530348  3.32397819
  10.33999440 14.17300871  2.51259700
   2.95428412  9.49530348  3.32397819
   4.43142625 14.17300871  2.51259700
   5.90856820  9.49530348  3.32397819
   5.90856820 14.21936803  4.92912328
   5.90856820  4.74386877  6.74418570
   7.38571023  9.48161847  5.83665449
   8.86285227 14.21936803  4.92912328
   8.86285227  4.74386877  6.74418570
  10.33999440  9.48161847  5.83665449
   2.95428412 14.21936803  4.92912328
  11.81713644  4.74386877  6.74418570
   4.43142616  9.48161847  5.83665449
   8.86285236  7.09578480 -0.02096836
   8.86285236 11.72169424  1.77627575
   1.47714208  2.59299674  0.86788638
   2.95428412  7.09578480 -0.02096836
   2.95428412 11.72169424  1.77627575
   4.43142625  2.59299674  0.86788638
   5.90856828  7.09578480 -0.02096836
   5.90856828 11.72169424  1.77627575
   7.38571032  2.59299674  0.86788638
   7.38571023  7.26917573  2.34864188
   7.38571019 11.89508516  4.14588606
   8.86285227  2.14320703  3.30850602
   1.47714199  7.26917573  2.34864188
  10.33999427 11.89508516  4.14588606
   2.95428412  2.14320703  3.30850602
   4.43142616  7.26917573  2.34864188
   4.43142611 11.89508516  4.14588606
   5.90856820  2.14320703  3.30850602
   5.90856824  7.29068663  5.08321676
   5.90856815 11.67255016  6.59009221
   7.38571023  2.35428530  5.86239187
   8.86285232  7.29068663  5.08321676
   8.86285223 11.67255016  6.59009221
  10.33999440  2.35428530  5.86239187
  11.81713648  7.29068663  5.08321676
  11.81713639 11.67255016  6.59009221
   4.43142616  2.35428530  5.86239187
   4.43142616 10.46364544  7.50848361
   4.43142616  3.66493963  7.49102035
   8.86285232  1.08809688  1.61952004
   8.86285232  8.49987790  1.64980366
   1.47714204  5.87499832  0.86053155
   1.47714204 13.04278029  0.69687336
   7.38571023 10.46364544  7.50848361
   7.38571023  3.66493963  7.49102035
   2.95428408  1.08809688  1.61952004
   2.95428408  8.49987790  1.64980366
   4.43142620  5.87499832  0.86053155
   4.43142620 13.04278029  0.69687336
  10.33999440 10.46364544  7.50848361
  10.33999440  3.66493963  7.49102035
   5.90856824  1.08809688  1.61952004
   5.90856824  8.49987790  1.64980366
   7.38571028  5.87499832  0.86053155
   7.38571028 13.04278029  0.69687336
   7.38571028 10.49099206  2.47511397
   7.38571028  3.64810676  2.55687237
   7.38571023  1.04363083  4.23376340
   7.38571023  8.49959136  4.16482537
   8.86285232  5.94808982  3.42804427
   8.86285232 13.11587179  3.26438608
   1.47714204 10.49099206  2.47511397
  10.33999435  3.64810676  2.55687237
  10.33999431  1.04363083  4.23376340
  10.33999431  8.49959136  4.16482537
   2.95428416  5.94808982  3.42804427
   2.95428416 13.11587179  3.26438608
   4.43142620 10.49099206  2.47511397
   4.43142620  3.64810676  2.55687237
   4.43142616  1.04363083  4.23376340
   4.43142616  8.49959136  4.16482537
   5.90856824  5.94808982  3.42804427
   5.90856824 13.11587179  3.26438608
   5.90856820 10.47797060  4.99472181
   5.90856824  3.59483166  4.92742068
   5.90856815  1.11373880  6.79736307
   5.90856820  8.48526620  6.67858716
   7.38571019  5.89442844  5.79162102
   7.38571028 13.06880850  5.88168796
   8.86285227 10.47797060  4.99472181
   8.86285232  3.59483166  4.92742068
   8.86285223  1.11373880  6.79736307
   8.86285227  8.48526620  6.67858716
  10.33999435  5.89442844  5.79162102
  10.33999444 13.06880850  5.88168796
  11.81713644 10.47797060  4.99472181
   2.95428416  3.59483166  4.92742068
  11.81713639  1.11373880  6.79736307
  11.81713644  8.48526620  6.67858716
   4.43142611  5.89442844  5.79162102
   4.43142620 13.06880850  5.88168796
 


--------------------------------------------------------------------------------------------------------


 use serial FFT for orbitals x direction half grid
 k-point  1 :   0.0000 0.0000 0.0000  plane waves:   12085

 maximum and minimum number of plane-waves per node :     12085    12085

 maximum number of plane-waves:     12085
 maximum index in each direction: 
   IXMAX=   16   IYMAX=   25   IZMAX=   15
   IXMIN=    0   IYMIN=  -25   IZMIN=  -13

 The following grids will avoid any aliasing or wrap around errors in the Hartre
 e energy
  - symmetry arguments have not been applied
  - exchange correlation energies might require even more grid points
  - we recommend to set PREC=Normal or Accurate and rely on VASP defaults
 NGX is ok and might be reduce to    70
 NGY is ok and might be reduce to   108
 NGZ is ok and might be reduce to    60

 serial   3D FFT for wavefunctions
 parallel 3D FFT for charge:
    minimum data exchange during FFTs selected (reduces bandwidth)


 total amount of memory used by VASP MPI-rank0   160314. kBytes
=======================================================================

   base      :      30000. kBytes
   nonlr-proj:      43744. kBytes
   fftplans  :      10432. kBytes
   grid      :      63148. kBytes
   one-center:       1679. kBytes
   wavefun   :      11311. kBytes
 
     INWAV:  cpu time    0.0000: real time    0.0000
 Broyden mixing: mesh for mixing (old mesh)
   NGX = 33   NGY = 51   NGZ = 31
  (NGX  =140   NGY  =216   NGZ  =128)
  gives a total of  52173 points

 initial charge density was supplied:
 charge density of overlapping atoms calculated
 number of electron     681.0000000 magnetization      52.5000000
 keeping initial charge density in first step


--------------------------------------------------------------------------------------------------------


 Maximum index for non-local projection operator         8635
 Maximum index for augmentation-charges         2064 (set IRDMAX)


--------------------------------------------------------------------------------------------------------


 First call to EWALD:  gamma=   0.180
 Maximum number of real-space cells 3x 2x 3
 Maximum number of reciprocal cells 3x 4x 2

    FEWALD:  cpu time    0.0046: real time    0.0046


--------------------------------------- Iteration      1(   1)  ---------------------------------------


    POTLOK:  cpu time    0.3285: real time    0.3655
    SETDIJ:  cpu time    0.0405: real time    0.0406
     EDDAV:  cpu time    6.8854: real time    6.9017
    --------------------------------------------
      LOOP:  cpu time    7.2550: real time    7.3083

 eigenvalue-minimisations  :  1824
 total energy-change (2. order) : 0.1181298E+05  (-0.3220929E+05)
 number of electron     681.0000000 magnetization      52.5000000
 augmentation part      681.0000000 magnetization      52.5000000

 Free energy of the ion-electron system (eV)
  ---------------------------------------------------
  alpha Z        PSCENC =      2698.80055935
  Ewald energy   TEWEN  =    -43342.46757988
  -Hartree energ DENC   =    -15062.77671862
  -exchange      EXHF   =         0.00000000
  -V(xc)+E(xc)   XCENC  =      2704.76563108
  PAW double counting   =     45963.93653542   -47759.37326946
  entropy T*S    EENTRO =        -0.02033995
  eigenvalues    EBANDS =      9022.14749941
  atomic energy  EATOM  =     57587.96785776
  Solvation  Ediel_sol  =         0.00000000
  ---------------------------------------------------
  free energy    TOTEN  =     11812.98017513 eV

  energy without entropy =    11813.00051508  energy(sigma->0) =    11812.99034511


--------------------------------------------------------------------------------------------------------




--------------------------------------- Iteration      1(   2)  ---------------------------------------


     EDDAV:  cpu time    6.9731: real time    6.9897
    --------------------------------------------
      LOOP:  cpu time    6.9730: real time    6.9896

 eigenvalue-minimisations  :  1856
 total energy-change (2. order) :-0.9920476E+04  (-0.9119990E+04)
 number of electron     681.0000000 magnetization      52.5000000
 augmentation part      681.0000000 magnetization      52.5000000

 Free energy of the ion-electron system (eV)
  ---------------------------------------------------
  alpha Z        PSCENC =      2698.80055935
  Ewald energy   TEWEN  =    -43342.46757988
  -Hartree energ DENC   =    -15062.77671862
  -exchange      EXHF   =         0.00000000
  -V(xc)+E(xc)   XCENC  =      2704.76563108
  PAW double counting   =     45963.93653542   -47759.37326946
  entropy T*S    EENTRO =        -0.03031095
  eigenvalues    EBANDS =      -898.31883165
  atomic energy  EATOM  =     57587.96785776
  Solvation  Ediel_sol  =         0.00000000
  ---------------------------------------------------
  free energy    TOTEN  =      1892.50387307 eV

  energy without entropy =     1892.53418402  energy(sigma->0) =     1892.51902854


--------------------------------------------------------------------------------------------------------




--------------------------------------- Iteration      1(   3)  ---------------------------------------


     EDDAV:  cpu time    7.3629: real time    7.3803
    --------------------------------------------
      LOOP:  cpu time    7.3628: real time    7.3803

 eigenvalue-minimisations  :  2000
 total energy-change (2. order) :-0.2376336E+04  (-0.2042978E+04)
 number of electron     681.0000000 magnetization      52.5000000
 augmentation part      681.0000000 magnetization      52.5000000

 Free energy of the ion-electron system (eV)
  ---------------------------------------------------
  alpha Z        PSCENC =      2698.80055935
  Ewald energy   TEWEN  =    -43342.46757988
  -Hartree energ DENC   =    -15062.77671862
  -exchange      EXHF   =         0.00000000
  -V(xc)+E(xc)   XCENC  =      2704.76563108
  PAW double counting   =     45963.93653542   -47759.37326946
  entropy T*S    EENTRO =        -0.10402229
  eigenvalues    EBANDS =     -3274.58062211
  atomic energy  EATOM  =     57587.96785776
  Solvation  Ediel_sol  =         0.00000000
  ---------------------------------------------------
  free energy    TOTEN  =      -483.83162873 eV

  energy without entropy =     -483.72760645  energy(sigma->0) =     -483.77961759


--------------------------------------------------------------------------------------------------------




--------------------------------------- Iteration      1(   4)  ---------------------------------------


     EDDAV:  cpu time    7.9604: real time    7.9794
    --------------------------------------------
      LOOP:  cpu time    7.9605: real time    7.9795

 eigenvalue-minimisations  :  2208
 total energy-change (2. order) :-0.3673823E+03  (-0.3569470E+03)
 number of electron     681.0000000 magnetization      52.5000000
 augmentation part      681.0000000 magnetization      52.5000000

 Free energy of the ion-electron system (eV)
  ---------------------------------------------------
  alpha Z        PSCENC =      2698.80055935
  Ewald energy   TEWEN  =    -43342.46757988
  -Hartree energ DENC   =    -15062.77671862
  -exchange      EXHF   =         0.00000000
  -V(xc)+E(xc)   XCENC  =      2704.76563108
  PAW double counting   =     45963.93653542   -47759.37326946
  entropy T*S    EENTRO =        -0.14155992
  eigenvalues    EBANDS =     -3641.92541393
  atomic energy  EATOM  =     57587.96785776
  Solvation  Ediel_sol  =         0.00000000
  ---------------------------------------------------
  free energy    TOTEN  =      -851.21395819 eV

  energy without entropy =     -851.07239827  energy(sigma->0) =     -851.14317823


--------------------------------------------------------------------------------------------------------




--------------------------------------- Iteration      1(   5)  ---------------------------------------


     EDDAV:  cpu time   10.6272: real time   10.6524
    CHARGE:  cpu time    0.6039: real time    0.6054
    MIXING:  cpu time    0.0069: real time    0.0069
    --------------------------------------------
      LOOP:  cpu time   11.2376: real time   11.2643

 eigenvalue-minimisations  :  3136
 total energy-change (2. order) :-0.2645388E+02  (-0.2620824E+02)
 number of electron     680.9999930 magnetization      53.3534540
 augmentation part      197.8850611 magnetization      40.6858386

 Broyden mixing:
  rms(total) = 0.13062E+02    rms(broyden)= 0.13059E+02
  rms(prec ) = 0.14302E+02
  weight for this iteration     100.00

 Free energy of the ion-electron system (eV)
  ---------------------------------------------------
  alpha Z        PSCENC =      2698.80055935
  Ewald energy   TEWEN  =    -43342.46757988
  -Hartree energ DENC   =    -15062.77671862
  -exchange      EXHF   =         0.00000000
  -V(xc)+E(xc)   XCENC  =      2704.76563108
  PAW double counting   =     45963.93653542   -47759.37326946
  entropy T*S    EENTRO =        -0.13961293
  eigenvalues    EBANDS =     -3668.38123720
  atomic energy  EATOM  =     57587.96785776
  Solvation  Ediel_sol  =         0.00000000
  ---------------------------------------------------
  free energy    TOTEN  =      -877.66783447 eV

  energy without entropy =     -877.52822154  energy(sigma->0) =     -877.59802800


--------------------------------------------------------------------------------------------------------




--------------------------------------- Iteration      1(   6)  ---------------------------------------


    POTLOK:  cpu time    0.3087: real time    0.3094
    SETDIJ:  cpu time    0.0432: real time    0.0433
     EDDAV:  cpu time    9.4979: real time    9.5204
    CHARGE:  cpu time    0.5980: real time    0.5994
    MIXING:  cpu time    0.0071: real time    0.0071
    --------------------------------------------
      LOOP:  cpu time   10.4549: real time   10.4796

 eigenvalue-minimisations  :  2752
 total energy-change (2. order) : 0.3417780E+02  (-0.1355489E+03)
 number of electron     680.9999945 magnetization      49.5413888
 augmentation part      234.4364592 magnetization      46.0166584

 Broyden mixing:
  rms(total) = 0.19145E+02    rms(broyden)= 0.19144E+02
  rms(prec ) = 0.20421E+02
  weight for this iteration     100.00

 eigenvalues of (default mixing * dielectric matrix)
  average eigenvalue GAMMA=   0.2656
  0.2656

 Free energy of the ion-electron system (eV)
  ---------------------------------------------------
  alpha Z        PSCENC =      2698.80055935
  Ewald energy   TEWEN  =    -43342.46757988
  -Hartree energ DENC   =    -14628.99254149
  -exchange      EXHF   =         0.00000000
  -V(xc)+E(xc)   XCENC  =      2732.79932579
  PAW double counting   =     53560.79436696   -55162.65470622
  entropy T*S    EENTRO =        -0.02822321
  eigenvalues    EBANDS =     -4289.70908975
  atomic energy  EATOM  =     57587.96785776
  Solvation  Ediel_sol  =         0.00000000
  ---------------------------------------------------
  free energy    TOTEN  =      -843.49003068 eV

  energy without entropy =     -843.46180747  energy(sigma->0) =     -843.47591907


--------------------------------------------------------------------------------------------------------




--------------------------------------- Iteration      1(   7)  ---------------------------------------


    POTLOK:  cpu time    0.3040: real time    0.3047
    SETDIJ:  cpu time    0.0432: real time    0.0433
     EDDAV:  cpu time    8.8160: real time    8.8370
    CHARGE:  cpu time    0.6025: real time    0.6039
    MIXING:  cpu time    0.0067: real time    0.0067
    --------------------------------------------
      LOOP:  cpu time    9.7725: real time    9.7957

 eigenvalue-minimisations  :  2512
 total energy-change (2. order) : 0.1074425E+03  (-0.4408277E+02)
 number of electron     680.9999927 magnetization      45.2981061
 augmentation part      216.4603112 magnetization      43.2352264

 Broyden mixing:
  rms(total) = 0.93437E+01    rms(broyden)= 0.93423E+01
  rms(prec ) = 0.11486E+02
  weight for this iteration     100.00

 eigenvalues of (default mixing * dielectric matrix)
  average eigenvalue GAMMA=   0.4651
  0.4651  0.4651

 Free energy of the ion-electron system (eV)
  ---------------------------------------------------
  alpha Z        PSCENC =      2698.80055935
  Ewald energy   TEWEN  =    -43342.46757988
  -Hartree energ DENC   =    -14878.68657628
  -exchange      EXHF   =         0.00000000
  -V(xc)+E(xc)   XCENC  =      2719.00945204
  PAW double counting   =     56279.47402983   -58045.44544358
  entropy T*S    EENTRO =        -0.05390983
  eigenvalues    EBANDS =     -3754.64591883
  atomic energy  EATOM  =     57587.96785776
  Solvation  Ediel_sol  =         0.00000000
  ---------------------------------------------------
  free energy    TOTEN  =      -736.04752940 eV

  energy without entropy =     -735.99361958  energy(sigma->0) =     -736.02057449


--------------------------------------------------------------------------------------------------------




--------------------------------------- Iteration      1(   8)  ---------------------------------------


    POTLOK:  cpu time    0.3039: real time    0.3047
    SETDIJ:  cpu time    0.0436: real time    0.0437
     EDDAV:  cpu time    8.8989: real time    8.9200
    CHARGE:  cpu time    0.6025: real time    0.6040
    MIXING:  cpu time    0.0068: real time    0.0068
    --------------------------------------------
      LOOP:  cpu time    9.8558: real time    9.8792

 eigenvalue-minimisations  :  2528
 total energy-change (2. order) :-0.1461538E+03  (-0.4035267E+02)
 number of electron     680.9999981 magnetization      40.0638957
 augmentation part      196.2875218 magnetization      34.4073950

 Broyden mixing:
  rms(total) = 0.16365E+02    rms(broyden)= 0.16364E+02
  rms(prec ) = 0.23764E+02
  weight for this iteration     100.00

 eigenvalues of (default mixing * dielectric matrix)
  average eigenvalue GAMMA=   0.4280
  0.5755  0.5755  0.1329

 Free energy of the ion-electron system (eV)
  ---------------------------------------------------
  alpha Z        PSCENC =      2698.80055935
  Ewald energy   TEWEN  =    -43342.46757988
  -Hartree energ DENC   =    -14928.59326969
  -exchange      EXHF   =         0.00000000
  -V(xc)+E(xc)   XCENC  =      2712.20376349
  PAW double counting   =     58631.80973447   -60453.89212168
  entropy T*S    EENTRO =        -0.06507280
  eigenvalues    EBANDS =     -3787.96518407
  atomic energy  EATOM  =     57587.96785776
  Solvation  Ediel_sol  =         0.00000000
  ---------------------------------------------------
  free energy    TOTEN  =      -882.20131304 eV

  energy without entropy =     -882.13624025  energy(sigma->0) =     -882.16877664


--------------------------------------------------------------------------------------------------------




--------------------------------------- Iteration      1(   9)  ---------------------------------------


    POTLOK:  cpu time    0.3001: real time    0.3008
    SETDIJ:  cpu time    0.0435: real time    0.0436
     EDDAV:  cpu time    8.6861: real time    8.7067
    CHARGE:  cpu time    0.5280: real time    0.5292
    MIXING:  cpu time    0.0073: real time    0.0073
    --------------------------------------------
      LOOP:  cpu time    9.5650: real time    9.5877

 eigenvalue-minimisations  :  2464
 total energy-change (2. order) : 0.1380930E+03  (-0.2383996E+02)
 number of electron     680.9999927 magnetization      34.7344242
 augmentation part      215.2335873 magnetization      26.0468330

 Broyden mixing:
  rms(total) = 0.75295E+01    rms(broyden)= 0.75277E+01
  rms(prec ) = 0.83733E+01
  weight for this iteration     100.00

 eigenvalues of (default mixing * dielectric matrix)
  average eigenvalue GAMMA=   0.5762
  1.3179  0.4759  0.3887  0.1223

 Free energy of the ion-electron system (eV)
  ---------------------------------------------------
  alpha Z        PSCENC =      2698.80055935
  Ewald energy   TEWEN  =    -43342.46757988
  -Hartree energ DENC   =    -14745.02618188
  -exchange      EXHF   =         0.00000000
  -V(xc)+E(xc)   XCENC  =      2702.69212776
  PAW double counting   =     61677.92291990   -63495.34691754
  entropy T*S    EENTRO =        -0.16267121
  eigenvalues    EBANDS =     -3828.48844784
  atomic energy  EATOM  =     57587.96785776
  Solvation  Ediel_sol  =         0.00000000
  ---------------------------------------------------
  free energy    TOTEN  =      -744.10833357 eV

  energy without entropy =     -743.94566236  energy(sigma->0) =     -744.02699797


--------------------------------------------------------------------------------------------------------




--------------------------------------- Iteration      1(  10)  ---------------------------------------


    POTLOK:  cpu time    0.3067: real time    0.3074
    SETDIJ:  cpu time    0.0424: real time    0.0425
     EDDAV:  cpu time    9.1934: real time    9.2151
    CHARGE:  cpu time    0.5994: real time    0.6009
    MIXING:  cpu time    0.0078: real time    0.0078
    --------------------------------------------
      LOOP:  cpu time   10.1497: real time   10.1737

 eigenvalue-minimisations  :  2640
 total energy-change (2. order) :-0.6291896E+01  (-0.1030652E+02)
 number of electron     680.9999939 magnetization      32.7578879
 augmentation part      210.5306692 magnetization      25.3551727

 Broyden mixing:
  rms(total) = 0.11404E+02    rms(broyden)= 0.11403E+02
  rms(prec ) = 0.14499E+02
  weight for this iteration     100.00

 eigenvalues of (default mixing * dielectric matrix)
  average eigenvalue GAMMA=   0.5248
  1.4981  0.4207  0.4207  0.1421  0.1421

 Free energy of the ion-electron system (eV)
  ---------------------------------------------------
  alpha Z        PSCENC =      2698.80055935
  Ewald energy   TEWEN  =    -43342.46757988
  -Hartree energ DENC   =    -14723.41699056
  -exchange      EXHF   =         0.00000000
  -V(xc)+E(xc)   XCENC  =      2700.16335451
  PAW double counting   =     65252.54893971   -67116.04492760
  entropy T*S    EENTRO =        -0.10211286
  eigenvalues    EBANDS =     -3807.84933024
  atomic energy  EATOM  =     57587.96785776
  Solvation  Ediel_sol  =         0.00000000
  ---------------------------------------------------
  free energy    TOTEN  =      -750.40022980 eV

  energy without entropy =     -750.29811693  energy(sigma->0) =     -750.34917337


--------------------------------------------------------------------------------------------------------




--------------------------------------- Iteration      1(  11)  ---------------------------------------


    POTLOK:  cpu time    0.2952: real time    0.2959
    SETDIJ:  cpu time    0.0392: real time    0.0393
     EDDAV:  cpu time    8.6628: real time    8.6833
    CHARGE:  cpu time    0.5870: real time    0.5884
    MIXING:  cpu time    0.0068: real time    0.0068
    --------------------------------------------
      LOOP:  cpu time    9.5910: real time    9.6137

 eigenvalue-minimisations  :  2496
 total energy-change (2. order) :-0.2953261E+00  (-0.1705870E+02)
 number of electron     680.9999921 magnetization      27.5469165
 augmentation part      212.8629641 magnetization      22.2293887

 Broyden mixing:
  rms(total) = 0.86217E+01    rms(broyden)= 0.86204E+01
  rms(prec ) = 0.10578E+02
  weight for this iteration     100.00

 eigenvalues of (default mixing * dielectric matrix)
  average eigenvalue GAMMA=   0.5814
  1.9478  0.4790  0.4790  0.3590  0.1282  0.0957

 Free energy of the ion-electron system (eV)
  ---------------------------------------------------
  alpha Z        PSCENC =      2698.80055935
  Ewald energy   TEWEN  =    -43342.46757988
  -Hartree energ DENC   =    -14695.00060444
  -exchange      EXHF   =         0.00000000
  -V(xc)+E(xc)   XCENC  =      2699.45772919
  PAW double counting   =     66500.11144834   -68368.77183340
  entropy T*S    EENTRO =        -0.10106141
  eigenvalues    EBANDS =     -3830.69207144
  atomic energy  EATOM  =     57587.96785776
  Solvation  Ediel_sol  =         0.00000000
  ---------------------------------------------------
  free energy    TOTEN  =      -750.69555591 eV

  energy without entropy =     -750.59449451  energy(sigma->0) =     -750.64502521


--------------------------------------------------------------------------------------------------------




--------------------------------------- Iteration      1(  12)  ---------------------------------------


    POTLOK:  cpu time    0.2974: real time    0.2981
    SETDIJ:  cpu time    0.0429: real time    0.0430
     EDDAV:  cpu time    8.6368: real time    8.6573
    CHARGE:  cpu time    0.5969: real time    0.5983
    MIXING:  cpu time    0.0076: real time    0.0076
    --------------------------------------------
      LOOP:  cpu time    9.5816: real time    9.6044

 eigenvalue-minimisations  :  2576
 total energy-change (2. order) : 0.1780331E+02  (-0.6117726E+01)
 number of electron     680.9999944 magnetization      26.2041514
 augmentation part      217.6635268 magnetization      24.3129599

 Broyden mixing:
  rms(total) = 0.62778E+01    rms(broyden)= 0.62763E+01
  rms(prec ) = 0.82069E+01
  weight for this iteration     100.00

 eigenvalues of (default mixing * dielectric matrix)
  average eigenvalue GAMMA=   0.5474
  1.8286  0.6563  0.4352  0.4352  0.2495  0.1323  0.0949

 Free energy of the ion-electron system (eV)
  ---------------------------------------------------
  alpha Z        PSCENC =      2698.80055935
  Ewald energy   TEWEN  =    -43342.46757988
  -Hartree energ DENC   =    -14655.10852457
  -exchange      EXHF   =         0.00000000
  -V(xc)+E(xc)   XCENC  =      2698.77039513
  PAW double counting   =     69119.95784544   -71006.91857009
  entropy T*S    EENTRO =        -0.11324239
  eigenvalues    EBANDS =     -3833.78098837
  atomic energy  EATOM  =     57587.96785776
  Solvation  Ediel_sol  =         0.00000000
  ---------------------------------------------------
  free energy    TOTEN  =      -732.89224761 eV

  energy without entropy =     -732.77900522  energy(sigma->0) =     -732.83562642


--------------------------------------------------------------------------------------------------------




--------------------------------------- Iteration      1(  13)  ---------------------------------------


    POTLOK:  cpu time    0.3060: real time    0.3068
    SETDIJ:  cpu time    0.0432: real time    0.0433
     EDDAV:  cpu time    8.5946: real time    8.6150
    CHARGE:  cpu time    0.5788: real time    0.5802
    MIXING:  cpu time    0.0082: real time    0.0082
    --------------------------------------------
      LOOP:  cpu time    9.5309: real time    9.5535

 eigenvalue-minimisations  :  2432
 total energy-change (2. order) : 0.1622098E+02  (-0.3919059E+01)
 number of electron     680.9999930 magnetization      25.8684616
 augmentation part      214.1227065 magnetization      21.7433202

 Broyden mixing:
  rms(total) = 0.52155E+01    rms(broyden)= 0.52142E+01
  rms(prec ) = 0.62098E+01
  weight for this iteration     100.00

 eigenvalues of (default mixing * dielectric matrix)
  average eigenvalue GAMMA=   0.5112
  1.7708  0.6398  0.4824  0.4824  0.3102  0.1790  0.1334  0.0916

 Free energy of the ion-electron system (eV)
  ---------------------------------------------------
  alpha Z        PSCENC =      2698.80055935
  Ewald energy   TEWEN  =    -43342.46757988
  -Hartree energ DENC   =    -14720.65914090
  -exchange      EXHF   =         0.00000000
  -V(xc)+E(xc)   XCENC  =      2700.80287244
  PAW double counting   =     68924.60911982   -70827.08902710
  entropy T*S    EENTRO =        -0.06714240
  eigenvalues    EBANDS =     -3738.56878287
  atomic energy  EATOM  =     57587.96785776
  Solvation  Ediel_sol  =         0.00000000
  ---------------------------------------------------
  free energy    TOTEN  =      -716.67126377 eV

  energy without entropy =     -716.60412137  energy(sigma->0) =     -716.63769257


--------------------------------------------------------------------------------------------------------




--------------------------------------- Iteration      1(  14)  ---------------------------------------


    POTLOK:  cpu time    0.3010: real time    0.3017
    SETDIJ:  cpu time    0.0400: real time    0.0401
     EDDAV:  cpu time    9.0331: real time    9.0545
    CHARGE:  cpu time    0.6064: real time    0.6078
    MIXING:  cpu time    0.0091: real time    0.0091
    --------------------------------------------
      LOOP:  cpu time    9.9896: real time   10.0133

 eigenvalue-minimisations  :  2592
 total energy-change (2. order) : 0.6483847E+01  (-0.1029840E+01)
 number of electron     680.9999929 magnetization      25.8305621
 augmentation part      212.6791366 magnetization      20.1067518

 Broyden mixing:
  rms(total) = 0.39420E+01    rms(broyden)= 0.39412E+01
  rms(prec ) = 0.45956E+01
  weight for this iteration     100.00

 eigenvalues of (default mixing * dielectric matrix)
  average eigenvalue GAMMA=   0.4594
  1.7529  0.5602  0.5003  0.5003  0.2543  0.2543  0.1315  0.0905  0.0905

 Free energy of the ion-electron system (eV)
  ---------------------------------------------------
  alpha Z        PSCENC =      2698.80055935
  Ewald energy   TEWEN  =    -43342.46757988
  -Hartree energ DENC   =    -14750.15888946
  -exchange      EXHF   =         0.00000000
  -V(xc)+E(xc)   XCENC  =      2701.20471594
  PAW double counting   =     68579.64038553   -70486.83737676
  entropy T*S    EENTRO =        -0.13209428
  eigenvalues    EBANDS =     -3698.20499456
  atomic energy  EATOM  =     57587.96785776
  Solvation  Ediel_sol  =         0.00000000
  ---------------------------------------------------
  free energy    TOTEN  =      -710.18741635 eV

  energy without entropy =     -710.05532207  energy(sigma->0) =     -710.12136921


--------------------------------------------------------------------------------------------------------




--------------------------------------- Iteration      1(  15)  ---------------------------------------


    POTLOK:  cpu time    0.3091: real time    0.3099
    SETDIJ:  cpu time    0.0436: real time    0.0437
     EDDAV:  cpu time    8.9751: real time    8.9963
    CHARGE:  cpu time    0.5967: real time    0.5981
    MIXING:  cpu time    0.0097: real time    0.0097
    --------------------------------------------
      LOOP:  cpu time    9.9342: real time    9.9577

 eigenvalue-minimisations  :  2560
 total energy-change (2. order) :-0.2901526E+00  (-0.4235128E+00)
 number of electron     680.9999931 magnetization      25.8477949
 augmentation part      212.9842433 magnetization      19.6503687

 Broyden mixing:
  rms(total) = 0.39073E+01    rms(broyden)= 0.39071E+01
  rms(prec ) = 0.46639E+01
  weight for this iteration     100.00

 eigenvalues of (default mixing * dielectric matrix)
  average eigenvalue GAMMA=   0.4220
  1.7576  0.5576  0.4989  0.4989  0.2652  0.2652  0.1301  0.0938  0.1098  0.0431

 Free energy of the ion-electron system (eV)
  ---------------------------------------------------
  alpha Z        PSCENC =      2698.80055935
  Ewald energy   TEWEN  =    -43342.46757988
  -Hartree energ DENC   =    -14747.94835265
  -exchange      EXHF   =         0.00000000
  -V(xc)+E(xc)   XCENC  =      2700.84461403
  PAW double counting   =     68531.62927218   -70434.98198481
  entropy T*S    EENTRO =        -0.15758286
  eigenvalues    EBANDS =     -3704.16437209
  atomic energy  EATOM  =     57587.96785776
  Solvation  Ediel_sol  =         0.00000000
  ---------------------------------------------------
  free energy    TOTEN  =      -710.47756896 eV

  energy without entropy =     -710.31998610  energy(sigma->0) =     -710.39877753


--------------------------------------------------------------------------------------------------------




--------------------------------------- Iteration      1(  16)  ---------------------------------------


    POTLOK:  cpu time    0.3076: real time    0.3083
    SETDIJ:  cpu time    0.0449: real time    0.0450
     EDDAV:  cpu time    8.3123: real time    8.3320
    CHARGE:  cpu time    0.5966: real time    0.5980
    MIXING:  cpu time    0.0088: real time    0.0088
    --------------------------------------------
      LOOP:  cpu time    9.2701: real time    9.2922

 eigenvalue-minimisations  :  2336
 total energy-change (2. order) :-0.1139023E-01  (-0.2747015E-01)
 number of electron     680.9999930 magnetization      26.1452328
 augmentation part      212.8963835 magnetization      19.4881655

 Broyden mixing:
  rms(total) = 0.38477E+01    rms(broyden)= 0.38476E+01
  rms(prec ) = 0.45396E+01
  weight for this iteration     100.00

 eigenvalues of (default mixing * dielectric matrix)
  average eigenvalue GAMMA=   0.4080
  1.7877  0.5252  0.5252  0.4991  0.2825  0.2251  0.1576  0.1576  0.1321  0.0926
  0.1034

 Free energy of the ion-electron system (eV)
  ---------------------------------------------------
  alpha Z        PSCENC =      2698.80055935
  Ewald energy   TEWEN  =    -43342.46757988
  -Hartree energ DENC   =    -14748.33118634
  -exchange      EXHF   =         0.00000000
  -V(xc)+E(xc)   XCENC  =      2700.86523595
  PAW double counting   =     68526.64276677   -70429.72595517
  entropy T*S    EENTRO =        -0.14624433
  eigenvalues    EBANDS =     -3704.09441331
  atomic energy  EATOM  =     57587.96785776
  Solvation  Ediel_sol  =         0.00000000
  ---------------------------------------------------
  free energy    TOTEN  =      -710.48895920 eV

  energy without entropy =     -710.34271486  energy(sigma->0) =     -710.41583703


--------------------------------------------------------------------------------------------------------




--------------------------------------- Iteration      1(  17)  ---------------------------------------


    POTLOK:  cpu time    0.3074: real time    0.3081
    SETDIJ:  cpu time    0.0428: real time    0.0429
     EDDAV:  cpu time    9.4924: real time    9.5148
    CHARGE:  cpu time    0.5940: real time    0.5954
    MIXING:  cpu time    0.0100: real time    0.0100
    --------------------------------------------
      LOOP:  cpu time   10.4465: real time   10.4713

 eigenvalue-minimisations  :  2752
 total energy-change (2. order) :-0.8401037E+00  (-0.1196039E-01)
 number of electron     680.9999931 magnetization      25.5032830
 augmentation part      213.0335719 magnetization      19.3233459

 Broyden mixing:
  rms(total) = 0.40169E+01    rms(broyden)= 0.40169E+01
  rms(prec ) = 0.48079E+01
  weight for this iteration     100.00

 eigenvalues of (default mixing * dielectric matrix)
  average eigenvalue GAMMA=   0.4357
  1.7891  0.3555  0.5472  0.5472  0.3688  0.3688  0.4370  0.3120  0.1775  0.1344
  0.0912  0.1001

 Free energy of the ion-electron system (eV)
  ---------------------------------------------------
  alpha Z        PSCENC =      2698.80055935
  Ewald energy   TEWEN  =    -43342.46757988
  -Hartree energ DENC   =    -14747.35240959
  -exchange      EXHF   =         0.00000000
  -V(xc)+E(xc)   XCENC  =      2700.98736869
  PAW double counting   =     68590.61234307   -70494.11065108
  entropy T*S    EENTRO =        -0.12108019
  eigenvalues    EBANDS =     -3705.64547102
  atomic energy  EATOM  =     57587.96785776
  Solvation  Ediel_sol  =         0.00000000
  ---------------------------------------------------
  free energy    TOTEN  =      -711.32906289 eV

  energy without entropy =     -711.20798270  energy(sigma->0) =     -711.26852280


--------------------------------------------------------------------------------------------------------




--------------------------------------- Iteration      1(  18)  ---------------------------------------


    POTLOK:  cpu time    0.3049: real time    0.3056
    SETDIJ:  cpu time    0.0428: real time    0.0429
     EDDAV:  cpu time    9.0404: real time    9.0618
    CHARGE:  cpu time    0.5959: real time    0.5973
    MIXING:  cpu time    0.0100: real time    0.0100
    --------------------------------------------
      LOOP:  cpu time    9.9940: real time   10.0176

 eigenvalue-minimisations  :  2592
 total energy-change (2. order) : 0.1114174E+01  (-0.2367762E-01)
 number of electron     680.9999930 magnetization      25.2898814
 augmentation part      212.8155043 magnetization      17.9389178

 Broyden mixing:
  rms(total) = 0.36328E+01    rms(broyden)= 0.36328E+01
  rms(prec ) = 0.41813E+01
  weight for this iteration     100.00

 eigenvalues of (default mixing * dielectric matrix)
  average eigenvalue GAMMA=   0.4410
  1.7970  0.4808  0.5544  0.5544  0.4060  0.4060  0.4333  0.3037  0.3037  0.1673
  0.1350  0.0911  0.1006

 Free energy of the ion-electron system (eV)
  ---------------------------------------------------
  alpha Z        PSCENC =      2698.80055935
  Ewald energy   TEWEN  =    -43342.46757988
  -Hartree energ DENC   =    -14747.96601367
  -exchange      EXHF   =         0.00000000
  -V(xc)+E(xc)   XCENC  =      2700.71584011
  PAW double counting   =     68563.77054471   -70467.15770563
  entropy T*S    EENTRO =        -0.16754045
  eigenvalues    EBANDS =     -3703.71085080
  atomic energy  EATOM  =     57587.96785776
  Solvation  Ediel_sol  =         0.00000000
  ---------------------------------------------------
  free energy    TOTEN  =      -710.21488848 eV

  energy without entropy =     -710.04734803  energy(sigma->0) =     -710.13111826


--------------------------------------------------------------------------------------------------------




--------------------------------------- Iteration      1(  19)  ---------------------------------------


    POTLOK:  cpu time    0.2967: real time    0.2974
    SETDIJ:  cpu time    0.0392: real time    0.0393
     EDDAV:  cpu time    9.0296: real time    9.0510
    CHARGE:  cpu time    0.5716: real time    0.5730
    MIXING:  cpu time    0.0102: real time    0.0102
    --------------------------------------------
      LOOP:  cpu time    9.9472: real time    9.9708

 eigenvalue-minimisations  :  2608
 total energy-change (2. order) :-0.4395857E+00  (-0.3217457E-01)
 number of electron     680.9999930 magnetization      25.5232491
 augmentation part      212.8052312 magnetization      19.3229679

 Broyden mixing:
  rms(total) = 0.40602E+01    rms(broyden)= 0.40602E+01
  rms(prec ) = 0.47755E+01
  weight for this iteration     100.00

 eigenvalues of (default mixing * dielectric matrix)
  average eigenvalue GAMMA=   0.4777
  1.7780  0.6220  0.6220  0.5658  0.5658  0.4920  0.4920  0.4072  0.3229  0.3229
  0.1712  0.1348  0.0911  0.1005

 Free energy of the ion-electron system (eV)
  ---------------------------------------------------
  alpha Z        PSCENC =      2698.80055935
  Ewald energy   TEWEN  =    -43342.46757988
  -Hartree energ DENC   =    -14748.04046548
  -exchange      EXHF   =         0.00000000
  -V(xc)+E(xc)   XCENC  =      2700.62946942
  PAW double counting   =     68629.52696793   -70534.10033234
  entropy T*S    EENTRO =        -0.13990287
  eigenvalues    EBANDS =     -3702.83104812
  atomic energy  EATOM  =     57587.96785776
  Solvation  Ediel_sol  =         0.00000000
  ---------------------------------------------------
  free energy    TOTEN  =      -710.65447422 eV

  energy without entropy =     -710.51457136  energy(sigma->0) =     -710.58452279


--------------------------------------------------------------------------------------------------------




--------------------------------------- Iteration      1(  20)  ---------------------------------------


    POTLOK:  cpu time    0.3115: real time    0.3123
[...]
      5.91268      4.74544      6.74415         0.000000      0.004205     -0.002351
      7.39085      9.48450      5.83684        -0.000000     -0.000000     -0.000000
      8.86902     14.22355      4.92952        -0.000000     -0.004205      0.002351
      8.86902      4.74544      6.74415         0.000000      0.004205     -0.002351
     10.34719      9.48450      5.83684        -0.000000     -0.000000     -0.000000
      2.95634     14.22355      4.92952        -0.000000     -0.004205      0.002351
     11.82537      4.74544      6.74415         0.000000      0.004205     -0.002351
      4.43451      9.48450      5.83684        -0.000000     -0.000000     -0.000000
      8.86902      7.09907     -0.02240         0.000000      0.009965     -0.006749
      8.86902     11.72610      1.77560         0.000000     -0.002519      0.005447
      1.47817      2.59431      0.86801        -0.000000      0.006897      0.000717
      2.95634      7.09907     -0.02240         0.000000      0.009965     -0.006749
      2.95634     11.72610      1.77560         0.000000     -0.002519      0.005447
      4.43451      2.59431      0.86801        -0.000000      0.006897      0.000717
      5.91268      7.09907     -0.02240         0.000000      0.009965     -0.006749
      5.91268     11.72610      1.77560         0.000000     -0.002519      0.005447
      7.39085      2.59431      0.86801        -0.000000      0.006897      0.000717
      7.39085      7.27142      2.34802        -0.000000      0.002519     -0.005447
      7.39085     11.89844      4.14602        -0.000000     -0.009965      0.006749
      8.86902      2.14319      3.30875        -0.000000     -0.006897     -0.000717
      1.47817      7.27142      2.34802        -0.000000      0.002519     -0.005447
     10.34719     11.89844      4.14602        -0.000000     -0.009965      0.006749
      2.95634      2.14319      3.30875        -0.000000     -0.006897     -0.000717
      4.43451      7.27142      2.34802        -0.000000      0.002519     -0.005447
      4.43451     11.89844      4.14602        -0.000000     -0.009965      0.006749
      5.91268      2.14319      3.30875        -0.000000     -0.006897     -0.000717
      5.91268      7.29255      5.08323        -0.000000      0.000283     -0.004013
      5.91268     11.67644      6.59045         0.000000     -0.000283      0.004013
      7.39085      2.35449      5.86341        -0.000000     -0.000000     -0.000000
      8.86902      7.29255      5.08323        -0.000000      0.000283     -0.004013
      8.86902     11.67644      6.59045         0.000000     -0.000283      0.004013
     10.34719      2.35449      5.86341        -0.000000     -0.000000     -0.000000
     11.82537      7.29255      5.08323        -0.000000      0.000283     -0.004013
     11.82537     11.67644      6.59045         0.000000     -0.000283      0.004013
      4.43451      2.35449      5.86341        -0.000000     -0.000000     -0.000000
      4.43451     10.46668      7.50904         0.000000      0.001385      0.004508
      4.43451      3.66596      7.49185        -0.000000      0.006037     -0.007987
      8.86902      1.08734      1.61973         0.000000     -0.000563      0.011127
      8.86902      8.50309      1.64888         0.000000      0.001262     -0.004437
      1.47817      5.87738      0.86016        -0.000000     -0.001036      0.003116
      1.47817     13.04868      0.69532         0.000000      0.009175     -0.004193
      7.39085     10.46668      7.50904         0.000000      0.001385      0.004508
      7.39085      3.66596      7.49185        -0.000000      0.006037     -0.007987
      2.95634      1.08734      1.61973         0.000000     -0.000563      0.011127
      2.95634      8.50309      1.64888         0.000000      0.001262     -0.004437
      4.43451      5.87738      0.86016        -0.000000     -0.001036      0.003116
      4.43451     13.04868      0.69532         0.000000      0.009175     -0.004193
     10.34719     10.46668      7.50904         0.000000      0.001385      0.004508
     10.34719      3.66596      7.49185        -0.000000      0.006037     -0.007987
      5.91268      1.08734      1.61973         0.000000     -0.000563      0.011127
      5.91268      8.50309      1.64888         0.000000      0.001262     -0.004437
      7.39085      5.87738      0.86016        -0.000000     -0.001036      0.003116
      7.39085     13.04868      0.69532         0.000000      0.009175     -0.004193
      7.39085     10.49443      2.47474        -0.000000     -0.001262      0.004437
      7.39085      3.65016      2.55704        -0.000000      0.000563     -0.011127
      7.39085      1.04302      4.23496         0.000000     -0.006037      0.007987
      7.39085      8.50232      4.16464        -0.000000     -0.001385     -0.004508
      8.86902      5.94883      3.42830        -0.000000     -0.009175      0.004193
      8.86902     13.12013      3.26346         0.000000      0.001036     -0.003116
      1.47817     10.49443      2.47474        -0.000000     -0.001262      0.004437
     10.34719      3.65016      2.55704        -0.000000      0.000563     -0.011127
     10.34719      1.04302      4.23496         0.000000     -0.006037      0.007987
     10.34719      8.50232      4.16464        -0.000000     -0.001385     -0.004508
      2.95634      5.94883      3.42830        -0.000000     -0.009175      0.004193
      2.95634     13.12013      3.26346         0.000000      0.001036     -0.003116
      4.43451     10.49443      2.47474        -0.000000     -0.001262      0.004437
      4.43451      3.65016      2.55704        -0.000000      0.000563     -0.011127
      4.43451      1.04302      4.23496         0.000000     -0.006037      0.007987
      4.43451      8.50232      4.16464        -0.000000     -0.001385     -0.004508
      5.91268      5.94883      3.42830        -0.000000     -0.009175      0.004193
      5.91268     13.12013      3.26346         0.000000      0.001036     -0.003116
      5.91268     10.48108      4.99441         0.000000     -0.002621      0.002965
      5.91268      3.59652      4.92699         0.000000      0.006800     -0.012031
      5.91268      1.11246      6.79982        -0.000000     -0.006800      0.012031
      5.91268      8.48792      6.67926        -0.000000      0.002621     -0.002965
      7.39085      5.89559      5.79140        -0.000000      0.005351     -0.001527
      7.39085     13.07340      5.88228        -0.000000     -0.005351      0.001527
      8.86902     10.48108      4.99441         0.000000     -0.002621      0.002965
      8.86902      3.59652      4.92699         0.000000      0.006800     -0.012031
      8.86902      1.11246      6.79982        -0.000000     -0.006800      0.012031
      8.86902      8.48792      6.67926        -0.000000      0.002621     -0.002965
     10.34719      5.89559      5.79140        -0.000000      0.005351     -0.001527
     10.34719     13.07340      5.88228        -0.000000     -0.005351      0.001527
     11.82537     10.48108      4.99441         0.000000     -0.002621      0.002965
      2.95634      3.59652      4.92699         0.000000      0.006800     -0.012031
     11.82537      1.11246      6.79982        -0.000000     -0.006800      0.012031
     11.82537      8.48792      6.67926        -0.000000      0.002621     -0.002965
      4.43451      5.89559      5.79140        -0.000000      0.005351     -0.001527
      4.43451     13.07340      5.88228        -0.000000     -0.005351      0.001527
 -----------------------------------------------------------------------------------
    total drift:                                0.000008     -0.000871     -0.000545


--------------------------------------------------------------------------------------------------------



  FREE ENERGIE OF THE ION-ELECTRON SYSTEM (eV)
  ---------------------------------------------------
  free  energy   TOTEN  =      -714.5869979343 eV

  energy  without entropy=     -714.5414598930  energy(sigma->0) =     -714.56422891
 
 d Force = 0.6786705E-03[ 0.205E-03, 0.115E-02]  d Energy = 0.1590059E-02-0.911E-03
 d Force =-0.7470451E+01[-0.748E+01,-0.746E+01]  d Ewald  = 0.7385755E+01-0.149E+02


--------------------------------------------------------------------------------------------------------


    POTLOK:  cpu time    0.3516: real time    0.3524


--------------------------------------------------------------------------------------------------------


 Quasi-Newton relaxation of ions (Broydens 2nd method)
  g(Force)  = 0.271E-03   g(Stress)= 0.601E-04

 retain information from N=  1 steps
 eigenvalues of (default step * inverse Hessian matrix)
  average eigenvalue of G=   0.5465
 eigenvalue spectrum of G is  0.5465


--------------------------------------------------------------------------------------------------------


  
 reached required accuracy - stopping structural energy minimisation
     LOOP+:  cpu time   98.4849: real time   98.8692
    4ORBIT:  cpu time    0.0000: real time    0.0000

volume of typ            1:     6.3 %

volume of typ            2:    14.0 %

volume of typ            3:    22.0 %

volume of typ            4:     9.2 %
 
total charge     
 
# of ion       s       p       d       tot
------------------------------------------
    1        0.279   6.181   1.977   8.437
    2        0.279   6.181   1.977   8.437
    3        0.279   6.181   1.977   8.437
    4        0.279   6.181   1.977   8.437
    5        0.279   6.181   1.977   8.437
    6        0.279   6.181   1.977   8.437
    7        0.220   0.249   7.908   8.377
    8        0.249   0.311   7.853   8.413
    9        0.220   0.249   7.908   8.377
   10        0.249   0.311   7.853   8.413
   11        0.220   0.249   7.908   8.377
   12        0.249   0.311   7.853   8.413
   13        0.220   0.249   7.908   8.377
   14        0.249   0.311   7.853   8.413
   15        0.220   0.249   7.908   8.377
   16        0.249   0.311   7.853   8.413
   17        0.220   0.249   7.908   8.377
   18        0.249   0.311   7.853   8.413
   19        0.219   0.248   7.907   8.374
   20        0.219   0.248   7.907   8.374
   21        0.252   0.315   7.856   8.422
   22        0.219   0.248   7.907   8.374
   23        0.219   0.248   7.907   8.374
   24        0.252   0.315   7.856   8.422
   25        0.219   0.248   7.907   8.374
   26        0.219   0.248   7.907   8.374
   27        0.252   0.315   7.856   8.422
   28        2.072   0.238   0.087   2.396
   29        2.079   0.259   0.097   2.435
   30        2.080   0.269   0.104   2.454
   31        2.072   0.238   0.087   2.396
   32        2.079   0.259   0.097   2.435
   33        2.080   0.269   0.104   2.454
   34        2.072   0.238   0.087   2.396
   35        2.079   0.259   0.097   2.435
   36        2.080   0.269   0.104   2.454
   37        2.079   0.259   0.097   2.435
   38        2.072   0.238   0.087   2.396
   39        2.080   0.269   0.104   2.454
   40        2.079   0.259   0.097   2.435
   41        2.072   0.238   0.087   2.396
   42        2.080   0.269   0.104   2.454
   43        2.079   0.259   0.097   2.435
   44        2.072   0.238   0.087   2.396
   45        2.080   0.269   0.104   2.454
   46        2.082   0.273   0.105   2.460
   47        2.082   0.273   0.105   2.460
   48        2.075   0.253   0.097   2.425
   49        2.082   0.273   0.105   2.460
   50        2.082   0.273   0.105   2.460
   51        2.075   0.253   0.097   2.425
   52        2.082   0.273   0.105   2.460
   53        2.082   0.273   0.105   2.460
   54        2.075   0.253   0.097   2.425
   55        1.259   2.780   0.005   4.044
   56        1.247   2.804   0.005   4.056
   57        1.252   2.831   0.005   4.088
   58        1.258   2.786   0.005   4.049
   59        1.248   2.803   0.005   4.055
   60        1.252   2.851   0.006   4.109
   61        1.259   2.780   0.005   4.044
   62        1.247   2.804   0.005   4.056
   63        1.252   2.831   0.005   4.088
   64        1.258   2.786   0.005   4.049
   65        1.248   2.803   0.005   4.055
   66        1.252   2.851   0.006   4.109
   67        1.259   2.780   0.005   4.044
   68        1.247   2.804   0.005   4.056
   69        1.252   2.831   0.005   4.088
   70        1.258   2.786   0.005   4.049
   71        1.248   2.803   0.005   4.055
   72        1.252   2.851   0.006   4.109
   73        1.258   2.786   0.005   4.049
   74        1.252   2.831   0.005   4.088
   75        1.247   2.804   0.005   4.056
   76        1.259   2.780   0.005   4.044
   77        1.252   2.851   0.006   4.109
   78        1.248   2.803   0.005   4.055
   79        1.258   2.786   0.005   4.049
   80        1.252   2.831   0.005   4.088
   81        1.247   2.804   0.005   4.056
   82        1.259   2.780   0.005   4.044
   83        1.252   2.851   0.006   4.109
   84        1.248   2.803   0.005   4.055
   85        1.258   2.786   0.005   4.049
   86        1.252   2.831   0.005   4.088
   87        1.247   2.804   0.005   4.056
   88        1.259   2.780   0.005   4.044
   89        1.252   2.851   0.006   4.109
   90        1.248   2.803   0.005   4.055
   91        1.259   2.781   0.005   4.045
   92        1.250   2.854   0.006   4.110
   93        1.250   2.854   0.006   4.110
   94        1.259   2.781   0.005   4.045
   95        1.251   2.832   0.005   4.088
   96        1.251   2.832   0.005   4.088
   97        1.259   2.781   0.005   4.045
   98        1.250   2.854   0.006   4.110
   99        1.250   2.854   0.006   4.110
  100        1.259   2.781   0.005   4.045
  101        1.251   2.832   0.005   4.088
  102        1.251   2.832   0.005   4.088
  103        1.259   2.781   0.005   4.045
  104        1.250   2.854   0.006   4.110
  105        1.250   2.854   0.006   4.110
  106        1.259   2.781   0.005   4.045
  107        1.251   2.832   0.005   4.088
  108        1.251   2.832   0.005   4.088
--------------------------------------------------
tot         130.31  201.81  180.37  512.49
 
magnetization (x)
 
# of ion       s       p       d       tot
------------------------------------------
    1        0.003  -0.000   0.095   0.098
    2        0.003  -0.000   0.095   0.098
    3        0.003  -0.000   0.095   0.098
    4        0.003  -0.000   0.095   0.098
    5        0.003  -0.000   0.095   0.098
    6        0.003  -0.000   0.095   0.098
    7       -0.001   0.004   1.379   1.382
    8       -0.000  -0.000   0.800   0.799
    9       -0.001   0.004   1.379   1.382
   10       -0.000  -0.000   0.800   0.799
   11       -0.001   0.004   1.379   1.382
   12       -0.000  -0.000   0.800   0.799
   13       -0.001   0.004   1.379   1.382
   14       -0.000  -0.000   0.800   0.799
   15       -0.001   0.004   1.379   1.382
   16       -0.000  -0.000   0.800   0.799
   17       -0.001   0.004   1.379   1.382
   18       -0.000  -0.000   0.800   0.799
   19       -0.001   0.004   1.410   1.413
   20       -0.001   0.004   1.410   1.413
   21       -0.001  -0.001   0.750   0.749
   22       -0.001   0.004   1.410   1.413
   23       -0.001   0.004   1.410   1.413
   24       -0.001  -0.001   0.750   0.749
   25       -0.001   0.004   1.410   1.413
   26       -0.001   0.004   1.410   1.413
   27       -0.001  -0.001   0.750   0.749
   28        0.005   0.010   0.001   0.017
   29        0.006   0.010   0.001   0.018
   30        0.004   0.008   0.002   0.014
   31        0.005   0.010   0.001   0.017
   32        0.006   0.010   0.001   0.018
   33        0.004   0.008   0.002   0.014
   34        0.005   0.010   0.001   0.017
   35        0.006   0.010   0.001   0.018
   36        0.004   0.008   0.002   0.014
   37        0.006   0.010   0.001   0.018
   38        0.005   0.010   0.001   0.017
   39        0.004   0.008   0.002   0.014
   40        0.006   0.010   0.001   0.018
   41        0.005   0.010   0.001   0.017
   42        0.004   0.008   0.002   0.014
   43        0.006   0.010   0.001   0.018
   44        0.005   0.010   0.001   0.017
   45        0.004   0.008   0.002   0.014
   46        0.006   0.010   0.001   0.017
   47        0.006   0.010   0.001   0.017
   48        0.004   0.007   0.003   0.014
   49        0.006   0.010   0.001   0.017
   50        0.006   0.010   0.001   0.017
   51        0.004   0.007   0.003   0.014
   52        0.006   0.010   0.001   0.017
   53        0.006   0.010   0.001   0.017
   54        0.004   0.007   0.003   0.014
   55        0.014   0.080   0.000   0.094
   56        0.016   0.233   0.000   0.250
   57        0.007   0.060   0.000   0.067
   58        0.014   0.077   0.000   0.092
   59        0.016   0.230   0.000   0.247
   60        0.006   0.059   0.000   0.065
   61        0.014   0.080   0.000   0.094
   62        0.016   0.233   0.000   0.250
   63        0.007   0.060   0.000   0.067
   64        0.014   0.077   0.000   0.092
   65        0.016   0.230   0.000   0.247
   66        0.006   0.059   0.000   0.065
   67        0.014   0.080   0.000   0.094
   68        0.016   0.233   0.000   0.250
   69        0.007   0.060   0.000   0.067
   70        0.014   0.077   0.000   0.092
   71        0.016   0.230   0.000   0.247
   72        0.006   0.059   0.000   0.065
   73        0.014   0.077   0.000   0.092
   74        0.007   0.060   0.000   0.067
   75        0.016   0.233   0.000   0.250
   76        0.014   0.080   0.000   0.094
   77        0.006   0.059   0.000   0.065
   78        0.016   0.230   0.000   0.247
   79        0.014   0.077   0.000   0.092
   80        0.007   0.060   0.000   0.067
   81        0.016   0.233   0.000   0.250
   82        0.014   0.080   0.000   0.094
   83        0.006   0.059   0.000   0.065
   84        0.016   0.230   0.000   0.247
   85        0.014   0.077   0.000   0.092
   86        0.007   0.060   0.000   0.067
   87        0.016   0.233   0.000   0.250
   88        0.014   0.080   0.000   0.094
   89        0.006   0.059   0.000   0.065
   90        0.016   0.230   0.000   0.247
   91        0.014   0.080   0.000   0.094
   92        0.005   0.053   0.001   0.059
   93        0.005   0.053   0.001   0.059
   94        0.014   0.080   0.000   0.094
   95        0.008   0.062   0.000   0.070
   96        0.008   0.062   0.000   0.070
   97        0.014   0.080   0.000   0.094
   98        0.005   0.053   0.001   0.059
   99        0.005   0.053   0.001   0.059
  100        0.014   0.080   0.000   0.094
  101        0.008   0.062   0.000   0.070
  102        0.008   0.062   0.000   0.070
  103        0.014   0.080   0.000   0.094
  104        0.005   0.053   0.001   0.059
  105        0.005   0.053   0.001   0.059
  106        0.014   0.080   0.000   0.094
  107        0.008   0.062   0.000   0.070
  108        0.008   0.062   0.000   0.070
--------------------------------------------------
tot           0.75    5.90   24.42   31.06
 

 total amount of memory used by VASP MPI-rank0   160314. kBytes
=======================================================================

   base      :      30000. kBytes
   nonlr-proj:      43744. kBytes
   fftplans  :      10432. kBytes
   grid      :      63148. kBytes
   one-center:       1679. kBytes
   wavefun   :      11311. kBytes
 
  
  
 General timing and accounting informations for this job:
 ========================================================
  
                  Total CPU time used (sec):      899.296
                            User time (sec):      893.501
                          System time (sec):        5.794
                         Elapsed time (sec):      906.078
  
                   Maximum memory used (kb):      218832.
                   Average memory used (kb):           0.
  
                          Minor page faults:        39409
                          Major page faults:           12
                 Voluntary context switches:         1156
