 vasp.5.4.4.18Apr17-6-g9f103f2a35 (build May 12 2020 05:39:39) gamma-only       
  
 MD_VERSION_INFO: Compiled 2020-05-12T12:39:39-UTC in devlin.sd.materialsdesign.
 com:/home/medea2/data/build/wwolf/vasp-gpu5.4.4/13047/x86_64/src/src/build/gam 
 from svn 13047
 
 This VASP executable licensed from Materials Design, Inc.
 
 executed on                        Lin64 date 2023.04.02  02:55:16
 running on   16 total cores
 distrk:  each k-point on   16 cores,    1 groups
 distr:  one band on NCORES_PER_BAND=   1 cores,   16 groups


--------------------------------------------------------------------------------------------------------


 INCAR:
 POTCAR:    PAW_PBE Ta_pv 07Sep2000               
 POTCAR:    PAW_PBE Ni 02Aug2007                  
 POTCAR:    PAW_PBE Li_sv 10Sep2004               
 POTCAR:    PAW_PBE O 08Apr2002                   

 ----------------------------------------------------------------------------- 
|                                                                             |
|           W    W    AA    RRRRR   N    N  II  N    N   GGGG   !!!           |
|           W    W   A  A   R    R  NN   N  II  NN   N  G    G  !!!           |
|           W    W  A    A  R    R  N N  N  II  N N  N  G       !!!           |
|           W WW W  AAAAAA  RRRRR   N  N N  II  N  N N  G  GGG   !            |
|           WW  WW  A    A  R   R   N   NN  II  N   NN  G    G                |
|           W    W  A    A  R    R  N    N  II  N    N   GGGG   !!!           |
|                                                                             |
|      For optimal performance we recommend to set                            |
|        NCORE= 4 - approx SQRT( number of cores)                             |
|      NCORE specifies how many cores store one orbital (NPAR=cpu/NCORE).     |
|      This setting can  greatly improve the performance of VASP for DFT.     |
|      The default,   NCORE=1            might be grossly inefficient         |
|      on modern multi-core architectures or massively parallel machines.     |
|      Do your own testing !!!!                                               |
|      Unfortunately you need to use the default for GW and RPA calculations. |
|      (for HF NCORE is supported but not extensively tested yet)             |
|                                                                             |
 ----------------------------------------------------------------------------- 

 POTCAR:    PAW_PBE Ta_pv 07Sep2000               
  local pseudopotential read in
  partial core-charges read in
  partial kinetic energy density read in
  atomic valenz-charges read in
  non local Contribution for L=           1  read in
    real space projection operators read in
  non local Contribution for L=           1  read in
    real space projection operators read in
  non local Contribution for L=           2  read in
    real space projection operators read in
  non local Contribution for L=           2  read in
    real space projection operators read in
  non local Contribution for L=           0  read in
    real space projection operators read in
  non local Contribution for L=           0  read in
    real space projection operators read in
    PAW grid and wavefunctions read in
 
   number of l-projection  operators is LMAX  =           6
   number of lm-projection operators is LMMAX =          18
 
 POTCAR:    PAW_PBE Ni 02Aug2007                  
  local pseudopotential read in
  partial core-charges read in
  partial kinetic energy density read in
  atomic valenz-charges read in
  non local Contribution for L=           2  read in
    real space projection operators read in
  non local Contribution for L=           2  read in
    real space projection operators read in
  non local Contribution for L=           0  read in
    real space projection operators read in
  non local Contribution for L=           0  read in
    real space projection operators read in
  non local Contribution for L=           1  read in
    real space projection operators read in
  non local Contribution for L=           1  read in
    real space projection operators read in
    PAW grid and wavefunctions read in
 
   number of l-projection  operators is LMAX  =           6
   number of lm-projection operators is LMMAX =          18
 
 POTCAR:    PAW_PBE Li_sv 10Sep2004               
  local pseudopotential read in
  atomic valenz-charges read in
  non local Contribution for L=           0  read in
    real space projection operators read in
  non local Contribution for L=           0  read in
    real space projection operators read in
  non local Contribution for L=           1  read in
    real space projection operators read in
    PAW grid and wavefunctions read in
 
   number of l-projection  operators is LMAX  =           3
   number of lm-projection operators is LMMAX =           5
 
 POTCAR:    PAW_PBE O 08Apr2002                   
  local pseudopotential read in
  partial core-charges read in
  partial kinetic energy density read in
  kinetic energy density of atom read in
  atomic valenz-charges read in
  non local Contribution for L=           0  read in
    real space projection operators read in
  non local Contribution for L=           0  read in
    real space projection operators read in
  non local Contribution for L=           1  read in
    real space projection operators read in
  non local Contribution for L=           1  read in
    real space projection operators read in
    PAW grid and wavefunctions read in
 
   number of l-projection  operators is LMAX  =           4
   number of lm-projection operators is LMMAX =           8
 
 Optimization of the real space projectors (new method)

 maximal supplied QI-value         = 15.12
 optimisation between [QCUT,QGAM] = [ 11.34, 22.83] = [ 36.00,145.93] Ry 
 Optimized for a Real-space Cutoff    1.61 Angstroem

   l    n(q)    QCUT    max X(q) W(low)/X(q) W(high)/X(q)  e(spline) 
   1     11    11.338     4.092    0.40E-05    0.64E-05    0.47E-07
   1     11    11.338     4.834    0.13E-04    0.44E-04    0.21E-06
   2     10    11.338    62.294    0.15E-03    0.31E-03    0.77E-06
   2     10    11.338    50.966    0.15E-03    0.31E-03    0.77E-06
   0     11    11.338   103.792    0.33E-04    0.19E-04    0.90E-07
   0     11    11.338    56.335    0.26E-04    0.17E-04    0.79E-07
 Optimization of the real space projectors (new method)

 maximal supplied QI-value         = 16.25
 optimisation between [QCUT,QGAM] = [ 11.38, 22.75] = [ 36.24,144.96] Ry 
 Optimized for a Real-space Cutoff    1.47 Angstroem

   l    n(q)    QCUT    max X(q) W(low)/X(q) W(high)/X(q)  e(spline) 
   2      9    11.376    60.317    0.17E-03    0.16E-04    0.16E-06
   2      9    11.376    55.921    0.17E-03    0.16E-04    0.17E-06
   0     10    11.376    51.690    0.45E-04    0.60E-04    0.21E-06
   0     10    11.376    30.015    0.37E-04    0.55E-04    0.19E-06
   1     10    11.376    18.849    0.83E-04    0.11E-03    0.92E-07
   1     10    11.376    14.624    0.69E-04    0.92E-04    0.82E-07
 Optimization of the real space projectors (new method)

 maximal supplied QI-value         = 22.11
 optimisation between [QCUT,QGAM] = [ 11.28, 22.77] = [ 35.61,145.23] Ry 
 Optimized for a Real-space Cutoff    1.10 Angstroem

   l    n(q)    QCUT    max X(q) W(low)/X(q) W(high)/X(q)  e(spline) 
   0      7    11.276    10.506    0.54E-04    0.58E-04    0.16E-07
   0      7    11.276     8.367    0.11E-03    0.14E-03    0.35E-07
   1      7    11.276     8.983    0.23E-03    0.43E-03    0.86E-07
 Optimization of the real space projectors (new method)

 maximal supplied QI-value         = 24.76
 optimisation between [QCUT,QGAM] = [ 11.39, 22.77] = [ 36.31,145.25] Ry 
 Optimized for a Real-space Cutoff    1.10 Angstroem

   l    n(q)    QCUT    max X(q) W(low)/X(q) W(high)/X(q)  e(spline) 
   0      7    11.387    20.381    0.22E-03    0.48E-03    0.18E-06
   0      7    11.387    15.268    0.22E-03    0.52E-03    0.19E-06
   1      7    11.387     5.964    0.22E-03    0.73E-03    0.24E-06
   1      7    11.387     5.382    0.19E-03    0.60E-03    0.21E-06

 ----------------------------------------------------------------------------- 
|                                                                             |
|  ADVICE TO THIS USER RUNNING 'VASP/VAMP'   (HEAR YOUR MASTER'S VOICE ...):  |
|                                                                             |
|      You enforced a specific xc-type in the INCAR file,                     |
|      a different type was found on the POTCAR file                          |
|          I HOPE YOU KNOW, WHAT YOU ARE  DOING                               |
|                                                                             |
 ----------------------------------------------------------------------------- 

  PAW_PBE Ta_pv 07Sep2000               :
 energy of atom  1       EATOM=-1047.1984
 kinetic energy error for atom=    0.0019 (will be added to EATOM!!)
  PAW_PBE Ni 02Aug2007                  :
 energy of atom  2       EATOM=-1077.6739
 kinetic energy error for atom=    0.0030 (will be added to EATOM!!)
  PAW_PBE Li_sv 10Sep2004               :
 energy of atom  3       EATOM= -202.7858
 kinetic energy error for atom=    0.0143 (will be added to EATOM!!)
  PAW_PBE O 08Apr2002                   :
 energy of atom  4       EATOM= -432.3788
 kinetic energy error for atom=    0.0224 (will be added to EATOM!!)
 
 
 POSCAR: ce425831_1                              
  positions in direct lattice
  No initial velocities read in
 exchange correlation table for  LEXCH =       14
   RHO(1)=    0.500       N(1)  =     2000
   RHO(2)=  100.500       N(2)  =     4000
 


--------------------------------------------------------------------------------------------------------


 ion  position               nearest neighbor table
   1  0.000  0.000  0.000-  72 2.00  93 2.00  60 2.00 105 2.00  57 2.00 108 2.00   6 2.89   9 2.89
                            12 2.89  20 2.89  15 2.89  25 2.89  30 3.00  53 3.00  47 3.00  36 3.00
   2  0.333  0.000  0.333-  69 2.00  84 2.00  90 2.00  66 2.00  63 2.00  87 2.00  12 2.89   9 2.89
                            20 2.89   6 2.89  15 2.89  25 2.89  45 3.00  35 3.00  42 3.00  32 3.00
   3  0.667  0.000  0.667-  96 2.00  81 2.00  75 2.00  99 2.00 102 2.00  78 2.00  20 2.89   6 2.89
                            12 2.89   9 2.89  25 2.89  15 2.89  38 3.00  48 3.00  41 3.00  51 3.00
   4  0.889  0.336  0.222-  56 1.94  77 1.94  59 1.95  71 1.95  80 1.95  74 1.95  39 2.82  21 2.88
                            26 2.88  10 2.89   7 2.89  16 2.89  13 2.89
   5  0.111  0.664  0.111-  55 1.94  64 1.94  58 1.95  94 1.95  61 1.95  79 1.95  32 2.82  11 2.88
                            27 2.88  22 2.89  14 2.89  17 2.89   8 2.89
   6  0.333  0.000  0.000-  60 2.05  99 2.05  93 2.05  96 2.05  63 2.05  66 2.05   1 2.89   3 2.89
                            15 2.89  20 2.89   2 2.89   9 2.89
   7  0.222  0.336  0.222-  86 1.94  59 1.94  83 1.95  65 1.95  80 1.95  62 1.95  30 2.82  10 2.88
                            18 2.88   4 2.89  23 2.89  21 2.89  16 2.89
   8  0.444  0.664  0.112-  85 1.94 100 1.94  70 1.95  64 1.95  67 1.95  61 1.95  50 2.82  17 2.88
                            19 2.88  11 2.89  24 2.89  22 2.89   5 2.89
   9  0.667  0.000  0.000- 105 2.05  66 2.05  72 2.05  69 2.05 102 2.05  99 2.05   1 2.89   2 2.89
                            25 2.89  12 2.89   3 2.89   6 2.89
  10  0.555  0.336  0.222-  86 1.94  71 1.94  65 1.95  89 1.95  74 1.95  68 1.95  36 2.82   7 2.88
                            18 2.88   4 2.89  26 2.89  13 2.89  23 2.89
  11  0.778  0.664  0.111-  55 1.94  70 1.94  58 1.95 106 1.95  67 1.95  73 1.95  35 2.82   5 2.88
                            27 2.88   8 2.89  19 2.89  24 2.89  14 2.89
  12  0.667  0.000  0.333-  90 2.05  57 2.05  69 2.05  78 2.05  72 2.05  75 2.05   2 2.89  15 2.89
                             1 2.89   9 2.89   3 2.89  20 2.89
  13  0.556  0.336  0.556-  98 1.94  89 1.94  95 1.95  77 1.95  92 1.95  74 1.95  45 2.82  16 2.88
                            23 2.88  18 2.89  21 2.89  10 2.89   4 2.89
  14  0.778  0.664  0.445-  97 1.94  58 1.94  82 1.95  76 1.95  73 1.95  79 1.95  29 2.82  22 2.88
                            24 2.88  19 2.89   5 2.89  11 2.89  17 2.89
  15  0.000  0.000  0.333-  63 2.05  78 2.05  57 2.05  60 2.05  84 2.05  81 2.05  12 2.89   6 2.89
                             1 2.89   2 2.89   3 2.89  25 2.89
  16  0.888  0.336  0.556-  98 1.94  83 1.94  77 1.95 101 1.95 104 1.95  80 1.95  42 2.82  13 2.88
                            23 2.88  26 2.89   4 2.89  18 2.89   7 2.89
  17  0.112  0.664  0.444-  85 1.94  82 1.94  88 1.95  64 1.95  79 1.95 103 1.95  41 2.82  19 2.88
                             8 2.88   5 2.89  27 2.89  14 2.89  24 2.89
  18  0.222  0.336  0.555-  86 1.94 107 1.94  83 1.95  89 1.95  92 1.95 104 1.95  54 2.82  10 2.88
                             7 2.88  13 2.89  26 2.89  21 2.89  16 2.89
  19  0.444  0.664  0.444-  85 1.94  76 1.94  70 1.95  88 1.95  73 1.95  91 1.95  38 2.82  17 2.88
                             8 2.88  14 2.89  11 2.89  22 2.89  27 2.89
  20  0.333  0.000  0.667-  75 2.05 108 2.05  96 2.05  87 2.05  93 2.05  90 2.05   3 2.89  25 2.89
                             1 2.89   6 2.89   2 2.89  12 2.89
  21  0.222  0.336  0.889-  56 1.94  95 1.94 107 1.95  59 1.95  62 1.95  92 1.95  48 2.82  26 2.88
                             4 2.88  23 2.89  13 2.89   7 2.89  18 2.89
  22  0.445  0.664  0.778-  97 1.94  94 1.94 100 1.95  76 1.95  91 1.95  61 1.95  47 2.82  24 2.88
                            14 2.88  27 2.89   5 2.89  19 2.89   8 2.89
  23  0.556  0.336  0.888-  98 1.94  65 1.94  95 1.95 101 1.95  62 1.95  68 1.95  33 2.82  16 2.88
                            13 2.88  21 2.89   7 2.89  10 2.89  26 2.89
  24  0.778  0.664  0.778-  97 1.94 106 1.94  82 1.95 100 1.95 103 1.95  67 1.95  53 2.82  22 2.88
                            14 2.88  27 2.89   8 2.89  11 2.89  17 2.89
  25  0.000  0.000  0.667- 102 2.05  87 2.05 108 2.05 105 2.05  81 2.05  84 2.05  20 2.89   9 2.89
                             1 2.89   3 2.89   2 2.89  15 2.89
  26  0.889  0.336  0.889-  56 1.94 101 1.94 107 1.95  71 1.95  68 1.95 104 1.95  51 2.82  21 2.88
                             4 2.88  10 2.89  18 2.89  16 2.89  23 2.89
  27  0.111  0.664  0.778-  55 1.94  88 1.94 106 1.95  94 1.95 103 1.95  91 1.95  44 2.82  11 2.88
                             5 2.88  22 2.89  24 2.89  17 2.89  19 2.89
  28  0.000  0.500  0.000-  71 2.13  94 2.13  58 2.13 107 2.13 106 2.13  59 2.13
  29  0.884  0.827  0.232-  78 2.07  79 2.09  73 2.09  60 2.11  72 2.11  55 2.19  14 2.82   1 3.00

  30  0.116  0.173  0.116-  63 2.07  62 2.09  80 2.09  57 2.11  93 2.11  56 2.19   7 2.82   1 3.00

  31  0.333  0.500  0.000- 100 2.11  59 2.11  95 2.11  64 2.11  94 2.11  65 2.11
  32  0.217  0.827  0.217-  60 2.07  79 2.09  61 2.09  84 2.11  66 2.11  85 2.19   5 2.82   2 3.00

  33  0.449  0.173  0.101-  99 2.07  68 2.09  62 2.09  63 2.11  69 2.11  86 2.19  23 2.82   2 3.00

  34  0.667  0.500  0.000-  65 2.11 106 2.11  70 2.11 101 2.11  71 2.11 100 2.11
  35  0.565  0.827  0.217-  72 2.07  73 2.09  67 2.09  90 2.11  66 2.11  85 2.19  11 2.82   2 3.00

  36  0.768  0.173  0.116-  69 2.07  68 2.09  74 2.09 105 2.11  57 2.11  56 2.19  10 2.82   1 3.00

  37  0.667  0.500  0.333-  58 2.11  89 2.11  71 2.11  77 2.11  70 2.11  76 2.11
  38  0.551  0.827  0.551-  90 2.07  91 2.09  73 2.09  96 2.11  78 2.11  97 2.19  19 2.82   3 3.00

  39  0.783  0.173  0.435-  57 2.07  74 2.09  80 2.09  75 2.11  81 2.11  98 2.19   4 2.82   3 3.00

  40  0.000  0.500  0.333-  77 2.11  64 2.11  59 2.11  58 2.11  82 2.11  83 2.11
  41  0.899  0.827  0.551-  84 2.07 103 2.09  79 2.09 102 2.11  78 2.11  97 2.19  17 2.82   3 3.00

  42  0.101  0.173  0.449-  81 2.07  80 2.09 104 2.09  63 2.11  87 2.11  86 2.19  16 2.82   2 3.00

  43  0.333  0.500  0.333-  70 2.13  83 2.13  65 2.13  89 2.13  88 2.13  64 2.13
  44  0.217  0.827  0.565- 108 2.07  91 2.09 103 2.09  90 2.11  84 2.11  85 2.19  27 2.82   2 3.00

  45  0.449  0.173  0.449-  75 2.07  74 2.09  92 2.09  69 2.11  87 2.11  86 2.19  13 2.82   2 3.00

  46  0.333  0.500  0.667- 107 2.11  76 2.11  94 2.11  88 2.11  95 2.11  89 2.11
  47  0.232  0.827  0.884-  96 2.07  61 2.09  91 2.09  60 2.11 108 2.11  55 2.19  22 2.82   1 3.00

  48  0.435  0.173  0.783-  93 2.07  92 2.09  62 2.09  75 2.11  99 2.11  98 2.19  21 2.82   3 3.00

  49  0.667  0.500  0.667-  95 2.13  82 2.13 100 2.13  76 2.13  77 2.13 101 2.13
  50  0.551  0.827  0.899-  66 2.07  61 2.09  67 2.09 102 2.11  96 2.11  97 2.19   8 2.82   3 3.00

  51  0.783  0.173  0.783- 105 2.07 104 2.09  68 2.09  81 2.11  99 2.11  98 2.19  26 2.82   3 3.00

  52  0.000  0.500  0.667-  88 2.11 101 2.11 106 2.11 107 2.11  83 2.11  82 2.11
  53  0.884  0.827  0.884- 102 2.07  67 2.09 103 2.09 108 2.11  72 2.11  55 2.19  24 2.82   1 3.00

  54  0.116  0.173  0.768-  87 2.07 104 2.09  92 2.09 105 2.11  93 2.11  56 2.19  18 2.82   1 3.00

  55  0.000  0.734  0.000-   5 1.94  11 1.94  27 1.94  53 2.19  47 2.19  29 2.19
  56  0.000  0.266  0.000-  26 1.94  21 1.94   4 1.94  30 2.19  36 2.19  54 2.19
  57  0.891  0.083  0.217-   1 2.00  12 2.05  15 2.05  39 2.07  30 2.11  36 2.11
  58  0.888  0.592  0.224-  14 1.94   5 1.95  11 1.95  37 2.11  40 2.11  28 2.13
  59  0.112  0.408  0.112-   7 1.94   4 1.95  21 1.95  31 2.11  40 2.11  28 2.13
  60  0.109  0.917  0.109-   1 2.00   6 2.05  15 2.05  32 2.07  29 2.11  47 2.11
  61  0.333  0.735  0.000-   5 1.95   8 1.95  22 1.95  47 2.09  50 2.09  32 2.09
  62  0.333  0.265  0.000-  21 1.95  23 1.95   7 1.95  30 2.09  33 2.09  48 2.09
  63  0.225  0.083  0.225-   2 2.00  15 2.05   6 2.05  30 2.07  42 2.11  33 2.11
  64  0.221  0.592  0.221-   5 1.94  17 1.95   8 1.95  40 2.11  31 2.11  43 2.13
  65  0.445  0.408  0.110-  23 1.94  10 1.95   7 1.95  34 2.11  31 2.11  43 2.13
  66  0.442  0.917  0.116-   2 2.00   9 2.05   6 2.05  50 2.07  32 2.11  35 2.11
  67  0.667  0.735  0.000-  11 1.95   8 1.95  24 1.95  53 2.09  50 2.09  35 2.09
  68  0.667  0.265  0.000-  26 1.95  23 1.95  10 1.95  36 2.09  33 2.09  51 2.09
  69  0.550  0.083  0.225-   2 2.00  12 2.05   9 2.05  36 2.07  45 2.11  33 2.11
  70  0.557  0.592  0.221-  11 1.94   8 1.95  19 1.95  34 2.11  37 2.11  43 2.13
  71  0.776  0.408  0.112-  10 1.94   4 1.95  26 1.95  37 2.11  34 2.11  28 2.13
  72  0.783  0.917  0.109-   1 2.00   9 2.05  12 2.05  35 2.07  53 2.11  29 2.11
  73  0.667  0.735  0.333-  14 1.95  19 1.95  11 1.95  35 2.09  29 2.09  38 2.09
  74  0.667  0.265  0.333-  10 1.95   4 1.95  13 1.95  39 2.09  45 2.09  36 2.09
  75  0.558  0.083  0.558-   3 2.00  20 2.05  12 2.05  45 2.07  48 2.11  39 2.11
  76  0.555  0.592  0.555-  19 1.94  22 1.95  14 1.95  46 2.11  37 2.11  49 2.13
  77  0.779  0.408  0.443-   4 1.94  16 1.95  13 1.95  40 2.11  37 2.11  49 2.13
  78  0.775  0.917  0.450-   3 2.00  15 2.05  12 2.05  29 2.07  38 2.11  41 2.11
  79  0.000  0.735  0.333-  14 1.95  17 1.95   5 1.95  29 2.09  32 2.09  41 2.09
  80  0.000  0.265  0.333-   4 1.95   7 1.95  16 1.95  39 2.09  42 2.09  30 2.09
  81  0.884  0.083  0.558-   3 2.00  25 2.05  15 2.05  42 2.07  51 2.11  39 2.11
  82  0.890  0.592  0.555-  17 1.94  14 1.95  24 1.95  40 2.11  52 2.11  49 2.13
  83  0.110  0.408  0.445-  16 1.94  18 1.95   7 1.95  52 2.11  40 2.11  43 2.13
  84  0.116  0.917  0.442-   2 2.00  15 2.05  25 2.05  41 2.07  32 2.11  44 2.11
  85  0.333  0.734  0.333-  19 1.94  17 1.94   8 1.94  35 2.19  32 2.19  44 2.19
  86  0.333  0.266  0.333-  10 1.94   7 1.94  18 1.94  45 2.19  42 2.19  33 2.19
  87  0.225  0.083  0.550-   2 2.00  25 2.05  20 2.05  54 2.07  45 2.11  42 2.11
  88  0.221  0.592  0.557-  27 1.94  17 1.95  19 1.95  52 2.11  46 2.11  43 2.13
  89  0.445  0.408  0.445-  13 1.94  10 1.95  18 1.95  37 2.11  46 2.11  43 2.13
  90  0.442  0.917  0.442-   2 2.00  12 2.05  20 2.05  38 2.07  35 2.11  44 2.11
  91  0.333  0.735  0.667-  22 1.95  27 1.95  19 1.95  44 2.09  38 2.09  47 2.09
  92  0.333  0.265  0.667-  18 1.95  13 1.95  21 1.95  48 2.09  54 2.09  45 2.09
  93  0.217  0.083  0.891-   1 2.00   6 2.05  20 2.05  48 2.07  30 2.11  54 2.11
  94  0.224  0.592  0.888-  22 1.94  27 1.95   5 1.95  46 2.11  31 2.11  28 2.13
  95  0.443  0.408  0.779-  21 1.94  23 1.95  13 1.95  31 2.11  46 2.11  49 2.13
  96  0.450  0.917  0.775-   3 2.00  20 2.05   6 2.05  47 2.07  38 2.11  50 2.11
  97  0.667  0.734  0.667-  22 1.94  24 1.94  14 1.94  38 2.19  41 2.19  50 2.19
  98  0.667  0.266  0.667-  13 1.94  16 1.94  23 1.94  48 2.19  51 2.19  39 2.19
  99  0.558  0.083  0.884-   3 2.00   6 2.05   9 2.05  33 2.07  51 2.11  48 2.11
 100  0.555  0.592  0.890-   8 1.94  22 1.95  24 1.95  31 2.11  34 2.11  49 2.13
 101  0.779  0.408  0.779-  26 1.94  16 1.95  23 1.95  52 2.11  34 2.11  49 2.13
 102  0.775  0.917  0.775-   3 2.00  25 2.05   9 2.05  53 2.07  41 2.11  50 2.11
 103  0.000  0.735  0.667-  27 1.95  24 1.95  17 1.95  44 2.09  41 2.09  53 2.09
 104  0.000  0.265  0.667-  18 1.95  16 1.95  26 1.95  54 2.09  51 2.09  42 2.09
 105  0.891  0.083  0.891-   1 2.00   9 2.05  25 2.05  51 2.07  54 2.11  36 2.11
 106  0.888  0.592  0.888-  24 1.94  27 1.95  11 1.95  34 2.11  52 2.11  28 2.13
 107  0.112  0.408  0.776-  18 1.94  26 1.95  21 1.95  46 2.11  52 2.11  28 2.13
 108  0.109  0.917  0.783-   1 2.00  20 2.05  25 2.05  44 2.07  53 2.11  47 2.11
 
  LATTYP: Found a hexagonal cell.
 ALAT       =     8.6569399582
 C/A-ratio  =     1.6354722558
  
  Lattice vectors:
  
 A1 = (   4.3284699950,   0.0000000000,   7.4971299137)
 A2 = (  -8.6569398932,   0.0000000000,   0.0000000000)
 A3 = (   0.0000000000, -14.1581851219,   0.0000000000)


Analysis of symmetry for initial positions (statically):
=====================================================================
 Subroutine PRICEL returns following result:
 
  LATTYP: Found a hexagonal cell.
 ALAT       =     4.9980866715
 C/A-ratio  =     2.8327210095
  
  Lattice vectors:
  
 A1 = (   4.3284700170,   0.0000000000,  -2.4990433545)
 A2 = (  -0.0000000110,   0.0000000000,   4.9980866341)
 A3 = (   0.0000000000, -14.1581851219,   0.0000000000)
 
   3 primitive cells build up your supercell.
 

 Routine SETGRP: Setting up the symmetry group for a 
 hexagonal supercell.


 Subroutine GETGRP returns: Found 12 space group operations
 (whereof 12 operations were pure point group operations)
 out of a pool of 24 trial point group operations.


The static configuration has the point symmetry D_3d.


Analysis of symmetry for dynamics (positions and initial velocities):
=====================================================================
 Subroutine PRICEL returns following result:
 
  LATTYP: Found a hexagonal cell.
 ALAT       =     4.9980866715
 C/A-ratio  =     2.8327210095
  
  Lattice vectors:
  
 A1 = (   4.3284700170,   0.0000000000,  -2.4990433545)
 A2 = (  -0.0000000110,   0.0000000000,   4.9980866341)
 A3 = (   0.0000000000, -14.1581851219,   0.0000000000)
 
   3 primitive cells build up your supercell.
 

 Routine SETGRP: Setting up the symmetry group for a 
 hexagonal supercell.


 Subroutine GETGRP returns: Found 12 space group operations
 (whereof 12 operations were pure point group operations)
 out of a pool of 24 trial point group operations.


The dynamic configuration has the point symmetry D_3d.


Analysis of structural, dynamic, and magnetic symmetry:
=====================================================================
 Subroutine PRICEL returns following result:
 
  LATTYP: Found a hexagonal cell.
 ALAT       =     4.9980866715
 C/A-ratio  =     2.8327210095
  
  Lattice vectors:
  
 A1 = (   4.3284700170,   0.0000000000,  -2.4990433545)
 A2 = (  -0.0000000110,   0.0000000000,   4.9980866341)
 A3 = (   0.0000000000, -14.1581851219,   0.0000000000)
 
   3 primitive cells build up your supercell.
 

 Routine SETGRP: Setting up the symmetry group for a 
 hexagonal supercell.


 Subroutine GETGRP returns: Found 12 space group operations
 (whereof 12 operations were pure point group operations)
 out of a pool of 24 trial point group operations.


The magnetic configuration has the point symmetry D_3d.


 Subroutine INISYM returns: Found 12 space group operations
 (whereof 12 operations are pure point group operations),
 and found     3 'primitive' translations

 
 
 KPOINTS: Automatic mesh                          

Automatic generation of k-mesh.
Space group operators:
 irot       det(A)        alpha          n_x          n_y          n_z        tau_x        tau_y        tau_z
    1     1.000000     0.000000     1.000000     0.000000     0.000000     0.000000     0.000000     0.000000
    2    -1.000000     0.000000     1.000000     0.000000     0.000000     0.000000     0.000000     0.000000
    3     1.000000   120.000000     0.000000     1.000000     0.000000     0.000000     0.000000     0.000000
    4    -1.000000   120.000000     0.000000     1.000000     0.000000     0.000000     0.000000     0.000000
    5     1.000000   120.000000     0.000000    -1.000000     0.000000     0.000000     0.000000     0.000000
    6    -1.000000   120.000000     0.000000    -1.000000     0.000000     0.000000     0.000000     0.000000
    7     1.000000   180.000000    -0.500000     0.000000    -0.866025     0.000000     0.000000     0.000000
    8    -1.000000   180.000000    -0.500000     0.000000    -0.866025     0.000000     0.000000     0.000000
    9     1.000000   180.000000     1.000000     0.000000    -0.000000     0.000000     0.000000     0.000000
   10    -1.000000   180.000000     1.000000     0.000000    -0.000000     0.000000     0.000000     0.000000
   11     1.000000   180.000000     0.500000     0.000000    -0.866025     0.000000     0.000000     0.000000
   12    -1.000000   180.000000     0.500000     0.000000    -0.866025     0.000000     0.000000     0.000000
 
 Subroutine IBZKPT returns following result:
 ===========================================
 
 Found      1 irreducible k-points:
 
 Following reciprocal coordinates:
            Coordinates               Weight
  0.000000  0.000000  0.000000      1.000000
 
 Following cartesian coordinates:
            Coordinates               Weight
  0.000000  0.000000  0.000000      1.000000
 


--------------------------------------------------------------------------------------------------------




 Dimension of arrays:
   k-points           NKPTS =      1   k-points in BZ     NKDIM =      1   number of bands    NBANDS=    448
   number of dos      NEDOS =    301   number of ions     NIONS =    108
   non local maximal  LDIM  =      6   non local SUM 2l+1 LMDIM =     18
   total plane-waves  NPLWV = 442368
   max r-space proj   IRMAX =   8483   max aug-charges    IRDMAX=  27242
   dimension x,y,z NGX =    64 NGY =  108 NGZ =   64
   dimension x,y,z NGXF=   128 NGYF=  216 NGZF=  128
   support grid    NGXF=   128 NGYF=  216 NGZF=  128
   ions per type =               3  24  27  54
   NGX,Y,Z   is equivalent  to a cutoff of  12.29, 12.68, 12.29 a.u.
   NGXF,Y,Z  is equivalent  to a cutoff of  24.58, 25.36, 24.58 a.u.

 SYSTEM =  unknown system                          
 POSCAR =  ce425831_1                              

 Startparameter for this run:
   NWRITE =      1    write-flag & timer
   PREC   = accura    normal or accurate (medium, high low for compatibility)
   ISTART =      0    job   : 0-new  1-cont  2-samecut
   ICHARG =      2    charge: 1-file 2-atom 10-const
   ISPIN  =      2    spin polarized calculation?
   LNONCOLLINEAR =      F non collinear calculations
   LSORBIT =      F    spin-orbit coupling
   INIWAV =      1    electr: 0-lowe 1-rand  2-diag
   LASPH  =      F    aspherical Exc in radial PAW
   METAGGA=      F    non-selfconsistent MetaGGA calc.

 Electronic Relaxation 1
   ENCUT  =  500.0 eV  36.75 Ry    6.06 a.u.  15.78 25.81 15.78*2*pi/ulx,y,z
   ENINI  =  500.0     initial cutoff
   ENAUG  =  628.9 eV  augmentation charge cutoff
   NELM   =     80;   NELMIN=  2; NELMDL= -5     # of ELM steps 
   EDIFF  = 0.1E-04   stopping-criterion for ELM
   LREAL  =      T    real-space projection
   NLSPLINE    = F    spline interpolate recip. space projectors
   LCOMPAT=      F    compatible to vasp.4.4
   GGA_COMPAT  = T    GGA compatible to vasp.4.4-vasp.4.6
   LMAXPAW     = -100 max onsite density
   LMAXMIX     =    2 max onsite mixed and CHGCAR
   VOSKOWN=      1    Vosko Wilk Nusair interpolation
   ROPT   =   -0.00025  -0.00025  -0.00025  -0.00025
 Ionic relaxation
   EDIFFG = -.2E-01   stopping-criterion for IOM
   NSW    =     20    number of steps for IOM
   NBLOCK =      1;   KBLOCK =     20    inner block; outer block 
   IBRION =      1    ionic relax: 0-MD 1-quasi-New 2-CG
   NFREE  =      0    steps in history (QN), initial steepest desc. (CG)
   ISIF   =      3    stress and relaxation
   IWAVPR =     11    prediction:  0-non 1-charg 2-wave 3-comb
   ISYM   =      2    0-nonsym 1-usesym 2-fastsym
   LCORR  =      T    Harris-Foulkes like correction to forces

   POTIM  = 0.5000    time-step for ionic-motion
   TEIN   =    0.0    initial temperature
   TEBEG  =    0.0;   TEEND  =   0.0 temperature during run
   SMASS  =  -3.00    Nose mass-parameter (am)
   estimated Nose-frequenzy (Omega)   =  0.10E-29 period in steps =****** mass=  -0.171E-26a.u.
   SCALEE = 1.0000    scale energy and forces
   NPACO  =    256;   APACO  = 16.0  distance and # of slots for P.C.
   PSTRESS=    0.0 pullay stress

  Mass of Ions in am
   POMASS = 180.95 58.69  7.01 16.00
  Ionic Valenz
   ZVAL   =  11.00 10.00  3.00  6.00
  Atomic Wigner-Seitz radii
   RWIGS  =   1.34  1.15  1.23  0.73
  virtual crystal weights 
   VCA    =   1.00  1.00  1.00  1.00
   NELECT =     678.0000    total number of electrons
   NUPDOWN=      -1.0000    fix difference up-down

 DOS related values:
   EMIN   =  10.00;   EMAX   =-10.00  energy-range for DOS
   EFERMI =   0.00
   ISMEAR =     0;   SIGMA  =   0.05  broadening in eV -4-tet -1-fermi 0-gaus

 Electronic relaxation 2 (details)
   IALGO  =     38    algorithm
   LDIAG  =      T    sub-space diagonalisation (order eigenvalues)
   LSUBROT=      F    optimize rotation matrix (better conditioning)
   TURBO    =      0    0=normal 1=particle mesh
   IRESTART =      0    0=no restart 2=restart with 2 vectors
   NREBOOT  =      0    no. of reboots
   NMIN     =      0    reboot dimension
   EREF     =   0.00    reference energy to select bands
   IMIX   =      4    mixing-type and parameters
     AMIX     =   0.40;   BMIX     =  1.00
     AMIX_MAG =   1.60;   BMIX_MAG =  1.00
     AMIN     =   0.10
     WC   =   100.;   INIMIX=   1;  MIXPRE=   1;  MAXMIX= -45

 Intra band minimization:
   WEIMIN = 0.0010     energy-eigenvalue tresh-hold
   EBREAK =  0.56E-08  absolut break condition
   DEPER  =   0.30     relativ break condition  

   TIME   =   0.40     timestep for ELM

  volume/ion in A,a.u.               =       8.51        57.42
  Fermi-wavevector in a.u.,A,eV,Ry     =   1.479321  2.795511 29.774857  2.188390
  Thomas-Fermi vector in A             =   2.593493
 
 Write flags
   LWAVE        =      F    write WAVECAR
   LDOWNSAMPLE  =      F    k-point downsampling of WAVECAR
   LCHARG       =      T    write CHGCAR
   LVTOT        =      F    write LOCPOT, total local potential
   LVHAR        =      F    write LOCPOT, Hartree potential only
   LELF         =      F    write electronic localiz. function (ELF)
   LORBIT       =      0    0 simple, 1 ext, 2 COOP (PROOUT), +10 PAW based schemes


 Dipole corrections
   LMONO  =      F    monopole corrections only (constant potential shift)
   LDIPOL =      F    correct potential (dipole corrections)
   IDIPOL =      0    1-x, 2-y, 3-z, 4-all directions 
   EPSILON=  1.0000000 bulk dielectric constant

 Exchange correlation treatment:
   GGA     =    PS    GGA type
   LEXCH   =    14    internal setting for exchange type
   VOSKOWN=      1    Vosko Wilk Nusair interpolation
   LHFCALC =     F    Hartree Fock is set to
   LHFONE  =     F    Hartree Fock one center treatment
   AEXX    =    0.0000 exact exchange contribution

 Linear response parameters
   LEPSILON=     F    determine dielectric tensor
   LRPA    =     F    only Hartree local field effects (RPA)
   LNABLA  =     F    use nabla operator in PAW spheres
   LVEL    =     F    velocity operator in full k-point grid
   LINTERFAST=   F  fast interpolation
   KINTER  =     0    interpolate to denser k-point grid
   CSHIFT  =0.1000    complex shift for real part using Kramers Kronig
   OMEGAMAX=  -1.0    maximum frequency
   DEG_THRESHOLD= 0.2000000E-02 threshold for treating states as degnerate
   RTIME   =   -0.100 relaxation time in fs
  (WPLASMAI=    0.000 imaginary part of plasma frequency in eV, 0.658/RTIME)
   DFIELD  = 0.0000000 0.0000000 0.0000000 field for delta impulse in time
 
 Orbital magnetization related:
   ORBITALMAG=     F  switch on orbital magnetization
   LCHIMAG   =     F  perturbation theory with respect to B field
   DQ        =  0.001000  dq finite difference perturbation B field
   LLRAUG    =     F  two centre corrections for induced B field



--------------------------------------------------------------------------------------------------------


 quasi-Newton-method for relaxation of ions
 charge density and potential will be updated during run
 spin polarized calculation
 Variant of blocked Davidson
 Davidson routine will perform the subspace rotation
 perform sub-space diagonalisation
    after iterative eigenvector-optimisation
 modified Broyden-mixing scheme, WC =      100.0
 initial mixing is a Kerker type mixing with AMIX =  0.4000 and BMIX =      1.0000
 Hartree-type preconditioning will be used
 using additional bands          109
 real space projection scheme for non local part
 use partial core corrections
 calculate Harris-corrections to forces 
   (improved forces if not selfconsistent)
 use gradient corrections 
 use of overlap-Matrix (Vanderbilt PP)
 Gauss-broadening in eV      SIGMA  =   0.05


--------------------------------------------------------------------------------------------------------


  energy-cutoff  :      500.00
  volume of cell :      918.90
      direct lattice vectors                 reciprocal lattice vectors
     8.656939893  0.000000000  0.000000000     0.115514259  0.000000000 -0.066692189
     0.000000000 14.158185122  0.000000000     0.000000000  0.070630522  0.000000000
     4.328469995  0.000000000  7.497129914     0.000000000  0.000000000  0.133384377

  length of vectors
     8.656939893 14.158185122  8.656939958     0.133384378  0.070630522  0.133384377


 
 k-points in units of 2pi/SCALE and weight: Automatic mesh                          
   0.00000000  0.00000000  0.00000000       1.000
 
 k-points in reciprocal lattice and weights: Automatic mesh                          
   0.00000000  0.00000000  0.00000000       1.000
 
 position of ions in fractional coordinates (direct lattice) 
   0.00000000  0.00000000  0.00000000
   0.33333334  0.00000000  0.33333333
   0.66666666  0.00000000  0.66666667
   0.88914461  0.33647862  0.22171079
   0.11085539  0.66352138  0.11085539
   0.33333333  0.00000000  0.00000000
   0.22247794  0.33647862  0.22247794
   0.44418873  0.66352138  0.11162254
   0.66666667  0.00000000  0.00000000
   0.55504413  0.33647862  0.22247794
   0.77828921  0.66352138  0.11085539
   0.66666667  0.00000000  0.33333333
   0.55581127  0.33647862  0.55581128
   0.77752206  0.66352138  0.44495587
   0.00000000  0.00000000  0.33333333
   0.88837745  0.33647862  0.55581128
   0.11162255  0.66352138  0.44418872
   0.22247794  0.33647862  0.55504413
   0.44418873  0.66352138  0.44418872
   0.33333333  0.00000000  0.66666667
   0.22171079  0.33647862  0.88914461
   0.44495587  0.66352138  0.77752206
   0.55581127  0.33647862  0.88837746
   0.77752206  0.66352138  0.77752206
   0.00000000  0.00000000  0.66666667
   0.88914461  0.33647862  0.88914461
   0.11085539  0.66352138  0.77828921
   0.00000000  0.50000000  0.00000000
   0.88393026  0.82740288  0.23213949
   0.11606974  0.17259712  0.11606974
   0.33333333  0.50000000  0.00000000
   0.21726359  0.82740288  0.21726359
   0.44940308  0.17259712  0.10119384
   0.66666667  0.50000000  0.00000000
   0.56547283  0.82740288  0.21726359
   0.76786051  0.17259712  0.11606974
   0.66666667  0.50000000  0.33333333
   0.55059692  0.82740288  0.55059693
   0.78273641  0.17259712  0.43452717
   0.00000000  0.50000000  0.33333333
   0.89880615  0.82740288  0.55059693
   0.10119385  0.17259712  0.44940307
   0.33333334  0.50000000  0.33333333
   0.21726359  0.82740288  0.56547283
   0.44940308  0.17259712  0.44940307
   0.33333333  0.50000000  0.66666667
   0.23213949  0.82740288  0.88393026
   0.43452717  0.17259712  0.78273641
   0.66666666  0.50000000  0.66666667
   0.55059692  0.82740288  0.89880616
   0.78273641  0.17259712  0.78273641
   0.00000000  0.50000000  0.66666667
   0.88393026  0.82740288  0.88393026
   0.11606974  0.17259712  0.76786051
   0.00000000  0.73374574  0.00000000
   0.00000000  0.26625426  0.00000000
   0.89144099  0.08253546  0.21711802
   0.88808650  0.59245948  0.22382699
   0.11191350  0.40754052  0.11191350
   0.10855901  0.91746454  0.10855901
   0.33333333  0.73519549  0.00000000
   0.33333333  0.26480451  0.00000000
   0.22477432  0.08253546  0.22477432
   0.22141983  0.59245948  0.22141983
   0.44524684  0.40754052  0.10950634
   0.44189235  0.91746454  0.11621531
   0.66666667  0.73519549  0.00000000
   0.66666667  0.26480451  0.00000000
   0.55045136  0.08253546  0.22477432
   0.55716033  0.59245948  0.22141983
   0.77617301  0.40754052  0.11191350
   0.78288198  0.91746454  0.10855901
   0.66666667  0.73519549  0.33333333
   0.66666667  0.26480451  0.33333333
   0.55810765  0.08253546  0.55810766
   0.55475316  0.59245948  0.55475317
   0.77858017  0.40754052  0.44283967
   0.77522568  0.91746454  0.44954864
   0.00000000  0.73519549  0.33333333
   0.00000000  0.26480451  0.33333333
   0.88378468  0.08253546  0.55810766
   0.89049365  0.59245948  0.55475317
   0.10950635  0.40754052  0.44524683
   0.11621532  0.91746454  0.44189234
   0.33333334  0.73374574  0.33333333
   0.33333334  0.26625426  0.33333333
   0.22477432  0.08253546  0.55045136
   0.22141983  0.59245948  0.55716033
   0.44524684  0.40754052  0.44524683
   0.44189235  0.91746454  0.44189234
   0.33333333  0.73519549  0.66666667
   0.33333333  0.26480451  0.66666667
   0.21711802  0.08253546  0.89144099
   0.22382699  0.59245948  0.88808650
   0.44283967  0.40754052  0.77858017
   0.44954864  0.91746454  0.77522568
   0.66666666  0.73374574  0.66666667
   0.66666666  0.26625426  0.66666667
   0.55810765  0.08253546  0.88378469
   0.55475316  0.59245948  0.89049366
   0.77858017  0.40754052  0.77858017
   0.77522568  0.91746454  0.77522568
   0.00000000  0.73519549  0.66666667
   0.00000000  0.26480451  0.66666667
   0.89144099  0.08253546  0.89144099
   0.88808650  0.59245948  0.88808650
   0.11191350  0.40754052  0.77617301
   0.10855901  0.91746454  0.78288198
 
 position of ions in cartesian coordinates  (Angst):
   0.00000000  0.00000000  0.00000000
   4.32847001  0.00000000  2.49904328
   8.65693988  0.00000000  4.99808663
   8.65693995  4.76392659  1.66219460
   1.43950268  9.39425853  0.83109726
   2.88564660  0.00000000  0.00000000
   2.88896724  4.76392659  1.66794602
   4.32846995  9.39425853  0.83684868
   5.77129329  0.00000000  0.00000000
   5.76797276  4.76392659  1.66794602
   7.21743714  9.39425853  0.83109726
   7.21411661  0.00000000  2.49904328
   7.21743720  4.76392659  4.16698937
   8.65693987  9.39425853  3.33589196
   1.44282332  0.00000000  2.49904328
  10.09644264  4.76392659  4.16698937
   2.88896725  9.39425853  3.33014054
   4.32847002  4.76392659  4.16123795
   5.76797268  9.39425853  3.33014054
   5.77129328  0.00000000  4.99808663
   5.76797275  4.76392659  6.66603265
   7.21743713  9.39425853  5.82918389
   8.65693994  4.76392659  6.66028123
  10.09644265  9.39425853  5.82918389
   2.88564668  0.00000000  4.99808663
  11.54590721  4.76392659  6.66603265
   4.32846994  9.39425853  5.83493532
   0.00000000  7.07909256  0.00000000
   8.65693995 11.71452315  1.74037991
   1.50721315  2.44366198  0.87018992
   2.88564660  7.07909256  0.00000000
   2.82125677 11.71452315  1.62885336
   4.32846995  2.44366198  0.75866336
   5.77129329  7.07909256  0.00000000
   5.83568323 11.71452315  1.62885336
   7.14972667  2.44366198  0.87018992
   7.21411661  7.07909256  2.49904328
   7.14972673 11.71452315  4.12789671
   8.65693987  2.44366198  3.25770664
   1.44282332  7.07909256  2.49904328
  10.16415311 11.71452315  4.12789671
   2.82125678  2.44366198  3.36923320
   4.32847001  7.07909256  2.49904328
   4.32847002 11.71452315  4.23942327
   5.83568316  2.44366198  3.36923320
   5.77129328  7.07909256  4.99808663
   5.83568322 11.71452315  6.62693999
   7.14972666  2.44366198  5.86827655
   8.65693988  7.07909256  4.99808663
   8.65693994 11.71452315  6.73846655
  10.16415312  2.44366198  5.86827655
   2.88564668  7.07909256  4.99808663
  11.47819674 11.71452315  6.62693999
   4.32846994  2.44366198  5.75675000
   0.00000000 10.38850802  0.00000000
   0.00000000  3.76967710  0.00000000
   8.65693990  1.16855232  1.62776200
   8.65693986  8.38815100  1.67806002
   1.45324267  5.77003413  0.83903005
   1.40968324 12.98963280  0.81388100
   2.88564660 10.40903385  0.00000000
   2.88564660  3.74915127  0.00000000
   2.91878668  1.16855232  1.68516228
   2.87522725  8.38815100  1.66001323
   4.32847004  5.77003413  0.82098326
   4.32847000 12.98963280  0.87128128
   5.77129329 10.40903385  0.00000000
   5.77129329  3.74915127  0.00000000
   5.73815324  1.16855232  1.68516228
   5.78171258  8.38815100  1.66001323
   7.20369732  5.77003413  0.83903005
   7.24725666 12.98963280  0.81388100
   7.21411661 10.40903385  2.49904328
   7.21411661  3.74915127  2.49904328
   7.24725664  1.16855232  4.18420563
   7.20369721  8.38815100  4.15905659
   8.65693996  5.77003413  3.32002654
   8.65693991 12.98963280  3.37032456
   1.44282332 10.40903385  2.49904328
   1.44282332  3.74915127  2.49904328
  10.06662311  1.16855232  4.18420563
  10.11018245  8.38815100  4.15905659
   2.87522743  5.77003413  3.33807333
   2.91878677 12.98963280  3.31292428
   4.32847001 10.38850802  2.49904328
   4.32847001  3.76967710  2.49904328
   4.32846997  1.16855232  4.12680536
   4.32846993  8.38815100  4.17710338
   5.78171268  5.77003413  3.33807333
   5.73815325 12.98963280  3.31292428
   5.77129328 10.40903385  4.99808663
   5.77129328  3.74915127  4.99808663
   5.73815323  1.16855232  6.68324891
   5.78171257  8.38815100  6.65809987
   7.20369731  5.77003413  5.83711668
   7.24725665 12.98963280  5.81196764
   8.65693988 10.38850802  4.99808663
   8.65693988  3.76967710  4.99808663
   8.65693989  1.16855232  6.62584864
   8.65693985  8.38815100  6.67614666
  10.11018264  5.77003413  5.83711668
  10.06662321 12.98963280  5.81196764
   2.88564668 10.40903385  4.99808663
   2.88564668  3.74915127  4.99808663
  11.57572665  1.16855232  6.68324891
  11.53216722  8.38815100  6.65809987
   4.32847003  5.77003413  5.81906989
   4.32846998 12.98963280  5.86936791
 


--------------------------------------------------------------------------------------------------------


 use serial FFT for orbitals x direction half grid
 k-point  1 :   0.0000 0.0000 0.0000  plane waves:   11642

 maximum and minimum number of plane-waves per node :     11642    11642

 maximum number of plane-waves:     11642
 maximum index in each direction: 
   IXMAX=   15   IYMAX=   25   IZMAX=   15
   IXMIN=    0   IYMIN=  -25   IZMIN=  -13

 The following grids will avoid any aliasing or wrap around errors in the Hartre
 e energy
  - symmetry arguments have not been applied
  - exchange correlation energies might require even more grid points
  - we recommend to set PREC=Normal or Accurate and rely on VASP defaults
 NGX is ok and might be reduce to    64
 NGY is ok and might be reduce to   108
 NGZ is ok and might be reduce to    60

 serial   3D FFT for wavefunctions
 parallel 3D FFT for charge:
    minimum data exchange during FFTs selected (reduces bandwidth)


 total amount of memory used by VASP MPI-rank0   149698. kBytes
=======================================================================

   base      :      30000. kBytes
   nonlr-proj:      40630. kBytes
   fftplans  :       9349. kBytes
   grid      :      57131. kBytes
   one-center:       1679. kBytes
   wavefun   :      10909. kBytes
 
     INWAV:  cpu time    0.0000: real time    0.0000
 Broyden mixing: mesh for mixing (old mesh)
   NGX = 31   NGY = 51   NGZ = 31
  (NGX  =128   NGY  =216   NGZ  =128)
  gives a total of  49011 points

 initial charge density was supplied:
 charge density of overlapping atoms calculated
 number of electron     678.0000000 magnetization      60.0000000
 keeping initial charge density in first step


--------------------------------------------------------------------------------------------------------


 Maximum index for non-local projection operator         8203
 Maximum index for augmentation-charges         1695 (set IRDMAX)


--------------------------------------------------------------------------------------------------------


 First call to EWALD:  gamma=   0.182
 Maximum number of real-space cells 3x 2x 3
 Maximum number of reciprocal cells 2x 4x 2

    FEWALD:  cpu time    0.0048: real time    0.0048


--------------------------------------- Iteration      1(   1)  ---------------------------------------


    POTLOK:  cpu time    0.2996: real time    0.3017
    SETDIJ:  cpu time    0.0431: real time    0.0432
     EDDAV:  cpu time    6.5809: real time    6.6139
    --------------------------------------------
      LOOP:  cpu time    6.9242: real time    6.9595

 eigenvalue-minimisations  :  1856
 total energy-change (2. order) : 0.1193524E+05  (-0.3162864E+05)
 number of electron     678.0000000 magnetization      60.0000000
 augmentation part      678.0000000 magnetization      60.0000000

 Free energy of the ion-electron system (eV)
  ---------------------------------------------------
  alpha Z        PSCENC =      2440.03186422
  Ewald energy   TEWEN  =    -43196.07737578
  -Hartree energ DENC   =    -15604.04449550
  -exchange      EXHF   =         0.00000000
  -V(xc)+E(xc)   XCENC  =      2733.75413907
  PAW double counting   =     46387.42630235   -48432.06697305
  entropy T*S    EENTRO =        -0.00008387
  eigenvalues    EBANDS =      9930.71296617
  atomic energy  EATOM  =     57675.50407461
  Solvation  Ediel_sol  =         0.00000000
  ---------------------------------------------------
  free energy    TOTEN  =     11935.24041822 eV

  energy without entropy =    11935.24050209  energy(sigma->0) =    11935.24046016


--------------------------------------------------------------------------------------------------------




--------------------------------------- Iteration      1(   2)  ---------------------------------------


     EDDAV:  cpu time    6.6618: real time    6.6777
    --------------------------------------------
      LOOP:  cpu time    6.6616: real time    6.6774

 eigenvalue-minimisations  :  1888
 total energy-change (2. order) :-0.9944708E+04  (-0.9068870E+04)
 number of electron     678.0000000 magnetization      60.0000000
 augmentation part      678.0000000 magnetization      60.0000000

 Free energy of the ion-electron system (eV)
  ---------------------------------------------------
  alpha Z        PSCENC =      2440.03186422
  Ewald energy   TEWEN  =    -43196.07737578
  -Hartree energ DENC   =    -15604.04449550
  -exchange      EXHF   =         0.00000000
  -V(xc)+E(xc)   XCENC  =      2733.75413907
  PAW double counting   =     46387.42630235   -48432.06697305
  entropy T*S    EENTRO =        -0.00542673
  eigenvalues    EBANDS =       -13.98983772
  atomic energy  EATOM  =     57675.50407461
  Solvation  Ediel_sol  =         0.00000000
  ---------------------------------------------------
  free energy    TOTEN  =      1990.53227147 eV

  energy without entropy =     1990.53769821  energy(sigma->0) =     1990.53498484


--------------------------------------------------------------------------------------------------------




--------------------------------------- Iteration      1(   3)  ---------------------------------------


     EDDAV:  cpu time    6.9765: real time    6.9931
    --------------------------------------------
      LOOP:  cpu time    6.9765: real time    6.9931

 eigenvalue-minimisations  :  2000
 total energy-change (2. order) :-0.2435683E+04  (-0.2090319E+04)
 number of electron     678.0000000 magnetization      60.0000000
 augmentation part      678.0000000 magnetization      60.0000000

 Free energy of the ion-electron system (eV)
  ---------------------------------------------------
  alpha Z        PSCENC =      2440.03186422
  Ewald energy   TEWEN  =    -43196.07737578
  -Hartree energ DENC   =    -15604.04449550
  -exchange      EXHF   =         0.00000000
  -V(xc)+E(xc)   XCENC  =      2733.75413907
  PAW double counting   =     46387.42630235   -48432.06697305
  entropy T*S    EENTRO =        -0.11939602
  eigenvalues    EBANDS =     -2449.55844555
  atomic energy  EATOM  =     57675.50407461
  Solvation  Ediel_sol  =         0.00000000
  ---------------------------------------------------
  free energy    TOTEN  =      -445.15030564 eV

  energy without entropy =     -445.03090962  energy(sigma->0) =     -445.09060763


--------------------------------------------------------------------------------------------------------




--------------------------------------- Iteration      1(   4)  ---------------------------------------


     EDDAV:  cpu time    7.5384: real time    7.5563
    --------------------------------------------
      LOOP:  cpu time    7.5385: real time    7.5564

 eigenvalue-minimisations  :  2192
 total energy-change (2. order) :-0.3842083E+03  (-0.3714467E+03)
 number of electron     678.0000000 magnetization      60.0000000
 augmentation part      678.0000000 magnetization      60.0000000

 Free energy of the ion-electron system (eV)
  ---------------------------------------------------
  alpha Z        PSCENC =      2440.03186422
  Ewald energy   TEWEN  =    -43196.07737578
  -Hartree energ DENC   =    -15604.04449550
  -exchange      EXHF   =         0.00000000
  -V(xc)+E(xc)   XCENC  =      2733.75413907
  PAW double counting   =     46387.42630235   -48432.06697305
  entropy T*S    EENTRO =        -0.18990382
  eigenvalues    EBANDS =     -2833.69620205
  atomic energy  EATOM  =     57675.50407461
  Solvation  Ediel_sol  =         0.00000000
  ---------------------------------------------------
  free energy    TOTEN  =      -829.35856995 eV

  energy without entropy =     -829.16866613  energy(sigma->0) =     -829.26361804


--------------------------------------------------------------------------------------------------------




--------------------------------------- Iteration      1(   5)  ---------------------------------------


     EDDAV:  cpu time   10.1601: real time   10.1842
    CHARGE:  cpu time    0.5433: real time    0.5446
    MIXING:  cpu time    0.0054: real time    0.0054
    --------------------------------------------
      LOOP:  cpu time   10.7083: real time   10.7338

 eigenvalue-minimisations  :  3072
 total energy-change (2. order) :-0.2710971E+02  (-0.2684502E+02)
 number of electron     677.9999996 magnetization      61.5798027
 augmentation part      203.6494014 magnetization      46.3095028

 Broyden mixing:
  rms(total) = 0.12978E+02    rms(broyden)= 0.12976E+02
  rms(prec ) = 0.14323E+02
  weight for this iteration     100.00

 Free energy of the ion-electron system (eV)
  ---------------------------------------------------
  alpha Z        PSCENC =      2440.03186422
  Ewald energy   TEWEN  =    -43196.07737578
  -Hartree energ DENC   =    -15604.04449550
  -exchange      EXHF   =         0.00000000
  -V(xc)+E(xc)   XCENC  =      2733.75413907
  PAW double counting   =     46387.42630235   -48432.06697305
  entropy T*S    EENTRO =        -0.16769014
  eigenvalues    EBANDS =     -2860.82812945
  atomic energy  EATOM  =     57675.50407461
  Solvation  Ediel_sol  =         0.00000000
  ---------------------------------------------------
  free energy    TOTEN  =      -856.46828366 eV

  energy without entropy =     -856.30059353  energy(sigma->0) =     -856.38443860


--------------------------------------------------------------------------------------------------------




--------------------------------------- Iteration      1(   6)  ---------------------------------------


    POTLOK:  cpu time    0.2511: real time    0.2517
    SETDIJ:  cpu time    0.0396: real time    0.0397
     EDDAV:  cpu time    7.5973: real time    7.6152
    CHARGE:  cpu time    0.5215: real time    0.5227
    MIXING:  cpu time    0.0062: real time    0.0063
    --------------------------------------------
      LOOP:  cpu time    8.4157: real time    8.4356

 eigenvalue-minimisations  :  2800
 total energy-change (2. order) : 0.4422521E+02  (-0.1393328E+03)
 number of electron     677.9999996 magnetization      56.7694992
 augmentation part      243.8131586 magnetization      54.7958171

 Broyden mixing:
  rms(total) = 0.19064E+02    rms(broyden)= 0.19063E+02
  rms(prec ) = 0.20328E+02
  weight for this iteration     100.00

 eigenvalues of (default mixing * dielectric matrix)
  average eigenvalue GAMMA=   0.2744
  0.2744

 Free energy of the ion-electron system (eV)
  ---------------------------------------------------
  alpha Z        PSCENC =      2440.03186422
  Ewald energy   TEWEN  =    -43196.07737578
  -Hartree energ DENC   =    -15044.51865109
  -exchange      EXHF   =         0.00000000
  -V(xc)+E(xc)   XCENC  =      2761.30311791
  PAW double counting   =     52282.06542779   -54104.20719950
  entropy T*S    EENTRO =        -0.06597278
  eigenvalues    EBANDS =     -3626.27835584
  atomic energy  EATOM  =     57675.50407461
  Solvation  Ediel_sol  =         0.00000000
  ---------------------------------------------------
  free energy    TOTEN  =      -812.24307046 eV

  energy without entropy =     -812.17709768  energy(sigma->0) =     -812.21008407


--------------------------------------------------------------------------------------------------------




--------------------------------------- Iteration      1(   7)  ---------------------------------------


    POTLOK:  cpu time    0.2937: real time    0.2944
    SETDIJ:  cpu time    0.0439: real time    0.0440
     EDDAV:  cpu time    8.1418: real time    8.1611
    CHARGE:  cpu time    0.6078: real time    0.6092
    MIXING:  cpu time    0.0057: real time    0.0057
    --------------------------------------------
      LOOP:  cpu time    9.0929: real time    9.1144

 eigenvalue-minimisations  :  2512
 total energy-change (2. order) : 0.1218692E+03  (-0.3578272E+02)
 number of electron     677.9999996 magnetization      54.0242964
 augmentation part      220.3352927 magnetization      41.7000834

 Broyden mixing:
  rms(total) = 0.79528E+01    rms(broyden)= 0.79517E+01
  rms(prec ) = 0.96927E+01
  weight for this iteration     100.00

 eigenvalues of (default mixing * dielectric matrix)
  average eigenvalue GAMMA=   0.5375
  0.5375  0.5375

 Free energy of the ion-electron system (eV)
  ---------------------------------------------------
  alpha Z        PSCENC =      2440.03186422
  Ewald energy   TEWEN  =    -43196.07737578
  -Hartree energ DENC   =    -15322.42756919
  -exchange      EXHF   =         0.00000000
  -V(xc)+E(xc)   XCENC  =      2743.20401479
  PAW double counting   =     54705.72887502   -56712.86358128
  entropy T*S    EENTRO =        -0.12603664
  eigenvalues    EBANDS =     -3023.34818066
  atomic energy  EATOM  =     57675.50407461
  Solvation  Ediel_sol  =         0.00000000
  ---------------------------------------------------
  free energy    TOTEN  =      -690.37391490 eV

  energy without entropy =     -690.24787826  energy(sigma->0) =     -690.31089658


--------------------------------------------------------------------------------------------------------




--------------------------------------- Iteration      1(   8)  ---------------------------------------


    POTLOK:  cpu time    0.3002: real time    0.3009
    SETDIJ:  cpu time    0.0427: real time    0.0428
     EDDAV:  cpu time    8.3162: real time    8.3359
    CHARGE:  cpu time    0.5481: real time    0.5494
    MIXING:  cpu time    0.0059: real time    0.0059
    --------------------------------------------
      LOOP:  cpu time    9.2130: real time    9.2348

 eigenvalue-minimisations  :  2480
 total energy-change (2. order) :-0.9700597E+02  (-0.4921740E+02)
 number of electron     677.9999988 magnetization      47.9191189
 augmentation part      206.5398514 magnetization      43.6309412

 Broyden mixing:
  rms(total) = 0.11744E+02    rms(broyden)= 0.11743E+02
  rms(prec ) = 0.16249E+02
  weight for this iteration     100.00

 eigenvalues of (default mixing * dielectric matrix)
  average eigenvalue GAMMA=   0.6042
  1.2082  0.4309  0.1735

 Free energy of the ion-electron system (eV)
  ---------------------------------------------------
  alpha Z        PSCENC =      2440.03186422
  Ewald energy   TEWEN  =    -43196.07737578
  -Hartree energ DENC   =    -15322.09256029
  -exchange      EXHF   =         0.00000000
  -V(xc)+E(xc)   XCENC  =      2735.51134884
  PAW double counting   =     57126.35071804   -59189.88812994
  entropy T*S    EENTRO =        -0.16201109
  eigenvalues    EBANDS =     -3056.55781227
  atomic energy  EATOM  =     57675.50407461
  Solvation  Ediel_sol  =         0.00000000
  ---------------------------------------------------
  free energy    TOTEN  =      -787.37988365 eV

  energy without entropy =     -787.21787256  energy(sigma->0) =     -787.29887811


--------------------------------------------------------------------------------------------------------




--------------------------------------- Iteration      1(   9)  ---------------------------------------


    POTLOK:  cpu time    0.2894: real time    0.2901
    SETDIJ:  cpu time    0.0397: real time    0.0398
     EDDAV:  cpu time    8.4003: real time    8.4202
    CHARGE:  cpu time    0.5467: real time    0.5481
    MIXING:  cpu time    0.0058: real time    0.0058
    --------------------------------------------
      LOOP:  cpu time    9.2820: real time    9.3040

 eigenvalue-minimisations  :  2512
 total energy-change (2. order) : 0.6085815E+02  (-0.1910485E+02)
 number of electron     677.9999997 magnetization      42.3988478
 augmentation part      228.6518760 magnetization      41.2447510

 Broyden mixing:
  rms(total) = 0.74627E+01    rms(broyden)= 0.74624E+01
  rms(prec ) = 0.91827E+01
  weight for this iteration     100.00

 eigenvalues of (default mixing * dielectric matrix)
  average eigenvalue GAMMA=   0.6030
  1.1748  0.7318  0.2527  0.2527

 Free energy of the ion-electron system (eV)
  ---------------------------------------------------
  alpha Z        PSCENC =      2440.03186422
  Ewald energy   TEWEN  =    -43196.07737578
  -Hartree energ DENC   =    -15017.68261889
  -exchange      EXHF   =         0.00000000
  -V(xc)+E(xc)   XCENC  =      2718.70738693
  PAW double counting   =     60862.14882234   -62917.11093404
  entropy T*S    EENTRO =        -0.00058076
  eigenvalues    EBANDS =     -3292.04237479
  atomic energy  EATOM  =     57675.50407461
  Solvation  Ediel_sol  =         0.00000000
  ---------------------------------------------------
  free energy    TOTEN  =      -726.52173617 eV

  energy without entropy =     -726.52115541  energy(sigma->0) =     -726.52144579


--------------------------------------------------------------------------------------------------------




--------------------------------------- Iteration      1(  10)  ---------------------------------------


    POTLOK:  cpu time    0.2931: real time    0.2938
    SETDIJ:  cpu time    0.0414: real time    0.0415
     EDDAV:  cpu time    8.2880: real time    8.3076
    CHARGE:  cpu time    0.5551: real time    0.5564
    MIXING:  cpu time    0.0069: real time    0.0069
    --------------------------------------------
      LOOP:  cpu time    9.1844: real time    9.2061

 eigenvalue-minimisations  :  2464
 total energy-change (2. order) : 0.4639684E+02  (-0.3870010E+01)
 number of electron     677.9999998 magnetization      38.8151927
 augmentation part      219.6638345 magnetization      36.8046360

 Broyden mixing:
  rms(total) = 0.45464E+01    rms(broyden)= 0.45461E+01
  rms(prec ) = 0.60489E+01
  weight for this iteration     100.00

 eigenvalues of (default mixing * dielectric matrix)
  average eigenvalue GAMMA=   0.6372
  1.2046  0.7184  0.7184  0.3240  0.2207

 Free energy of the ion-electron system (eV)
  ---------------------------------------------------
  alpha Z        PSCENC =      2440.03186422
  Ewald energy   TEWEN  =    -43196.07737578
  -Hartree energ DENC   =    -15162.91725864
  -exchange      EXHF   =         0.00000000
  -V(xc)+E(xc)   XCENC  =      2722.51595567
  PAW double counting   =     62374.62318717   -64492.95574189
  entropy T*S    EENTRO =        -0.08057315
  eigenvalues    EBANDS =     -3040.76902687
  atomic energy  EATOM  =     57675.50407461
  Solvation  Ediel_sol  =         0.00000000
  ---------------------------------------------------
  free energy    TOTEN  =      -680.12489465 eV

  energy without entropy =     -680.04432151  energy(sigma->0) =     -680.08460808


--------------------------------------------------------------------------------------------------------




--------------------------------------- Iteration      1(  11)  ---------------------------------------


    POTLOK:  cpu time    0.2945: real time    0.2952
    SETDIJ:  cpu time    0.0437: real time    0.0438
     EDDAV:  cpu time    8.6981: real time    8.7187
    CHARGE:  cpu time    0.5398: real time    0.5411
    MIXING:  cpu time    0.0072: real time    0.0072
    --------------------------------------------
      LOOP:  cpu time    9.5833: real time    9.6061

 eigenvalue-minimisations  :  2656
 total energy-change (2. order) :-0.9128348E+01  (-0.2441505E+01)
 number of electron     677.9999997 magnetization      33.8704321
 augmentation part      217.3374003 magnetization      24.4993590

 Broyden mixing:
  rms(total) = 0.53843E+01    rms(broyden)= 0.53821E+01
  rms(prec ) = 0.71528E+01
  weight for this iteration     100.00

 eigenvalues of (default mixing * dielectric matrix)
  average eigenvalue GAMMA=   0.6277
  1.6500  0.6656  0.6656  0.2951  0.2951  0.1948

 Free energy of the ion-electron system (eV)
  ---------------------------------------------------
  alpha Z        PSCENC =      2440.03186422
  Ewald energy   TEWEN  =    -43196.07737578
  -Hartree energ DENC   =    -15181.53168887
  -exchange      EXHF   =         0.00000000
  -V(xc)+E(xc)   XCENC  =      2722.86289346
  PAW double counting   =     62853.83395914   -64979.69200107
  entropy T*S    EENTRO =        -0.14629378
  eigenvalues    EBANDS =     -3024.03867449
  atomic energy  EATOM  =     57675.50407461
  Solvation  Ediel_sol  =         0.00000000
  ---------------------------------------------------
  free energy    TOTEN  =      -689.25324256 eV

  energy without entropy =     -689.10694877  energy(sigma->0) =     -689.18009567


--------------------------------------------------------------------------------------------------------




--------------------------------------- Iteration      1(  12)  ---------------------------------------


    POTLOK:  cpu time    0.2883: real time    0.2889
    SETDIJ:  cpu time    0.0409: real time    0.0410
     EDDAV:  cpu time    8.3468: real time    8.3666
    CHARGE:  cpu time    0.5649: real time    0.5663
    MIXING:  cpu time    0.0076: real time    0.0076
    --------------------------------------------
      LOOP:  cpu time    9.2485: real time    9.2705

 eigenvalue-minimisations  :  2528
 total energy-change (2. order) : 0.8391141E+01  (-0.9974568E+00)
 number of electron     677.9999998 magnetization      28.9346236
 augmentation part      219.4312702 magnetization      26.6599960

 Broyden mixing:
  rms(total) = 0.41357E+01    rms(broyden)= 0.41337E+01
  rms(prec ) = 0.58048E+01
  weight for this iteration     100.00

 eigenvalues of (default mixing * dielectric matrix)
  average eigenvalue GAMMA=   0.6880
  1.9081  0.8085  0.8085  0.5640  0.2741  0.2741  0.1786

 Free energy of the ion-electron system (eV)
  ---------------------------------------------------
  alpha Z        PSCENC =      2440.03186422
  Ewald energy   TEWEN  =    -43196.07737578
  -Hartree energ DENC   =    -15163.05401457
  -exchange      EXHF   =         0.00000000
  -V(xc)+E(xc)   XCENC  =      2722.00492757
  PAW double counting   =     64213.49125434   -66346.08175053
  entropy T*S    EENTRO =        -0.06063671
  eigenvalues    EBANDS =     -3026.62044486
  atomic energy  EATOM  =     57675.50407461
  Solvation  Ediel_sol  =         0.00000000
  ---------------------------------------------------
  free energy    TOTEN  =      -680.86210172 eV

  energy without entropy =     -680.80146500  energy(sigma->0) =     -680.83178336


--------------------------------------------------------------------------------------------------------




--------------------------------------- Iteration      1(  13)  ---------------------------------------


    POTLOK:  cpu time    0.2733: real time    0.2740
    SETDIJ:  cpu time    0.0454: real time    0.0455
     EDDAV:  cpu time    8.1825: real time    8.2019
    CHARGE:  cpu time    0.5782: real time    0.5796
    MIXING:  cpu time    0.0084: real time    0.0084
    --------------------------------------------
      LOOP:  cpu time    9.0878: real time    9.1093

 eigenvalue-minimisations  :  2464
 total energy-change (2. order) :-0.1248042E+01  (-0.2471660E+01)
 number of electron     677.9999996 magnetization      25.3105262
 augmentation part      217.7976072 magnetization      17.9439699

 Broyden mixing:
  rms(total) = 0.39837E+01    rms(broyden)= 0.39820E+01
  rms(prec ) = 0.56743E+01
  weight for this iteration     100.00

 eigenvalues of (default mixing * dielectric matrix)
  average eigenvalue GAMMA=   0.6858
  1.9015  1.1860  0.5967  0.5967  0.4952  0.2715  0.2715  0.1674

 Free energy of the ion-electron system (eV)
  ---------------------------------------------------
  alpha Z        PSCENC =      2440.03186422
  Ewald energy   TEWEN  =    -43196.07737578
  -Hartree energ DENC   =    -15202.21365084
  -exchange      EXHF   =         0.00000000
  -V(xc)+E(xc)   XCENC  =      2723.87137057
  PAW double counting   =     64594.25841289   -66736.50374605
  entropy T*S    EENTRO =        -0.10663334
  eigenvalues    EBANDS =     -2980.87446046
  atomic energy  EATOM  =     57675.50407461
  Solvation  Ediel_sol  =         0.00000000
  ---------------------------------------------------
  free energy    TOTEN  =      -682.11014419 eV

  energy without entropy =     -682.00351084  energy(sigma->0) =     -682.05682751


--------------------------------------------------------------------------------------------------------




--------------------------------------- Iteration      1(  14)  ---------------------------------------


    POTLOK:  cpu time    0.2725: real time    0.2731
    SETDIJ:  cpu time    0.0444: real time    0.0445
     EDDAV:  cpu time    8.4817: real time    8.5018
    CHARGE:  cpu time    0.5551: real time    0.5565
    MIXING:  cpu time    0.0081: real time    0.0081
    --------------------------------------------
      LOOP:  cpu time    9.3619: real time    9.3840

 eigenvalue-minimisations  :  2560
 total energy-change (2. order) : 0.4046114E+01  (-0.1426941E+00)
 number of electron     677.9999998 magnetization      25.2202859
 augmentation part      217.5925769 magnetization      18.1176939

 Broyden mixing:
  rms(total) = 0.12940E+01    rms(broyden)= 0.12930E+01
  rms(prec ) = 0.13756E+01
  weight for this iteration     100.00

 eigenvalues of (default mixing * dielectric matrix)
  average eigenvalue GAMMA=   0.6173
  1.8911  0.9376  0.6057  0.6057  0.6179  0.2616  0.2616  0.1856  0.1891

 Free energy of the ion-electron system (eV)
  ---------------------------------------------------
  alpha Z        PSCENC =      2440.03186422
  Ewald energy   TEWEN  =    -43196.07737578
  -Hartree energ DENC   =    -15220.74630996
  -exchange      EXHF   =         0.00000000
  -V(xc)+E(xc)   XCENC  =      2724.17416496
  PAW double counting   =     64844.40808297   -66990.48636642
  entropy T*S    EENTRO =        -0.21392249
  eigenvalues    EBANDS =     -2954.65824269
  atomic energy  EATOM  =     57675.50407461
  Solvation  Ediel_sol  =         0.00000000
  ---------------------------------------------------
  free energy    TOTEN  =      -678.06403058 eV

  energy without entropy =     -677.85010809  energy(sigma->0) =     -677.95706934


--------------------------------------------------------------------------------------------------------




--------------------------------------- Iteration      1(  15)  ---------------------------------------


    POTLOK:  cpu time    0.2853: real time    0.2860
    SETDIJ:  cpu time    0.0455: real time    0.0456
     EDDAV:  cpu time    8.3725: real time    8.3923
    CHARGE:  cpu time    0.5461: real time    0.5474
    MIXING:  cpu time    0.0092: real time    0.0092
    --------------------------------------------
      LOOP:  cpu time    9.2586: real time    9.2805

 eigenvalue-minimisations  :  2560
 total energy-change (2. order) : 0.2902717E+00  (-0.7354849E-01)
 number of electron     677.9999998 magnetization      25.4310480
 augmentation part      217.3629680 magnetization      17.4385135

 Broyden mixing:
  rms(total) = 0.13830E+01    rms(broyden)= 0.13829E+01
  rms(prec ) = 0.14841E+01
  weight for this iteration     100.00

 eigenvalues of (default mixing * dielectric matrix)
  average eigenvalue GAMMA=   0.5758
  1.9294  0.8469  0.8469  0.4777  0.4777  0.2716  0.2716  0.1664  0.2347  0.2347

 Free energy of the ion-electron system (eV)
  ---------------------------------------------------
  alpha Z        PSCENC =      2440.03186422
  Ewald energy   TEWEN  =    -43196.07737578
  -Hartree energ DENC   =    -15220.11599759
  -exchange      EXHF   =         0.00000000
  -V(xc)+E(xc)   XCENC  =      2724.07102155
  PAW double counting   =     64864.59632642   -67010.67278314
  entropy T*S    EENTRO =        -0.18051336
  eigenvalues    EBANDS =     -2954.93037586
  atomic energy  EATOM  =     57675.50407461
  Solvation  Ediel_sol  =         0.00000000
  ---------------------------------------------------
  free energy    TOTEN  =      -677.77375893 eV

  energy without entropy =     -677.59324557  energy(sigma->0) =     -677.68350225


--------------------------------------------------------------------------------------------------------




--------------------------------------- Iteration      1(  16)  ---------------------------------------


    POTLOK:  cpu time    0.2905: real time    0.2912
    SETDIJ:  cpu time    0.0420: real time    0.0421
     EDDAV:  cpu time    8.1733: real time    8.1927
    CHARGE:  cpu time    0.5752: real time    0.5766
    MIXING:  cpu time    0.0094: real time    0.0094
    --------------------------------------------
      LOOP:  cpu time    9.0904: real time    9.1120

 eigenvalue-minimisations  :  2512
 total energy-change (2. order) :-0.4963035E+00  (-0.1547760E+00)
 number of electron     677.9999998 magnetization      23.9954581
 augmentation part      217.6123271 magnetization      15.2226234

 Broyden mixing:
  rms(total) = 0.19841E+01    rms(broyden)= 0.19838E+01
  rms(prec ) = 0.19951E+01
  weight for this iteration     100.00

 eigenvalues of (default mixing * dielectric matrix)
  average eigenvalue GAMMA=   0.6376
  2.0625  0.8560  0.8560  0.7269  0.7269  0.4361  0.4361  0.2753  0.2753  0.1687
  0.1941

 Free energy of the ion-electron system (eV)
  ---------------------------------------------------
  alpha Z        PSCENC =      2440.03186422
  Ewald energy   TEWEN  =    -43196.07737578
  -Hartree energ DENC   =    -15215.89849938
  -exchange      EXHF   =         0.00000000
  -V(xc)+E(xc)   XCENC  =      2723.92431383
  PAW double counting   =     64901.92474345   -67047.04288700
  entropy T*S    EENTRO =        -0.12043926
  eigenvalues    EBANDS =     -2960.51585714
  atomic energy  EATOM  =     57675.50407461
  Solvation  Ediel_sol  =         0.00000000
  ---------------------------------------------------
  free energy    TOTEN  =      -678.27006245 eV

  energy without entropy =     -678.14962319  energy(sigma->0) =     -678.20984282


--------------------------------------------------------------------------------------------------------




--------------------------------------- Iteration      1(  17)  ---------------------------------------


    POTLOK:  cpu time    0.2925: real time    0.2932
    SETDIJ:  cpu time    0.0425: real time    0.0426
     EDDAV:  cpu time    8.5662: real time    8.5865
    CHARGE:  cpu time    0.4374: real time    0.4384
    MIXING:  cpu time    0.0080: real time    0.0080
    --------------------------------------------
      LOOP:  cpu time    9.3466: real time    9.3688

 eigenvalue-minimisations  :  2512
 total energy-change (2. order) :-0.2042847E+01  (-0.1784138E+00)
 number of electron     677.9999998 magnetization      19.8173545
 augmentation part      218.2875884 magnetization      17.7893130

 Broyden mixing:
  rms(total) = 0.39224E+01    rms(broyden)= 0.39216E+01
  rms(prec ) = 0.54383E+01
  weight for this iteration     100.00

 eigenvalues of (default mixing * dielectric matrix)
  average eigenvalue GAMMA=   0.6889
  2.2995  1.2264  1.2264  0.5441  0.5441  0.5623  0.4694  0.4694  0.2787  0.2787
  0.1686  0.1997

 Free energy of the ion-electron system (eV)
  ---------------------------------------------------
  alpha Z        PSCENC =      2440.03186422
  Ewald energy   TEWEN  =    -43196.07737578
  -Hartree energ DENC   =    -15212.80547452
  -exchange      EXHF   =         0.00000000
  -V(xc)+E(xc)   XCENC  =      2724.12544277
  PAW double counting   =     65139.00300759   -67283.32237731
  entropy T*S    EENTRO =        -0.08831040
  eigenvalues    EBANDS =     -2966.68376026
  atomic energy  EATOM  =     57675.50407461
  Solvation  Ediel_sol  =         0.00000000
  ---------------------------------------------------
  free energy    TOTEN  =      -680.31290907 eV

  energy without entropy =     -680.22459867  energy(sigma->0) =     -680.26875387


--------------------------------------------------------------------------------------------------------




--------------------------------------- Iteration      1(  18)  ---------------------------------------


    POTLOK:  cpu time    0.2603: real time    0.2609
    SETDIJ:  cpu time    0.0398: real time    0.0399
     EDDAV:  cpu time    6.8486: real time    6.8648
    CHARGE:  cpu time    0.5170: real time    0.5183
    MIXING:  cpu time    0.0092: real time    0.0093
    --------------------------------------------
      LOOP:  cpu time    7.6749: real time    7.6931

 eigenvalue-minimisations  :  2464
 total energy-change (2. order) : 0.5341676E-01  (-0.7400665E-01)
 number of electron     677.9999998 magnetization      18.6405843
 augmentation part      218.3213270 magnetization      17.1001610

 Broyden mixing:
  rms(total) = 0.35311E+01    rms(broyden)= 0.35311E+01
  rms(prec ) = 0.48726E+01
  weight for this iteration     100.00

 eigenvalues of (default mixing * dielectric matrix)
  average eigenvalue GAMMA=   0.6929
  2.3255  1.7677  0.8282  0.8282  0.4769  0.4769  0.5335  0.4268  0.4268  0.2749
  0.2749  0.1687  0.1988

 Free energy of the ion-electron system (eV)
  ---------------------------------------------------
  alpha Z        PSCENC =      2440.03186422
  Ewald energy   TEWEN  =    -43196.07737578
  -Hartree energ DENC   =    -15224.00848218
  -exchange      EXHF   =         0.00000000
  -V(xc)+E(xc)   XCENC  =      2724.66403673
  PAW double counting   =     65184.57743977   -67328.72834100
  entropy T*S    EENTRO =        -0.15872817
  eigenvalues    EBANDS =     -2956.06398051
  atomic energy  EATOM  =     57675.50407461
  Solvation  Ediel_sol  =         0.00000000
  ---------------------------------------------------
  free energy    TOTEN  =      -680.25949231 eV

  energy without entropy =     -680.10076414  energy(sigma->0) =     -680.18012823


--------------------------------------------------------------------------------------------------------




--------------------------------------- Iteration      1(  19)  ---------------------------------------


    POTLOK:  cpu time    0.2891: real time    0.2898
    SETDIJ:  cpu time    0.0446: real time    0.0447
     EDDAV:  cpu time    8.2899: real time    8.3096
    CHARGE:  cpu time    0.5063: real time    0.5075
    MIXING:  cpu time    0.0086: real time    0.0086
    --------------------------------------------
      LOOP:  cpu time    9.1384: real time    9.1601

 eigenvalue-minimisations  :  2688
 total energy-change (2. order) : 0.8392890E+00  (-0.7138989E-01)
 number of electron     677.9999998 magnetization      18.3652602
 augmentation part      218.0227648 magnetization      16.4432721

 Broyden mixing:
  rms(total) = 0.24432E+01    rms(broyden)= 0.24430E+01
  rms(prec ) = 0.33597E+01
  weight for this iteration     100.00

 eigenvalues of (default mixing * dielectric matrix)
  average eigenvalue GAMMA=   0.7045
  2.5022  1.6447  0.8556  0.7389  0.7389  0.5486  0.5486  0.4945  0.4945  0.3757
  0.2773  0.2773  0.1687  0.1977

 Free energy of the ion-electron system (eV)
  ---------------------------------------------------
  alpha Z        PSCENC =      2440.03186422
  Ewald energy   TEWEN  =    -43196.07737578
  -Hartree energ DENC   =    -15228.62190576
  -exchange      EXHF   =         0.00000000
  -V(xc)+E(xc)   XCENC  =      2724.69893234
  PAW double counting   =     65124.35275361   -67267.80758897
  entropy T*S    EENTRO =        -0.24697563
  eigenvalues    EBANDS =     -2951.25398192
  atomic energy  EATOM  =     57675.50407461
  Solvation  Ediel_sol  =         0.00000000
  ---------------------------------------------------
  free energy    TOTEN  =      -679.42020328 eV

  energy without entropy =     -679.17322766  energy(sigma->0) =     -679.29671547


--------------------------------------------------------------------------------------------------------




--------------------------------------- Iteration      1(  20)  ---------------------------------------


    POTLOK:  cpu time    0.2989: real time    0.2996
    SETDIJ:  cpu time    0.0448: real time    0.0449
     EDDAV:  cpu time    8.0735: real time    8.0927
    CHARGE:  cpu time    0.5539: real time    0.5552
    MIXING:  cpu time    0.0092: real time    0.0092
    --------------------------------------------
      LOOP:  cpu time    8.9803: real time    9.0015

 eigenvalue-minimisations  :  2464
 total energy-change (2. order) : 0.2133799E-01  (-0.7226981E-02)
 number of electron     677.9999998 magnetization      18.5165055
 augmentation part      218.0868070 magnetization      17.2558295

 Broyden mixing:
  rms(total) = 0.26513E+01    rms(broyden)= 0.26513E+01
  rms(prec ) = 0.35919E+01
  weight for this iteration     100.00

 eigenvalues of (default mixing * dielectric matrix)
  average eigenvalue GAMMA=   0.7432
  2.5009  1.4076  1.4076  0.7683  0.7683  0.6891  0.6891  0.5849  0.5849  0.4142
  0.4142  0.2765  0.2765  0.1687  0.1972

 Free energy of the ion-electron system (eV)
  ---------------------------------------------------
  alpha Z        PSCENC =      2440.03186422
[...]
     10.09644      4.76393      4.16699         0.005826      0.002959     -0.003364
      2.88897      9.39426      3.33014        -0.005826     -0.002959      0.003364
      4.32847      4.76393      4.16124         0.000000      0.002959      0.006728
      5.76797      9.39426      3.33014         0.005826     -0.002959      0.003364
      5.77129      0.00000      4.99809        -0.000000      0.000000      0.000000
      5.76797      4.76393      6.66603         0.005826      0.002959     -0.003364
      7.21744      9.39426      5.82918        -0.005826     -0.002959      0.003364
      8.65694      4.76393      6.66028         0.000000      0.002959      0.006728
     10.09644      9.39426      5.82918         0.005826     -0.002959      0.003364
      2.88565      0.00000      4.99809        -0.000000      0.000000      0.000000
     11.54591      4.76393      6.66603        -0.005826      0.002959     -0.003364
      4.32847      9.39426      5.83494        -0.000000     -0.002959     -0.006728
      0.00000      7.07909      0.00000        -0.000000      0.000000      0.000000
      8.65694     11.71452      1.74038        -0.000000      0.001721     -0.009156
      1.50721      2.44366      0.87019        -0.007929     -0.001721     -0.004578
      2.88565      7.07909      0.00000        -0.000000      0.000000      0.000000
      2.82126     11.71452      1.62885         0.007929      0.001721      0.004578
      4.32847      2.44366      0.75866         0.000000     -0.001721      0.009156
      5.77129      7.07909      0.00000        -0.000000      0.000000      0.000000
      5.83568     11.71452      1.62885        -0.007929      0.001721      0.004578
      7.14973      2.44366      0.87019         0.007929     -0.001721     -0.004578
      7.21412      7.07909      2.49904        -0.000000      0.000000     -0.000000
      7.14973     11.71452      4.12790         0.007929      0.001721      0.004578
      8.65694      2.44366      3.25771         0.000000     -0.001721      0.009156
      1.44282      7.07909      2.49904        -0.000000      0.000000      0.000000
     10.16415     11.71452      4.12790        -0.007929      0.001721      0.004578
      2.82126      2.44366      3.36923         0.007929     -0.001721     -0.004578
      4.32847      7.07909      2.49904        -0.000000      0.000000      0.000000
      4.32847     11.71452      4.23942        -0.000000      0.001721     -0.009156
      5.83568      2.44366      3.36923        -0.007929     -0.001721     -0.004578
      5.77129      7.07909      4.99809        -0.000000      0.000000      0.000000
      5.83568     11.71452      6.62694        -0.007929      0.001721      0.004578
      7.14973      2.44366      5.86828         0.007929     -0.001721     -0.004578
      8.65694      7.07909      4.99809        -0.000000      0.000000      0.000000
      8.65694     11.71452      6.73847        -0.000000      0.001721     -0.009156
     10.16415      2.44366      5.86828        -0.007929     -0.001721     -0.004578
      2.88565      7.07909      4.99809        -0.000000      0.000000      0.000000
     11.47820     11.71452      6.62694         0.007929      0.001721      0.004578
      4.32847      2.44366      5.75675         0.000000     -0.001721      0.009156
      0.00000     10.38851      0.00000        -0.000000     -0.004780     -0.000000
      0.00000      3.76968      0.00000        -0.000000      0.004780      0.000000
      8.65694      1.16855      1.62776        -0.000000      0.007017     -0.013156
      8.65694      8.38815      1.67806         0.000000      0.000163      0.005020
      1.45324      5.77003      0.83903         0.004347     -0.000163      0.002510
      1.40968     12.98963      0.81388        -0.011394     -0.007017     -0.006578
      2.88565     10.40903      0.00000        -0.000000     -0.002062      0.000000
      2.88565      3.74915      0.00000        -0.000000      0.002062      0.000000
      2.91879      1.16855      1.68516         0.011394      0.007017      0.006578
      2.87523      8.38815      1.66001        -0.004347      0.000163     -0.002510
      4.32847      5.77003      0.82098        -0.000000     -0.000163     -0.005020
      4.32847     12.98963      0.87128         0.000000     -0.007017      0.013156
      5.77129     10.40903      0.00000        -0.000000     -0.002062      0.000000
      5.77129      3.74915      0.00000        -0.000000      0.002062     -0.000000
      5.73815      1.16855      1.68516        -0.011394      0.007017      0.006578
      5.78171      8.38815      1.66001         0.004347      0.000163     -0.002510
      7.20370      5.77003      0.83903        -0.004347     -0.000163      0.002510
      7.24726     12.98963      0.81388         0.011394     -0.007017     -0.006578
      7.21412     10.40903      2.49904        -0.000000     -0.002062      0.000000
      7.21412      3.74915      2.49904        -0.000000      0.002062     -0.000000
      7.24726      1.16855      4.18421         0.011394      0.007017      0.006578
      7.20370      8.38815      4.15906        -0.004347      0.000163     -0.002510
      8.65694      5.77003      3.32003        -0.000000     -0.000163     -0.005020
      8.65694     12.98963      3.37032         0.000000     -0.007017      0.013156
      1.44282     10.40903      2.49904        -0.000000     -0.002062      0.000000
      1.44282      3.74915      2.49904        -0.000000      0.002062     -0.000000
     10.06662      1.16855      4.18421        -0.011394      0.007017      0.006578
     10.11018      8.38815      4.15906         0.004347      0.000163     -0.002510
      2.87523      5.77003      3.33807        -0.004347     -0.000163      0.002510
      2.91879     12.98963      3.31292         0.011394     -0.007017     -0.006578
      4.32847     10.38851      2.49904        -0.000000     -0.004780      0.000000
      4.32847      3.76968      2.49904        -0.000000      0.004780     -0.000000
      4.32847      1.16855      4.12681        -0.000000      0.007017     -0.013156
      4.32847      8.38815      4.17710         0.000000      0.000163      0.005020
      5.78171      5.77003      3.33807         0.004347     -0.000163      0.002510
      5.73815     12.98963      3.31292        -0.011394     -0.007017     -0.006578
      5.77129     10.40903      4.99809        -0.000000     -0.002062      0.000000
      5.77129      3.74915      4.99809        -0.000000      0.002062     -0.000000
      5.73815      1.16855      6.68325        -0.011394      0.007017      0.006578
      5.78171      8.38815      6.65810         0.004347      0.000163     -0.002510
      7.20370      5.77003      5.83712        -0.004347     -0.000163      0.002510
      7.24726     12.98963      5.81197         0.011394     -0.007017     -0.006578
      8.65694     10.38851      4.99809        -0.000000     -0.004780     -0.000000
      8.65694      3.76968      4.99809        -0.000000      0.004780      0.000000
      8.65694      1.16855      6.62585        -0.000000      0.007017     -0.013156
      8.65694      8.38815      6.67615         0.000000      0.000163      0.005020
     10.11018      5.77003      5.83712         0.004347     -0.000163      0.002510
     10.06662     12.98963      5.81197        -0.011394     -0.007017     -0.006578
      2.88565     10.40903      4.99809        -0.000000     -0.002062      0.000000
      2.88565      3.74915      4.99809        -0.000000      0.002062     -0.000000
     11.57573      1.16855      6.68325         0.011394      0.007017      0.006578
     11.53217      8.38815      6.65810        -0.004347      0.000163     -0.002510
      4.32847      5.77003      5.81907        -0.000000     -0.000163     -0.005020
      4.32847     12.98963      5.86937         0.000000     -0.007017      0.013156
 -----------------------------------------------------------------------------------
    total drift:                                0.000000      0.000000      0.000000


--------------------------------------------------------------------------------------------------------



  FREE ENERGIE OF THE ION-ELECTRON SYSTEM (eV)
  ---------------------------------------------------
  free  energy   TOTEN  =      -682.7244753312 eV

  energy  without entropy=     -682.6395931949  energy(sigma->0) =     -682.68203426
 


--------------------------------------------------------------------------------------------------------


    POTLOK:  cpu time    0.2993: real time    0.3001


--------------------------------------------------------------------------------------------------------


 Quasi-Newton relaxation of ions (Broydens 2nd method)
  g(Force)  = 0.346E-03   g(Stress)= 0.692E-03

 Reset! Starting new Quasi-Newton update for ions 


--------------------------------------------------------------------------------------------------------


  
 reached required accuracy - stopping structural energy minimisation
     LOOP+:  cpu time  722.7325: real time  724.7150
    4ORBIT:  cpu time    0.0000: real time    0.0000

volume of typ            1:     3.3 %

volume of typ            2:    16.6 %

volume of typ            3:    22.9 %

volume of typ            4:     9.6 %
 
total charge     
 
# of ion       s       p       d       tot
------------------------------------------
    1        0.293   6.190   1.914   8.397
    2        0.293   6.190   1.914   8.397
    3        0.293   6.190   1.914   8.397
    4        0.256   0.326   7.858   8.440
    5        0.256   0.326   7.858   8.440
    6        0.209   0.250   7.918   8.376
    7        0.256   0.326   7.858   8.440
    8        0.256   0.326   7.858   8.440
    9        0.209   0.250   7.918   8.376
   10        0.256   0.326   7.858   8.440
   11        0.256   0.326   7.858   8.440
   12        0.209   0.250   7.918   8.376
   13        0.256   0.326   7.858   8.440
   14        0.256   0.326   7.858   8.440
   15        0.209   0.250   7.918   8.376
   16        0.256   0.326   7.858   8.440
   17        0.256   0.326   7.858   8.440
   18        0.256   0.326   7.858   8.440
   19        0.256   0.326   7.858   8.440
   20        0.209   0.250   7.918   8.376
   21        0.256   0.326   7.858   8.440
   22        0.256   0.326   7.858   8.440
   23        0.256   0.326   7.858   8.440
   24        0.256   0.326   7.858   8.440
   25        0.209   0.250   7.918   8.376
   26        0.256   0.326   7.858   8.440
   27        0.256   0.326   7.858   8.440
   28        2.078   0.249   0.094   2.421
   29        2.081   0.268   0.103   2.451
   30        2.081   0.268   0.103   2.451
   31        2.082   0.262   0.098   2.442
   32        2.081   0.268   0.103   2.451
   33        2.081   0.268   0.103   2.451
   34        2.082   0.262   0.098   2.442
   35        2.081   0.268   0.103   2.451
   36        2.081   0.268   0.103   2.451
   37        2.082   0.262   0.098   2.442
   38        2.081   0.268   0.103   2.451
   39        2.081   0.268   0.103   2.451
   40        2.082   0.262   0.098   2.442
   41        2.081   0.268   0.103   2.451
   42        2.081   0.268   0.103   2.451
   43        2.078   0.249   0.094   2.421
   44        2.081   0.268   0.103   2.451
   45        2.081   0.268   0.103   2.451
   46        2.082   0.262   0.098   2.442
   47        2.081   0.268   0.103   2.451
   48        2.081   0.268   0.103   2.451
   49        2.078   0.249   0.094   2.421
   50        2.081   0.268   0.103   2.451
   51        2.081   0.268   0.103   2.451
   52        2.082   0.262   0.098   2.442
   53        2.081   0.268   0.103   2.451
   54        2.081   0.268   0.103   2.451
   55        1.260   2.781   0.005   4.046
   56        1.260   2.781   0.005   4.046
   57        1.248   2.840   0.005   4.092
   58        1.259   2.787   0.005   4.051
   59        1.259   2.787   0.005   4.051
   60        1.248   2.840   0.005   4.092
   61        1.258   2.791   0.005   4.054
   62        1.258   2.791   0.005   4.054
   63        1.248   2.840   0.005   4.092
   64        1.259   2.787   0.005   4.051
   65        1.259   2.787   0.005   4.051
   66        1.248   2.840   0.005   4.092
   67        1.258   2.791   0.005   4.054
   68        1.258   2.791   0.005   4.054
   69        1.248   2.840   0.005   4.092
   70        1.259   2.787   0.005   4.051
   71        1.259   2.787   0.005   4.051
   72        1.248   2.840   0.005   4.092
   73        1.258   2.791   0.005   4.054
   74        1.258   2.791   0.005   4.054
   75        1.248   2.840   0.005   4.092
   76        1.259   2.787   0.005   4.051
   77        1.259   2.787   0.005   4.051
   78        1.248   2.840   0.005   4.092
   79        1.258   2.791   0.005   4.054
   80        1.258   2.791   0.005   4.054
   81        1.248   2.840   0.005   4.092
   82        1.259   2.787   0.005   4.051
   83        1.259   2.787   0.005   4.051
   84        1.248   2.840   0.005   4.092
   85        1.260   2.781   0.005   4.046
   86        1.260   2.781   0.005   4.046
   87        1.248   2.840   0.005   4.092
   88        1.259   2.787   0.005   4.051
   89        1.259   2.787   0.005   4.051
   90        1.248   2.840   0.005   4.092
   91        1.258   2.791   0.005   4.054
   92        1.258   2.791   0.005   4.054
   93        1.248   2.840   0.005   4.092
   94        1.259   2.787   0.005   4.051
   95        1.259   2.787   0.005   4.051
   96        1.248   2.840   0.005   4.092
   97        1.260   2.781   0.005   4.046
   98        1.260   2.781   0.005   4.046
   99        1.248   2.840   0.005   4.092
  100        1.259   2.787   0.005   4.051
  101        1.259   2.787   0.005   4.051
  102        1.248   2.840   0.005   4.092
  103        1.258   2.791   0.005   4.054
  104        1.258   2.791   0.005   4.054
  105        1.248   2.840   0.005   4.092
  106        1.259   2.787   0.005   4.051
  107        1.259   2.787   0.005   4.051
  108        1.248   2.840   0.005   4.092
--------------------------------------------------
tot         130.70  184.53  197.69  512.91
 
magnetization (x)
 
# of ion       s       p       d       tot
------------------------------------------
    1       -0.002  -0.002  -0.016  -0.019
    2       -0.002  -0.002  -0.016  -0.019
    3       -0.002  -0.002  -0.016  -0.019
    4       -0.000  -0.001   0.749   0.748
    5       -0.000  -0.001   0.749   0.748
    6        0.000  -0.001   1.495   1.494
    7       -0.000  -0.001   0.749   0.748
    8       -0.000  -0.001   0.749   0.748
    9        0.000  -0.001   1.495   1.494
   10       -0.000  -0.001   0.749   0.748
   11       -0.000  -0.001   0.749   0.748
   12        0.000  -0.001   1.495   1.494
   13       -0.000  -0.001   0.749   0.748
   14       -0.000  -0.001   0.749   0.748
   15        0.000  -0.001   1.495   1.494
   16       -0.000  -0.001   0.749   0.748
   17       -0.000  -0.001   0.749   0.748
   18       -0.000  -0.001   0.749   0.748
   19       -0.000  -0.001   0.749   0.748
   20        0.000  -0.001   1.495   1.494
   21       -0.000  -0.001   0.749   0.748
   22       -0.000  -0.001   0.749   0.748
   23       -0.000  -0.001   0.749   0.748
   24       -0.000  -0.001   0.749   0.748
   25        0.000  -0.001   1.495   1.494
   26       -0.000  -0.001   0.749   0.748
   27       -0.000  -0.001   0.749   0.748
   28        0.008   0.010   0.001   0.018
   29        0.005   0.010   0.001   0.017
   30        0.005   0.010   0.001   0.017
   31        0.008   0.013   0.001   0.022
   32        0.005   0.010   0.001   0.017
   33        0.005   0.010   0.001   0.017
   34        0.008   0.013   0.001   0.022
   35        0.005   0.010   0.001   0.017
   36        0.005   0.010   0.001   0.017
   37        0.008   0.013   0.001   0.022
   38        0.005   0.010   0.001   0.017
   39        0.005   0.010   0.001   0.017
   40        0.008   0.013   0.001   0.022
   41        0.005   0.010   0.001   0.017
   42        0.005   0.010   0.001   0.017
   43        0.008   0.010   0.001   0.018
   44        0.005   0.010   0.001   0.017
   45        0.005   0.010   0.001   0.017
   46        0.008   0.013   0.001   0.022
   47        0.005   0.010   0.001   0.017
   48        0.005   0.010   0.001   0.017
   49        0.008   0.010   0.001   0.018
   50        0.005   0.010   0.001   0.017
   51        0.005   0.010   0.001   0.017
   52        0.008   0.013   0.001   0.022
   53        0.005   0.010   0.001   0.017
   54        0.005   0.010   0.001   0.017
   55        0.011   0.061   0.000   0.073
   56        0.011   0.061   0.000   0.073
   57        0.010   0.125   0.000   0.135
   58        0.014   0.072   0.000   0.086
   59        0.014   0.072   0.000   0.086
   60        0.010   0.125   0.000   0.135
   61        0.014   0.083   0.000   0.098
   62        0.014   0.083   0.000   0.098
   63        0.010   0.125   0.000   0.135
   64        0.014   0.072   0.000   0.086
   65        0.014   0.072   0.000   0.086
   66        0.010   0.125   0.000   0.135
   67        0.014   0.083   0.000   0.098
   68        0.014   0.083   0.000   0.098
   69        0.010   0.125   0.000   0.135
   70        0.014   0.072   0.000   0.086
   71        0.014   0.072   0.000   0.086
   72        0.010   0.125   0.000   0.135
   73        0.014   0.083   0.000   0.098
   74        0.014   0.083   0.000   0.098
   75        0.010   0.125   0.000   0.135
   76        0.014   0.072   0.000   0.086
   77        0.014   0.072   0.000   0.086
   78        0.010   0.125   0.000   0.135
   79        0.014   0.083   0.000   0.098
   80        0.014   0.083   0.000   0.098
   81        0.010   0.125   0.000   0.135
   82        0.014   0.072   0.000   0.086
   83        0.014   0.072   0.000   0.086
   84        0.010   0.125   0.000   0.135
   85        0.011   0.061   0.000   0.073
   86        0.011   0.061   0.000   0.073
   87        0.010   0.125   0.000   0.135
   88        0.014   0.072   0.000   0.086
   89        0.014   0.072   0.000   0.086
   90        0.010   0.125   0.000   0.135
   91        0.014   0.083   0.000   0.098
   92        0.014   0.083   0.000   0.098
   93        0.010   0.125   0.000   0.135
   94        0.014   0.072   0.000   0.086
   95        0.014   0.072   0.000   0.086
   96        0.010   0.125   0.000   0.135
   97        0.011   0.061   0.000   0.073
   98        0.011   0.061   0.000   0.073
   99        0.010   0.125   0.000   0.135
  100        0.014   0.072   0.000   0.086
  101        0.014   0.072   0.000   0.086
  102        0.010   0.125   0.000   0.135
  103        0.014   0.083   0.000   0.098
  104        0.014   0.083   0.000   0.098
  105        0.010   0.125   0.000   0.135
  106        0.014   0.072   0.000   0.086
  107        0.014   0.072   0.000   0.086
  108        0.010   0.125   0.000   0.135
--------------------------------------------------
tot           0.82    5.17   22.46   28.45
 

 total amount of memory used by VASP MPI-rank0   149698. kBytes
=======================================================================

   base      :      30000. kBytes
   nonlr-proj:      40630. kBytes
   fftplans  :       9349. kBytes
   grid      :      57131. kBytes
   one-center:       1679. kBytes
   wavefun   :      10909. kBytes
 
  
  
 General timing and accounting informations for this job:
 ========================================================
  
                  Total CPU time used (sec):      735.634
                            User time (sec):      730.456
                          System time (sec):        5.179
                         Elapsed time (sec):      743.007
  
                   Maximum memory used (kb):      215488.
                   Average memory used (kb):           0.
  
                          Minor page faults:        39997
                          Major page faults:           57
                 Voluntary context switches:         1275
