 vasp.5.4.4.18Apr17-6-g9f103f2a35 (build May 12 2020 05:39:39) gamma-only       
  
 MD_VERSION_INFO: Compiled 2020-05-12T12:39:39-UTC in devlin.sd.materialsdesign.
 com:/home/medea2/data/build/wwolf/vasp-gpu5.4.4/13047/x86_64/src/src/build/gam 
 from svn 13047
 
 This VASP executable licensed from Materials Design, Inc.
 
 executed on                        Lin64 date 2023.04.02  07:44:59
 running on   16 total cores
 distrk:  each k-point on   16 cores,    1 groups
 distr:  one band on NCORES_PER_BAND=   1 cores,   16 groups


--------------------------------------------------------------------------------------------------------


 INCAR:
 POTCAR:    PAW_PBE Ta_pv 07Sep2000               
 POTCAR:    PAW_PBE Ni 02Aug2007                  
 POTCAR:    PAW_PBE Li_sv 10Sep2004               
 POTCAR:    PAW_PBE O 08Apr2002                   

 ----------------------------------------------------------------------------- 
|                                                                             |
|           W    W    AA    RRRRR   N    N  II  N    N   GGGG   !!!           |
|           W    W   A  A   R    R  NN   N  II  NN   N  G    G  !!!           |
|           W    W  A    A  R    R  N N  N  II  N N  N  G       !!!           |
|           W WW W  AAAAAA  RRRRR   N  N N  II  N  N N  G  GGG   !            |
|           WW  WW  A    A  R   R   N   NN  II  N   NN  G    G                |
|           W    W  A    A  R    R  N    N  II  N    N   GGGG   !!!           |
|                                                                             |
|      For optimal performance we recommend to set                            |
|        NCORE= 4 - approx SQRT( number of cores)                             |
|      NCORE specifies how many cores store one orbital (NPAR=cpu/NCORE).     |
|      This setting can  greatly improve the performance of VASP for DFT.     |
|      The default,   NCORE=1            might be grossly inefficient         |
|      on modern multi-core architectures or massively parallel machines.     |
|      Do your own testing !!!!                                               |
|      Unfortunately you need to use the default for GW and RPA calculations. |
|      (for HF NCORE is supported but not extensively tested yet)             |
|                                                                             |
 ----------------------------------------------------------------------------- 

 POTCAR:    PAW_PBE Ta_pv 07Sep2000               
  local pseudopotential read in
  partial core-charges read in
  partial kinetic energy density read in
  atomic valenz-charges read in
  non local Contribution for L=           1  read in
    real space projection operators read in
  non local Contribution for L=           1  read in
    real space projection operators read in
  non local Contribution for L=           2  read in
    real space projection operators read in
  non local Contribution for L=           2  read in
    real space projection operators read in
  non local Contribution for L=           0  read in
    real space projection operators read in
  non local Contribution for L=           0  read in
    real space projection operators read in
    PAW grid and wavefunctions read in
 
   number of l-projection  operators is LMAX  =           6
   number of lm-projection operators is LMMAX =          18
 
 POTCAR:    PAW_PBE Ni 02Aug2007                  
  local pseudopotential read in
  partial core-charges read in
  partial kinetic energy density read in
  atomic valenz-charges read in
  non local Contribution for L=           2  read in
    real space projection operators read in
  non local Contribution for L=           2  read in
    real space projection operators read in
  non local Contribution for L=           0  read in
    real space projection operators read in
  non local Contribution for L=           0  read in
    real space projection operators read in
  non local Contribution for L=           1  read in
    real space projection operators read in
  non local Contribution for L=           1  read in
    real space projection operators read in
    PAW grid and wavefunctions read in
 
   number of l-projection  operators is LMAX  =           6
   number of lm-projection operators is LMMAX =          18
 
 POTCAR:    PAW_PBE Li_sv 10Sep2004               
  local pseudopotential read in
  atomic valenz-charges read in
  non local Contribution for L=           0  read in
    real space projection operators read in
  non local Contribution for L=           0  read in
    real space projection operators read in
  non local Contribution for L=           1  read in
    real space projection operators read in
    PAW grid and wavefunctions read in
 
   number of l-projection  operators is LMAX  =           3
   number of lm-projection operators is LMMAX =           5
 
 POTCAR:    PAW_PBE O 08Apr2002                   
  local pseudopotential read in
  partial core-charges read in
  partial kinetic energy density read in
  kinetic energy density of atom read in
  atomic valenz-charges read in
  non local Contribution for L=           0  read in
    real space projection operators read in
  non local Contribution for L=           0  read in
    real space projection operators read in
  non local Contribution for L=           1  read in
    real space projection operators read in
  non local Contribution for L=           1  read in
    real space projection operators read in
    PAW grid and wavefunctions read in
 
   number of l-projection  operators is LMAX  =           4
   number of lm-projection operators is LMMAX =           8
 
 Optimization of the real space projectors (new method)

 maximal supplied QI-value         = 15.12
 optimisation between [QCUT,QGAM] = [ 11.34, 22.83] = [ 36.00,145.93] Ry 
 Optimized for a Real-space Cutoff    1.61 Angstroem

   l    n(q)    QCUT    max X(q) W(low)/X(q) W(high)/X(q)  e(spline) 
   1     11    11.338     4.092    0.40E-05    0.64E-05    0.47E-07
   1     11    11.338     4.834    0.13E-04    0.44E-04    0.21E-06
   2     10    11.338    62.294    0.15E-03    0.31E-03    0.77E-06
   2     10    11.338    50.966    0.15E-03    0.31E-03    0.77E-06
   0     11    11.338   103.792    0.33E-04    0.19E-04    0.90E-07
   0     11    11.338    56.335    0.26E-04    0.17E-04    0.79E-07
 Optimization of the real space projectors (new method)

 maximal supplied QI-value         = 16.25
 optimisation between [QCUT,QGAM] = [ 11.38, 22.75] = [ 36.24,144.96] Ry 
 Optimized for a Real-space Cutoff    1.47 Angstroem

   l    n(q)    QCUT    max X(q) W(low)/X(q) W(high)/X(q)  e(spline) 
   2      9    11.376    60.317    0.17E-03    0.16E-04    0.16E-06
   2      9    11.376    55.921    0.17E-03    0.16E-04    0.17E-06
   0     10    11.376    51.690    0.45E-04    0.60E-04    0.21E-06
   0     10    11.376    30.015    0.37E-04    0.55E-04    0.19E-06
   1     10    11.376    18.849    0.83E-04    0.11E-03    0.92E-07
   1     10    11.376    14.624    0.69E-04    0.92E-04    0.82E-07
 Optimization of the real space projectors (new method)

 maximal supplied QI-value         = 22.11
 optimisation between [QCUT,QGAM] = [ 11.28, 22.77] = [ 35.61,145.23] Ry 
 Optimized for a Real-space Cutoff    1.10 Angstroem

   l    n(q)    QCUT    max X(q) W(low)/X(q) W(high)/X(q)  e(spline) 
   0      7    11.276    10.506    0.54E-04    0.58E-04    0.16E-07
   0      7    11.276     8.367    0.11E-03    0.14E-03    0.35E-07
   1      7    11.276     8.983    0.23E-03    0.43E-03    0.86E-07
 Optimization of the real space projectors (new method)

 maximal supplied QI-value         = 24.76
 optimisation between [QCUT,QGAM] = [ 11.39, 22.77] = [ 36.31,145.25] Ry 
 Optimized for a Real-space Cutoff    1.10 Angstroem

   l    n(q)    QCUT    max X(q) W(low)/X(q) W(high)/X(q)  e(spline) 
   0      7    11.387    20.381    0.22E-03    0.48E-03    0.18E-06
   0      7    11.387    15.268    0.22E-03    0.52E-03    0.19E-06
   1      7    11.387     5.964    0.22E-03    0.73E-03    0.24E-06
   1      7    11.387     5.382    0.19E-03    0.60E-03    0.21E-06

 ----------------------------------------------------------------------------- 
|                                                                             |
|  ADVICE TO THIS USER RUNNING 'VASP/VAMP'   (HEAR YOUR MASTER'S VOICE ...):  |
|                                                                             |
|      You enforced a specific xc-type in the INCAR file,                     |
|      a different type was found on the POTCAR file                          |
|          I HOPE YOU KNOW, WHAT YOU ARE  DOING                               |
|                                                                             |
 ----------------------------------------------------------------------------- 

  PAW_PBE Ta_pv 07Sep2000               :
 energy of atom  1       EATOM=-1047.1984
 kinetic energy error for atom=    0.0019 (will be added to EATOM!!)
  PAW_PBE Ni 02Aug2007                  :
 energy of atom  2       EATOM=-1077.6739
 kinetic energy error for atom=    0.0030 (will be added to EATOM!!)
  PAW_PBE Li_sv 10Sep2004               :
 energy of atom  3       EATOM= -202.7858
 kinetic energy error for atom=    0.0143 (will be added to EATOM!!)
  PAW_PBE O 08Apr2002                   :
 energy of atom  4       EATOM= -432.3788
 kinetic energy error for atom=    0.0224 (will be added to EATOM!!)
 
 
 POSCAR: ce402163_1                              
  positions in direct lattice
  No initial velocities read in
 exchange correlation table for  LEXCH =       14
   RHO(1)=    0.500       N(1)  =     2000
   RHO(2)=  100.500       N(2)  =     4000
 


--------------------------------------------------------------------------------------------------------


 ion  position               nearest neighbor table
   1  1.000  0.001  0.000-  57 1.98  93 2.00 105 2.00  60 2.01  72 2.02 108 2.02  12 2.87  21 2.87
                            16 2.88  53 3.02  29 3.04  47 3.05   4 3.17   6 3.17   9 3.17
   2  0.889  0.333  0.220-  56 2.00  71 2.00  74 2.01  59 2.01  80 2.01  77 2.01  30 2.90  37 2.90
                            36 2.91  28 2.91  39 2.94  40 2.94  26 2.95  22 2.95  13 2.95  10 2.97
   3  0.138  0.664  0.109-  64 1.92  61 1.93  94 1.98  79 2.03  58 2.10  55 2.16  11 2.79  23 2.82
                            18 2.86  32 2.97  27 3.03  15 3.03  47 3.04  31 3.05   5 3.17
   4  0.358  0.003  0.001-  99 1.91  66 1.94  63 1.98  96 2.02  93 2.10  60 2.16  12 2.80  19 2.82
                            24 2.84  50 2.92  21 3.02  16 3.05  33 3.06  32 3.08  30 3.10   1 3.17
   5  0.778  0.665  0.111-  58 1.98  70 2.00 106 2.00  73 2.01  55 2.02  67 2.02  27 2.87  11 2.87
                            15 2.88  53 3.02  29 3.04  35 3.05   7 3.17   3 3.17   8 3.17
   6  0.640  0.003  0.357-  75 1.92  90 1.93  69 1.98  78 2.03  57 2.10  72 2.16  21 2.79  19 2.82
                            24 2.86  38 2.97  12 3.03  16 3.03  35 3.04  45 3.05   1 3.17
   7  0.420  0.663  0.470-  88 1.91  91 1.94  76 1.98  85 2.02  70 2.10  73 2.16  27 2.80  23 2.82
                            18 2.84  44 2.92  11 3.02  15 3.05  46 3.06  38 3.08  37 3.10   5 3.17
   8  0.778  0.662  0.752-  82 1.91  97 1.94 100 1.97 103 2.02 106 2.10  67 2.18  15 2.77  18 2.83
                            23 2.84  41 2.97  50 3.01  27 3.01  11 3.05  49 3.05  53 3.09   5 3.17
   9  1.000  0.005  0.641-  81 1.91  84 1.94  87 1.97 102 2.02 105 2.10 108 2.18  16 2.77  24 2.83
                            19 2.84  41 2.97  44 3.01  12 3.01  21 3.05  42 3.05  53 3.09   1 3.17
  10  0.225  0.333  0.221-  83 2.01  62 2.01  65 2.03  86 2.03  59 2.09  80 2.11  42 2.73  43 2.73
                            33 2.76  31 2.77  30 2.79  13 2.91  25 2.93  20 2.94  22 2.95  17 2.97
  11  0.451  0.664  0.114- 100 2.00  85 2.04  70 2.13  64 2.14  67 2.18  61 2.21   3 2.79   5 2.87
                            18 2.97  23 3.00   7 3.02   8 3.05
  12  0.677  0.003  0.997-  69 2.01 102 2.03 105 2.14  99 2.14  72 2.17  66 2.23   4 2.80   1 2.87
                            24 2.96  19 2.99   9 3.01   6 3.03
  13  0.553  0.334  0.223-  89 2.01  65 2.01  68 2.02  86 2.03  74 2.09  71 2.11  33 2.73  34 2.76
                            43 2.78  45 2.79  36 2.81  37 2.84  10 2.91  20 2.93  25 2.94  14 2.95
  14  0.553  0.333  0.557-  98 2.01  89 2.01  92 2.03  95 2.03  74 2.09  77 2.11  49 2.73  48 2.73
                            46 2.76  45 2.77  37 2.79  22 2.91  20 2.93  25 2.94  13 2.95  17 2.97
  15  0.780  0.663  0.436-  76 2.02  79 2.05  58 2.12  82 2.14  73 2.18  97 2.22   8 2.77   5 2.88
                            18 2.96  23 2.99   3 3.03   7 3.05
  16  0.997  0.003  0.328-  63 2.02  78 2.05  57 2.12  81 2.14  60 2.18  84 2.22   9 2.77   1 2.88
                            24 2.96  19 2.99   6 3.03   4 3.05
  17  0.889  0.333  0.558-  98 2.01  83 2.01 101 2.02 104 2.02  80 2.11  77 2.11  42 2.76  49 2.76
                            51 2.77  52 2.77  39 2.81  40 2.81  26 2.89  25 2.93  20 2.93  14 2.97
  18  0.111  0.665  0.445-  85 2.06 103 2.06  79 2.08  88 2.11  64 2.11  82 2.11   8 2.83   7 2.84
                             3 2.86  15 2.96  27 2.96  11 2.97
  19  0.334  0.003  0.332-  87 2.03  63 2.05  69 2.06  90 2.13  66 2.14  84 2.17   4 2.82   6 2.82
                             9 2.84  16 2.99  12 2.99  21 3.00
  20  0.223  0.332  0.555- 104 1.92  92 1.92  86 1.92  83 1.93  89 1.94 107 1.94  45 2.72  54 2.72
                            52 2.73  42 2.77  46 2.78  43 2.79  14 2.93  13 2.93  26 2.93  17 2.93
  21  0.326  0.003  0.676-  87 2.00  96 2.04  93 2.13  75 2.14 108 2.18  90 2.21   6 2.79   1 2.87
                            24 2.97  19 3.00   4 3.02   9 3.05
  22  0.225  0.333  0.887-  62 2.01  92 2.01 107 2.02  95 2.03  59 2.09  56 2.11  46 2.73  54 2.76
                            48 2.78  31 2.79  28 2.81  30 2.84  14 2.91  25 2.93  20 2.94  10 2.95
  23  0.444  0.663  0.777- 100 2.03  76 2.05  94 2.06  61 2.13  91 2.14  97 2.17   7 2.82   3 2.82
                             8 2.84  15 2.99  27 2.99  11 3.00
  24  0.667  0.002  0.667-  96 2.06 102 2.06  78 2.08  99 2.11  75 2.11  81 2.11   9 2.83   4 2.84
                             6 2.86  16 2.96  12 2.96  21 2.97
  25  0.555  0.335  0.889- 101 1.92  65 1.92  95 1.92  98 1.93  62 1.94  68 1.94  31 2.72  34 2.72
                            51 2.73  49 2.77  33 2.78  48 2.79  10 2.93  22 2.93  26 2.93  17 2.93
  26  0.889  0.333  0.886-  68 2.02 107 2.02 104 2.03 101 2.03  56 2.11  71 2.11  54 2.75  34 2.75
                            51 2.80  52 2.80  36 2.84  28 2.84  17 2.89  20 2.93  25 2.93   2 2.95
  27  0.101  0.664  0.785-  94 2.01 103 2.03 106 2.14  88 2.14  55 2.17  91 2.23   7 2.80   5 2.87
                            18 2.96  23 2.99   8 3.01   3 3.03
  28  0.012  0.490  0.984-  59 2.04 107 2.06  71 2.07  94 2.14  58 2.18  22 2.81  26 2.84   2 2.91

  29  0.889  0.833  0.234-  79 2.05  78 2.05  55 2.07  72 2.07  73 2.24  60 2.24   5 3.04   1 3.04

  30  0.125  0.177  0.110-  80 2.01  93 2.07  56 2.08  62 2.08  63 2.14  10 2.79  22 2.84   2 2.90
                             4 3.10
  31  0.339  0.483  0.998-  65 1.98  95 1.99  59 2.07  64 2.22  25 2.72  10 2.77  22 2.79   3 3.05

  32  0.222  0.833  0.238-  84 2.03  66 2.05  85 2.12  79 2.16  61 2.18   3 2.97   4 3.08
  33  0.449  0.184  0.113-  68 2.00  62 2.05  86 2.08  99 2.22  13 2.73  10 2.76  25 2.78   4 3.06

  34  0.666  0.482  0.998- 101 1.98  65 1.98  71 2.04 106 2.15  25 2.72  26 2.75  13 2.76
  35  0.546  0.835  0.217-  66 2.01  90 2.07  85 2.10  73 2.11  67 2.21  72 2.24   6 3.04   5 3.05

  36  0.766  0.177  0.107-  74 2.04  68 2.06  56 2.07  69 2.14  57 2.18  13 2.81  26 2.84   2 2.91

  37  0.653  0.489  0.346-  77 2.01  70 2.07  71 2.08  89 2.08  76 2.14  14 2.79  13 2.84   2 2.90
                             7 3.10
  38  0.556  0.834  0.571-  97 2.03  91 2.05  96 2.12  78 2.16  90 2.18   6 2.97   7 3.08
  39  0.776  0.176  0.460-  80 2.03  81 2.06  98 2.09  74 2.12  75 2.13  17 2.81   2 2.94
  40  0.002  0.491  0.348-  77 2.03  82 2.06  83 2.09  59 2.12  64 2.13  17 2.81   2 2.94
  41  0.889  0.833  0.541-  97 2.05  84 2.05  79 2.12  78 2.12 103 2.25 102 2.25   8 2.97   9 2.97

  42  0.113  0.184  0.437-  86 1.99  80 2.00 104 2.03  81 2.22  10 2.73  17 2.76  20 2.77   9 3.05

  43  0.327  0.483  0.332-  83 2.00  89 2.08  65 2.10  64 2.19  88 2.22  10 2.73  13 2.78  20 2.79

  44  0.222  0.835  0.557-  84 2.03  91 2.06  90 2.12 108 2.16  85 2.18 103 2.23   7 2.92   9 3.01

  45  0.439  0.184  0.449-  92 1.98  86 1.99  74 2.07  75 2.22  20 2.72  14 2.77  13 2.79   6 3.05

  46  0.329  0.482  0.673- 107 2.00  89 2.05  95 2.08  88 2.22  22 2.73  14 2.76  20 2.78   7 3.06

  47  0.232  0.831  0.874-  91 2.01  61 2.07  96 2.10  60 2.11 108 2.21  55 2.24   3 3.04   1 3.05

  48  0.451  0.183  0.770-  98 2.00  62 2.08  92 2.10  75 2.19  99 2.22  14 2.73  22 2.78  25 2.79

  49  0.665  0.482  0.661-  95 1.99  77 2.00 101 2.03  82 2.22  14 2.73  17 2.76  25 2.77   8 3.05

  50  0.556  0.832  0.890-  97 2.03  66 2.06  61 2.12  67 2.16  96 2.18 102 2.23   4 2.92   8 3.01

  51  0.766  0.183  0.781-  98 1.99  68 2.01  99 2.17 104 2.20  81 2.21  25 2.73  17 2.77  26 2.80

  52  0.012  0.483  0.658-  83 1.99 107 2.01  88 2.17 101 2.20  82 2.21  20 2.73  17 2.77  26 2.80

  53  0.889  0.833  0.880-  67 2.00 108 2.00 103 2.08 102 2.08  55 2.27  72 2.27   5 3.02   1 3.02
                             8 3.09   9 3.09
  54  0.112  0.185  0.775- 104 1.98  92 1.98  56 2.04 105 2.15  20 2.72  26 2.75  22 2.76
  55  0.991  0.745  0.022-   5 2.02  29 2.07   3 2.16  27 2.17  47 2.24  53 2.27
  56  0.995  0.252  0.009-   2 2.00  54 2.04  36 2.07  30 2.08  26 2.11  22 2.11
  57  0.873  0.078  0.214-   1 1.98   6 2.10  16 2.12  36 2.18
  58  0.905  0.589  0.198-   5 1.98   3 2.10  15 2.12  28 2.18
  59  0.104  0.413  0.114-   2 2.01  28 2.04  31 2.07  22 2.09  10 2.09  40 2.12
  60  0.125  0.922  0.089-   1 2.01  47 2.11   4 2.16  16 2.18  29 2.24
  61  0.327  0.751  0.001-   3 1.93  47 2.07  50 2.12  23 2.13  32 2.18  11 2.21
  62  0.342  0.263  0.996-  25 1.94  10 2.01  22 2.01  33 2.05  48 2.08  30 2.08
  63  0.221  0.077  0.217-   4 1.98  16 2.02  19 2.05  30 2.14
  64  0.220  0.581  0.220-   3 1.92  18 2.11  40 2.13  11 2.14  43 2.19  31 2.22
  65  0.451  0.406  0.101-  25 1.92  34 1.98  31 1.98  13 2.01  10 2.03  43 2.10
  66  0.439  0.915  0.109-   4 1.94  35 2.01  32 2.05  50 2.06  19 2.14  12 2.23
  67  0.689  0.746  0.987-  53 2.00   5 2.02  50 2.16  11 2.18   8 2.18  35 2.21
  68  0.662  0.263  0.996-  25 1.94  33 2.00  51 2.01  26 2.02  13 2.02  36 2.06
  69  0.563  0.077  0.220-   6 1.98  12 2.01  19 2.06  36 2.14
  70  0.564  0.587  0.239-   5 2.00  37 2.07   7 2.10  11 2.13
  71  0.783  0.414  0.115-   2 2.00  34 2.04  28 2.07  37 2.08  26 2.11  13 2.11
  72  0.786  0.921  0.125-   1 2.02  29 2.07   6 2.16  12 2.17  35 2.24  53 2.27
  73  0.653  0.745  0.325-   5 2.01  35 2.11   7 2.16  15 2.18  29 2.24
  74  0.674  0.254  0.329-   2 2.01  36 2.04  45 2.07  13 2.09  14 2.09  39 2.12
  75  0.557  0.086  0.552-   6 1.92  24 2.11  39 2.13  21 2.14  48 2.19  45 2.22
  76  0.557  0.590  0.549-   7 1.98  15 2.02  23 2.05  37 2.14
  77  0.782  0.413  0.435-  49 2.00   2 2.01  37 2.01  40 2.03  14 2.11  17 2.11
  78  0.776  0.925  0.439-   6 2.03  16 2.05  29 2.05  24 2.08  41 2.12  38 2.16
  79  0.002  0.742  0.326-   3 2.03  15 2.05  29 2.05  18 2.08  41 2.12  32 2.16
  80  0.995  0.253  0.328-  42 2.00   2 2.01  30 2.01  39 2.03  10 2.11  17 2.11
  81  0.889  0.087  0.558-   9 1.91  39 2.06  24 2.11  16 2.14  51 2.21  42 2.22
  82  0.888  0.579  0.559-   8 1.91  40 2.06  18 2.11  15 2.14  52 2.21  49 2.22
  83  0.116  0.403  0.448-  20 1.93  52 1.99  43 2.00  10 2.01  17 2.01  40 2.09
  84  0.106  0.914  0.454-   9 1.94  44 2.03  32 2.03  41 2.05  19 2.17  16 2.22
  85  0.338  0.741  0.335-   7 2.02  11 2.04  18 2.06  35 2.10  32 2.12  44 2.18
  86  0.328  0.260  0.344-  20 1.92  45 1.99  42 1.99  10 2.03  13 2.03  33 2.08
  87  0.218  0.075  0.561-   9 1.97  21 2.00  19 2.03
  88  0.226  0.581  0.555-   7 1.91  18 2.11  27 2.14  52 2.17  43 2.22  46 2.22
  89  0.436  0.404  0.449-  20 1.94  14 2.01  13 2.01  46 2.05  43 2.08  37 2.08
  90  0.451  0.916  0.439-   6 1.93  35 2.07  44 2.12  19 2.13  38 2.18  21 2.21
  91  0.339  0.752  0.658-   7 1.94  47 2.01  38 2.05  44 2.06  23 2.14  27 2.23
  92  0.327  0.261  0.662-  20 1.92  54 1.98  45 1.98  22 2.01  14 2.03  48 2.10
  93  0.213  0.079  0.914-   1 2.00  30 2.07   4 2.10  21 2.13
  94  0.215  0.590  0.894-   3 1.98  27 2.01  23 2.06  28 2.14
  95  0.450  0.407  0.783-  25 1.92  31 1.99  49 1.99  14 2.03  22 2.03  46 2.08
  96  0.440  0.926  0.785-   4 2.02  21 2.04  24 2.06  47 2.10  38 2.12  50 2.18
  97  0.671  0.752  0.671-   8 1.94  50 2.03  38 2.03  41 2.05  23 2.17  15 2.22
  98  0.662  0.264  0.675-  25 1.93  51 1.99  48 2.00  14 2.01  17 2.01  39 2.09
  99  0.552  0.086  0.891-   4 1.91  24 2.11  12 2.14  51 2.17  48 2.22  33 2.22
 100  0.560  0.592  0.890-   8 1.97  11 2.00  23 2.03
 101  0.766  0.406  0.783-  25 1.92  34 1.98  17 2.02  26 2.03  49 2.03  52 2.20
 102  0.786  0.926  0.777-   9 2.02  12 2.03  24 2.06  53 2.08  50 2.23  41 2.25
 103  0.992  0.741  0.673-   8 2.02  27 2.03  18 2.06  53 2.08  44 2.23  41 2.25
 104  0.012  0.261  0.660-  20 1.92  54 1.98  17 2.02  26 2.03  42 2.03  51 2.20
 105  0.914  0.080  0.873-   1 2.00   9 2.10  12 2.14  54 2.15
 106  0.863  0.587  0.898-   5 2.00   8 2.10  27 2.14  34 2.15
 107  0.115  0.404  0.769-  20 1.94  46 2.00  52 2.01  26 2.02  22 2.02  28 2.06
 108  0.089  0.921  0.786-  53 2.00   1 2.02  44 2.16  21 2.18   9 2.18  47 2.21
 
  LATTYP: Found a base centered monoclinic cell.
 ALAT       =    32.9385671478
 B/A-ratio  =     0.2679233463
 C/A-ratio  =     0.6419236624
 COS(beta)  =    -0.9151043587
  
  Lattice vectors:
  
 A1 = (   8.8393621984,  14.5798873334,  -0.0082855487)
 A2 = (   4.4268566052,  14.5798873334,  -7.6509693619)
 A3 = ( -13.2569905619, -14.5856185860,   7.6539269988)


Analysis of symmetry for initial positions (statically):
=====================================================================
 Subroutine PRICEL returns:
 Original cell was already a primitive cell.
 

 Routine SETGRP: Setting up the symmetry group for a 
 base centered monoclinic supercell.


 Subroutine GETGRP returns: Found  2 space group operations
 (whereof  1 operations were pure point group operations)
 out of a pool of  4 trial point group operations.


The static configuration has the point symmetry C_1 .
 The point group associated with its full space group is C_2 .


Analysis of symmetry for dynamics (positions and initial velocities):
=====================================================================
 Subroutine PRICEL returns:
 Original cell was already a primitive cell.
 

 Routine SETGRP: Setting up the symmetry group for a 
 base centered monoclinic supercell.


 Subroutine GETGRP returns: Found  2 space group operations
 (whereof  1 operations were pure point group operations)
 out of a pool of  4 trial point group operations.


The dynamic configuration has the point symmetry C_1 .
 The point group associated with its full space group is C_2 .


Analysis of structural, dynamic, and magnetic symmetry:
=====================================================================
 Subroutine PRICEL returns:
 Original cell was already a primitive cell.
 

 Routine SETGRP: Setting up the symmetry group for a 
 base centered monoclinic supercell.


 Subroutine GETGRP returns: Found  2 space group operations
 (whereof  1 operations were pure point group operations)
 out of a pool of  4 trial point group operations.


The magnetic configuration has the point symmetry C_1 .
 The point group associated with its full space group is C_2 .


 Subroutine INISYM returns: Found  2 space group operations
 (whereof  1 operations are pure point group operations),
 and found     1 'primitive' translations

 
 
 KPOINTS: Automatic mesh                          

Automatic generation of k-mesh.
Space group operators:
 irot       det(A)        alpha          n_x          n_y          n_z        tau_x        tau_y        tau_z
    1     1.000000     0.000000     1.000000     0.000000     0.000000     0.000000     0.000000     0.000000
    2     1.000000   180.000000    -0.500000     0.000000    -0.866025    -0.222222     0.666667     0.111111
 
 Subroutine IBZKPT returns following result:
 ===========================================
 
 Found      1 irreducible k-points:
 
 Following reciprocal coordinates:
            Coordinates               Weight
  0.000000  0.000000  0.000000      1.000000
 
 Following cartesian coordinates:
            Coordinates               Weight
  0.000000  0.000000  0.000000      1.000000
 


--------------------------------------------------------------------------------------------------------




 Dimension of arrays:
   k-points           NKPTS =      1   k-points in BZ     NKDIM =      1   number of bands    NBANDS=    448
   number of dos      NEDOS =    301   number of ions     NIONS =    108
   non local maximal  LDIM  =      6   non local SUM 2l+1 LMDIM =     18
   total plane-waves  NPLWV = 442368
   max r-space proj   IRMAX =   7927   max aug-charges    IRDMAX=  25459
   dimension x,y,z NGX =    64 NGY =  108 NGZ =   64
   dimension x,y,z NGXF=   128 NGYF=  216 NGZF=  128
   support grid    NGXF=   128 NGYF=  216 NGZF=  128
   ions per type =               9  18  27  54
   NGX,Y,Z   is equivalent  to a cutoff of  12.05, 12.32, 12.06 a.u.
   NGXF,Y,Z  is equivalent  to a cutoff of  24.10, 24.64, 24.11 a.u.

 SYSTEM =  unknown system                          
 POSCAR =  ce402163_1                              

 Startparameter for this run:
   NWRITE =      1    write-flag & timer
   PREC   = accura    normal or accurate (medium, high low for compatibility)
   ISTART =      0    job   : 0-new  1-cont  2-samecut
   ICHARG =      2    charge: 1-file 2-atom 10-const
   ISPIN  =      2    spin polarized calculation?
   LNONCOLLINEAR =      F non collinear calculations
   LSORBIT =      F    spin-orbit coupling
   INIWAV =      1    electr: 0-lowe 1-rand  2-diag
   LASPH  =      F    aspherical Exc in radial PAW
   METAGGA=      F    non-selfconsistent MetaGGA calc.

 Electronic Relaxation 1
   ENCUT  =  500.0 eV  36.75 Ry    6.06 a.u.  16.10 26.57 16.09*2*pi/ulx,y,z
   ENINI  =  500.0     initial cutoff
   ENAUG  =  628.9 eV  augmentation charge cutoff
   NELM   =     80;   NELMIN=  2; NELMDL= -5     # of ELM steps 
   EDIFF  = 0.1E-04   stopping-criterion for ELM
   LREAL  =      T    real-space projection
   NLSPLINE    = F    spline interpolate recip. space projectors
   LCOMPAT=      F    compatible to vasp.4.4
   GGA_COMPAT  = T    GGA compatible to vasp.4.4-vasp.4.6
   LMAXPAW     = -100 max onsite density
   LMAXMIX     =    2 max onsite mixed and CHGCAR
   VOSKOWN=      1    Vosko Wilk Nusair interpolation
   ROPT   =   -0.00025  -0.00025  -0.00025  -0.00025
 Ionic relaxation
   EDIFFG = -.2E-01   stopping-criterion for IOM
   NSW    =     20    number of steps for IOM
   NBLOCK =      1;   KBLOCK =     20    inner block; outer block 
   IBRION =      1    ionic relax: 0-MD 1-quasi-New 2-CG
   NFREE  =      0    steps in history (QN), initial steepest desc. (CG)
   ISIF   =      3    stress and relaxation
   IWAVPR =     11    prediction:  0-non 1-charg 2-wave 3-comb
   ISYM   =      2    0-nonsym 1-usesym 2-fastsym
   LCORR  =      T    Harris-Foulkes like correction to forces

   POTIM  = 0.5000    time-step for ionic-motion
   TEIN   =    0.0    initial temperature
   TEBEG  =    0.0;   TEEND  =   0.0 temperature during run
   SMASS  =  -3.00    Nose mass-parameter (am)
   estimated Nose-frequenzy (Omega)   =  0.10E-29 period in steps =****** mass=  -0.178E-26a.u.
   SCALEE = 1.0000    scale energy and forces
   NPACO  =    256;   APACO  = 16.0  distance and # of slots for P.C.
   PSTRESS=    0.0 pullay stress

  Mass of Ions in am
   POMASS = 180.95 58.69  7.01 16.00
  Ionic Valenz
   ZVAL   =  11.00 10.00  3.00  6.00
  Atomic Wigner-Seitz radii
   RWIGS  =   1.34  1.15  1.23  0.73
  virtual crystal weights 
   VCA    =   1.00  1.00  1.00  1.00
   NELECT =     684.0000    total number of electrons
   NUPDOWN=      -1.0000    fix difference up-down

 DOS related values:
   EMIN   =  10.00;   EMAX   =-10.00  energy-range for DOS
   EFERMI =   0.00
   ISMEAR =     0;   SIGMA  =   0.05  broadening in eV -4-tet -1-fermi 0-gaus

 Electronic relaxation 2 (details)
   IALGO  =     38    algorithm
   LDIAG  =      T    sub-space diagonalisation (order eigenvalues)
   LSUBROT=      F    optimize rotation matrix (better conditioning)
   TURBO    =      0    0=normal 1=particle mesh
   IRESTART =      0    0=no restart 2=restart with 2 vectors
   NREBOOT  =      0    no. of reboots
   NMIN     =      0    reboot dimension
   EREF     =   0.00    reference energy to select bands
   IMIX   =      4    mixing-type and parameters
     AMIX     =   0.40;   BMIX     =  1.00
     AMIX_MAG =   1.60;   BMIX_MAG =  1.00
     AMIN     =   0.10
     WC   =   100.;   INIMIX=   1;  MIXPRE=   1;  MAXMIX= -45

 Intra band minimization:
   WEIMIN = 0.0010     energy-eigenvalue tresh-hold
   EBREAK =  0.56E-08  absolut break condition
   DEPER  =   0.30     relativ break condition  

   TIME   =   0.40     timestep for ELM

  volume/ion in A,a.u.               =       9.11        61.47
  Fermi-wavevector in a.u.,A,eV,Ry     =   1.450330  2.740726 28.619261  2.103456
  Thomas-Fermi vector in A             =   2.567954
 
 Write flags
   LWAVE        =      F    write WAVECAR
   LDOWNSAMPLE  =      F    k-point downsampling of WAVECAR
   LCHARG       =      T    write CHGCAR
   LVTOT        =      F    write LOCPOT, total local potential
   LVHAR        =      F    write LOCPOT, Hartree potential only
   LELF         =      F    write electronic localiz. function (ELF)
   LORBIT       =      0    0 simple, 1 ext, 2 COOP (PROOUT), +10 PAW based schemes


 Dipole corrections
   LMONO  =      F    monopole corrections only (constant potential shift)
   LDIPOL =      F    correct potential (dipole corrections)
   IDIPOL =      0    1-x, 2-y, 3-z, 4-all directions 
   EPSILON=  1.0000000 bulk dielectric constant

 Exchange correlation treatment:
   GGA     =    PS    GGA type
   LEXCH   =    14    internal setting for exchange type
   VOSKOWN=      1    Vosko Wilk Nusair interpolation
   LHFCALC =     F    Hartree Fock is set to
   LHFONE  =     F    Hartree Fock one center treatment
   AEXX    =    0.0000 exact exchange contribution

 Linear response parameters
   LEPSILON=     F    determine dielectric tensor
   LRPA    =     F    only Hartree local field effects (RPA)
   LNABLA  =     F    use nabla operator in PAW spheres
   LVEL    =     F    velocity operator in full k-point grid
   LINTERFAST=   F  fast interpolation
   KINTER  =     0    interpolate to denser k-point grid
   CSHIFT  =0.1000    complex shift for real part using Kramers Kronig
   OMEGAMAX=  -1.0    maximum frequency
   DEG_THRESHOLD= 0.2000000E-02 threshold for treating states as degnerate
   RTIME   =   -0.100 relaxation time in fs
  (WPLASMAI=    0.000 imaginary part of plasma frequency in eV, 0.658/RTIME)
   DFIELD  = 0.0000000 0.0000000 0.0000000 field for delta impulse in time
 
 Orbital magnetization related:
   ORBITALMAG=     F  switch on orbital magnetization
   LCHIMAG   =     F  perturbation theory with respect to B field
   DQ        =  0.001000  dq finite difference perturbation B field
   LLRAUG    =     F  two centre corrections for induced B field



--------------------------------------------------------------------------------------------------------


 quasi-Newton-method for relaxation of ions
 charge density and potential will be updated during run
 spin polarized calculation
 Variant of blocked Davidson
 Davidson routine will perform the subspace rotation
 perform sub-space diagonalisation
    after iterative eigenvector-optimisation
 modified Broyden-mixing scheme, WC =      100.0
 initial mixing is a Kerker type mixing with AMIX =  0.4000 and BMIX =      1.0000
 Hartree-type preconditioning will be used
 using additional bands          106
 real space projection scheme for non local part
 use partial core corrections
 calculate Harris-corrections to forces 
   (improved forces if not selfconsistent)
 use gradient corrections 
 use of overlap-Matrix (Vanderbilt PP)
 Gauss-broadening in eV      SIGMA  =   0.05


--------------------------------------------------------------------------------------------------------


  energy-cutoff  :      500.00
  volume of cell :      983.74
      direct lattice vectors                 reciprocal lattice vectors
     8.830133957  0.005731253 -0.002957637     0.113226731 -0.000095592 -0.065371484
     0.009228242 14.574156081 -0.005327912    -0.000044526  0.068614645  0.000025707
     4.412505593  0.000000000  7.642683813     0.000043786  0.000047796  0.130818809

  length of vectors
     8.830136312 14.574159976  8.825011132     0.130743003  0.068614664  0.130818825


 
 k-points in units of 2pi/SCALE and weight: Automatic mesh                          
   0.00000000  0.00000000  0.00000000       1.000
 
 k-points in reciprocal lattice and weights: Automatic mesh                          
   0.00000000  0.00000000  0.00000000       1.000
 
 position of ions in fractional coordinates (direct lattice) 
   0.99996654  0.00146105  0.00039702
   0.88888889  0.33333333  0.22025935
   0.13768827  0.66363329  0.10865616
   0.35813565  0.00339930  0.00092806
   0.77781124  0.66520562  0.11147467
   0.64008951  0.00303338  0.35745554
   0.41964213  0.66326737  0.47017482
   0.77788267  0.66215078  0.75197412
   0.99989511  0.00451589  0.64096790
   0.22489449  0.33317131  0.22147690
   0.45134133  0.66350237  0.11352796
   0.67682610  0.00310320  0.99749150
   0.55315229  0.33378515  0.22292665
   0.55288328  0.33349535  0.55748252
   0.78028381  0.66318203  0.43636085
   0.99749397  0.00348464  0.32775577
   0.88888888  0.33333333  0.55844567
   0.11093862  0.66489969  0.44511097
   0.33376819  0.00340258  0.33224590
   0.22251734  0.33205064  0.55547819
   0.32643645  0.00316430  0.67598040
   0.22462549  0.33288151  0.88719005
   0.44400959  0.66326409  0.77712520
   0.66683916  0.00176698  0.66716070
   0.55526043  0.33461602  0.88910664
   0.88888889  0.33333333  0.88588033
   0.10095168  0.66356347  0.78542870
   0.01159608  0.48968471  0.98421934
   0.88888889  0.83333333  0.23449515
   0.12485661  0.17739921  0.10955229
   0.33899520  0.48304068  0.99842351
   0.22227575  0.83306474  0.23786030
   0.44850468  0.18448915  0.11306787
   0.66592471  0.48157443  0.99806234
   0.54561735  0.83518795  0.21724726
   0.76618170  0.17698196  0.10692653
   0.65292117  0.48926746  0.34552001
   0.55550202  0.83360192  0.57124717
   0.77620690  0.17559772  0.46026575
   0.00157088  0.49106895  0.34758376
   0.88888888  0.83333333  0.54093400
   0.11251671  0.18448388  0.43744875
   0.32710635  0.48317058  0.33204500
   0.22163513  0.83478469  0.55691418
   0.43878258  0.18362599  0.44852982
   0.32927310  0.48217752  0.67268366
   0.23216043  0.83147871  0.87397572
   0.45067143  0.18349609  0.77026246
   0.66526107  0.48218279  0.66107657
   0.55614264  0.83188197  0.88966042
   0.76600581  0.18331617  0.78130479
   0.01177197  0.48335050  0.65842171
   0.88888889  0.83333333  0.87984798
   0.11185307  0.18509224  0.77509816
   0.99144002  0.74527555  0.02207302
   0.99504446  0.25244181  0.00891681
   0.87259981  0.07768352  0.21408264
   0.90517797  0.58898314  0.19779356
   0.10369136  0.41263184  0.11443898
   0.12514318  0.92209468  0.08863195
   0.32690967  0.75082134  0.00079691
   0.34217170  0.26266658  0.99595122
   0.22104283  0.07689421  0.21689345
   0.22048203  0.58089523  0.22037802
   0.45071705  0.40578116  0.10058604
   0.43868691  0.91456483  0.10856359
   0.68866579  0.74555540  0.98655054
   0.66246671  0.26272400  0.99591197
   0.56272775  0.07704795  0.22017940
   0.56427979  0.58737727  0.23863998
   0.78273332  0.41422486  0.11507238
   0.78633776  0.92139112  0.12462416
   0.65263460  0.74457199  0.32488624
   0.67408642  0.25403483  0.32924145
   0.55729574  0.08577143  0.55197118
   0.55673494  0.58977245  0.54904740
   0.78237886  0.41337191  0.43469635
   0.77588385  0.92469263  0.43877851
   0.00189393  0.74197404  0.32577347
   0.99539892  0.25329476  0.32818632
   0.88948479  0.08729584  0.55797462
   0.88829297  0.57937082  0.55857052
   0.11617888  0.40270443  0.44789408
   0.10629243  0.91423361  0.45408089
   0.33825780  0.74079319  0.33536276
   0.32788063  0.26013821  0.34424183
   0.21757241  0.07480796  0.56109355
   0.22553981  0.58082518  0.55470851
   0.43560608  0.40400009  0.44923403
   0.45086811  0.91584533  0.43881769
   0.33909087  0.75210184  0.65836161
   0.32706073  0.26088551  0.66241420
   0.21349799  0.07928939  0.91403089
   0.21505003  0.58961871  0.89401826
   0.44989715  0.40652846  0.78323357
   0.43951998  0.92587348  0.78473167
   0.67148535  0.75243306  0.67148443
   0.66159890  0.26396224  0.67518407
   0.55223796  0.08584148  0.89135944
   0.56020536  0.59185870  0.88977707
   0.76574037  0.40583546  0.78323201
   0.78560560  0.92605931  0.77651774
   0.99217218  0.74060736  0.67323444
   0.01203741  0.26083121  0.66008349
   0.91437723  0.07978147  0.87262527
   0.86340055  0.58688519  0.89811360
   0.11531107  0.40394267  0.76948979
   0.08911199  0.92111127  0.78632744
 
 position of ions in cartesian coordinates  (Angst):
   8.83160384  0.02702463  0.00006898
   8.82397967  4.86314643  1.67896759
   1.70137595  9.67268428  0.82648166
   3.16651220  0.05159449  0.00601552
   7.36619873  9.69926836  0.84612102
   7.22937868  0.04787747  2.73001036
   5.78626604  9.66896725  3.58862251
  10.19300868  9.65474706  5.74127186
  11.65752388  0.07154594  4.89573361
   2.96619112  4.85697960  1.69023766
   4.49247012  9.67257385  0.86278832
  10.37793059  0.04910558  7.62149380
   5.87115416  4.86780713  1.70034350
   7.34500574  4.86358200  4.25725057
   8.82157526  9.66979042  3.32912683
  10.25426170  0.05650258  2.50196493
  10.31622861  4.86314643  4.26361870
   2.94979338  9.69098768  3.39797176
   4.41328612  0.05150264  2.53824507
   4.41897278  4.84063316  4.24291691
   5.86527408  0.04798789  5.16532212
   5.90127614  4.85275447  6.77807511
   7.35585421  9.66905910  5.93447516
   8.83214574  0.02957407  5.09691660
   8.82929992  4.87992844  6.79173586
  11.76103596  4.86314643  6.76609828
   4.36324891  9.67145616  5.99894923
   4.44978721  7.13680785  7.51943392
   8.89140933 12.15022447  1.78510335
   1.58753777  2.58615936  0.83595907
   7.40337997  7.04185313  7.62705898
   3.01997227 12.14248946  1.81279516
   4.46097152  2.69134416  0.86183252
  10.28860414  7.02235749  7.62333954
   5.78418636 12.17528661  1.65428857
   7.23893419  2.58375389  0.81399663
   7.29450545  7.13440238  2.63616231
   7.43348126 12.15222821  4.35977717
   8.88655656  2.56363722  3.51443429
   1.55211807  7.15692453  2.65385176
  10.24357239 12.15022447  4.12711859
   2.92548514  2.68934172  3.34196678
   4.35800212  7.04367818  2.53417319
   4.42215842 12.16755261  4.25121581
   5.85534384  2.67870861  3.42569549
   5.88019564  7.02921758  5.13756565
   5.91410354 12.11943107  6.67440340
   7.37996986  2.67688357  5.88456186
   8.79579813  7.03122002  5.04786257
   8.84412240 12.12716507  6.79331623
  10.21313736  2.67606865  5.96802321
   3.01369803  7.04449310  5.02949888
  11.73903231 12.15022447  6.71733098
   4.40951063  2.69820425  5.92251319
   8.85882309 10.86744438  0.16179403
   8.82805094  3.68482919  0.06386039
   8.65053094  1.13717284  1.63317120
   8.87104320  8.58912001  1.50585840
   1.42437910  6.01435512  0.87211579
   1.50462933 13.43946901  0.67210300
   2.89710131 10.94446100  0.00112334
   7.41848623  3.83010481  7.60932878
   2.90959096  1.12193507  1.65658461
   2.92466575  8.46732139  1.68053246
   4.42747304  5.91650113  0.76525228
   4.36114145 13.33152480  0.82354699
  10.44105112 10.86978768  7.53388477
  10.24656141  3.83277735  7.60808119
   5.94121526  1.12613398  1.68068669
   6.04108684  8.56376204  1.81905148
   7.42322016  6.04146380  0.87493982
   7.50187538 13.43300469  0.94522826
   7.20328438 10.85524881  2.47710554
   7.40739742  3.70620662  2.51294112
   7.35736348  1.25324021  4.21643594
   7.34416138  8.59862653  4.19140680
   8.83042491  6.02903075  3.31773036
   8.79580425 13.48106150  3.34622395
   1.46104803 10.81365632  2.48582485
  10.23996724  3.69726225  2.50393071
  10.31714157  1.27736106  4.26132772
  10.31378804  8.44893179  4.26326379
   3.00592646  5.86974307  3.42062365
   2.95064763 13.32479252  3.46521134
   4.47348796 10.79837422  2.55812421
   4.41659950  3.79317404  2.62857572
   4.39771230  1.09150985  4.28721852
   4.44456113  8.46632945  4.23570010
   5.83243592  5.89045694  3.42991281
   5.92596296 13.35025682  3.34753181
   5.90618267 10.96319302  5.02663958
   5.81330393  3.80406061  5.06026498
   5.91911397  1.15679956  6.98459519
   5.84922229  8.59442761  6.82892141
   7.43242615  5.92738770  5.98250995
   7.35219737 13.49634361  5.99122312
   8.89917803 10.96992531  5.12594828
   8.82369631  3.85081868  5.15685523
   8.81025584  1.25423214  6.81028769
   8.87829649  8.62905175  6.79547456
  10.22135082  5.91909799  5.98156757
  10.37193746 13.50103543  5.92742206
  11.73849849 10.79941365  5.13843758
   3.02132105  3.80146375  5.04338412
  11.92527356  1.16798812  6.66606956
  11.59228972  8.55830473  6.85831778
   4.41731788  5.88778440  5.87847394
   4.26504527 13.42493014  6.00448084
 


--------------------------------------------------------------------------------------------------------


 use serial FFT for orbitals x direction half grid
 k-point  1 :   0.0000 0.0000 0.0000  plane waves:   12458

 maximum and minimum number of plane-waves per node :     12458    12458

 maximum number of plane-waves:     12458
 maximum index in each direction: 
   IXMAX=   16   IYMAX=   26   IZMAX=   16
   IXMIN=    0   IYMIN=  -26   IZMIN=  -13

 The following grids will avoid any aliasing or wrap around errors in the Hartre
 e energy
  - symmetry arguments have not been applied
  - exchange correlation energies might require even more grid points
  - we recommend to set PREC=Normal or Accurate and rely on VASP defaults
 WARNING: aliasing errors must be expected set NGX to    70 to avoid them
 NGY is ok and might be reduce to   108
 NGZ is ok and might be reduce to    60

 serial   3D FFT for wavefunctions
 parallel 3D FFT for charge:
    minimum data exchange during FFTs selected (reduces bandwidth)


 total amount of memory used by VASP MPI-rank0   149431. kBytes
=======================================================================

   base      :      30000. kBytes
   nonlr-proj:      39632. kBytes
   fftplans  :       9349. kBytes
   grid      :      57131. kBytes
   one-center:       1679. kBytes
   wavefun   :      11640. kBytes
 
     INWAV:  cpu time    0.0000: real time    0.0000
 Broyden mixing: mesh for mixing (old mesh)
   NGX = 33   NGY = 53   NGZ = 33
  (NGX  =128   NGY  =216   NGZ  =128)
  gives a total of  57717 points

 initial charge density was supplied:
 charge density of overlapping atoms calculated
 number of electron     684.0000000 magnetization      45.0000000
 keeping initial charge density in first step


--------------------------------------------------------------------------------------------------------


 Maximum index for non-local projection operator         7704
 Maximum index for augmentation-charges         1566 (set IRDMAX)


--------------------------------------------------------------------------------------------------------


 First call to EWALD:  gamma=   0.178
 Maximum number of real-space cells 3x 2x 3
 Maximum number of reciprocal cells 2x 4x 2

    FEWALD:  cpu time    0.0039: real time    0.0039


--------------------------------------- Iteration      1(   1)  ---------------------------------------


    POTLOK:  cpu time    0.2359: real time    0.2376
    SETDIJ:  cpu time    0.0320: real time    0.0320
     EDDAV:  cpu time    4.1492: real time    4.1879
    --------------------------------------------
      LOOP:  cpu time    4.4175: real time    4.4581

 eigenvalue-minimisations  :  1824
 total energy-change (2. order) : 0.1158737E+05  (-0.3293264E+05)
 number of electron     684.0000000 magnetization      45.0000000
 augmentation part      684.0000000 magnetization      45.0000000

 Free energy of the ion-electron system (eV)
  ---------------------------------------------------
  alpha Z        PSCENC =      2956.06641708
  Ewald energy   TEWEN  =    -43484.00302586
  -Hartree energ DENC   =    -14556.17582993
  -exchange      EXHF   =         0.00000000
  -V(xc)+E(xc)   XCENC  =      2676.85974714
  PAW double counting   =     45540.44676850   -47086.67956587
  entropy T*S    EENTRO =        -0.00000213
  eigenvalues    EBANDS =      8040.42400325
  atomic energy  EATOM  =     57500.43164092
  Solvation  Ediel_sol  =         0.00000000
  ---------------------------------------------------
  free energy    TOTEN  =     11587.37015310 eV

  energy without entropy =    11587.37015523  energy(sigma->0) =    11587.37015417


--------------------------------------------------------------------------------------------------------




--------------------------------------- Iteration      1(   2)  ---------------------------------------


     EDDAV:  cpu time    4.2100: real time    4.2200
    --------------------------------------------
      LOOP:  cpu time    4.2099: real time    4.2198

 eigenvalue-minimisations  :  1872
 total energy-change (2. order) :-0.9937395E+04  (-0.9141093E+04)
 number of electron     684.0000000 magnetization      45.0000000
 augmentation part      684.0000000 magnetization      45.0000000

 Free energy of the ion-electron system (eV)
  ---------------------------------------------------
  alpha Z        PSCENC =      2956.06641708
  Ewald energy   TEWEN  =    -43484.00302586
  -Hartree energ DENC   =    -14556.17582993
  -exchange      EXHF   =         0.00000000
  -V(xc)+E(xc)   XCENC  =      2676.85974714
  PAW double counting   =     45540.44676850   -47086.67956587
  entropy T*S    EENTRO =        -0.01899727
  eigenvalues    EBANDS =     -1896.95188328
  atomic energy  EATOM  =     57500.43164092
  Solvation  Ediel_sol  =         0.00000000
  ---------------------------------------------------
  free energy    TOTEN  =      1649.97527143 eV

  energy without entropy =     1649.99426870  energy(sigma->0) =     1649.98477007


--------------------------------------------------------------------------------------------------------




--------------------------------------- Iteration      1(   3)  ---------------------------------------


     EDDAV:  cpu time    4.3819: real time    4.3923
    --------------------------------------------
      LOOP:  cpu time    4.3819: real time    4.3923

 eigenvalue-minimisations  :  2016
 total energy-change (2. order) :-0.2212319E+04  (-0.1948657E+04)
 number of electron     684.0000000 magnetization      45.0000000
 augmentation part      684.0000000 magnetization      45.0000000

 Free energy of the ion-electron system (eV)
  ---------------------------------------------------
  alpha Z        PSCENC =      2956.06641708
  Ewald energy   TEWEN  =    -43484.00302586
  -Hartree energ DENC   =    -14556.17582993
  -exchange      EXHF   =         0.00000000
  -V(xc)+E(xc)   XCENC  =      2676.85974714
  PAW double counting   =     45540.44676850   -47086.67956587
  entropy T*S    EENTRO =        -0.03989281
  eigenvalues    EBANDS =     -4109.24990408
  atomic energy  EATOM  =     57500.43164092
  Solvation  Ediel_sol  =         0.00000000
  ---------------------------------------------------
  free energy    TOTEN  =      -562.34364491 eV

  energy without entropy =     -562.30375210  energy(sigma->0) =     -562.32369851


--------------------------------------------------------------------------------------------------------




--------------------------------------- Iteration      1(   4)  ---------------------------------------


     EDDAV:  cpu time    4.7456: real time    4.7568
    --------------------------------------------
      LOOP:  cpu time    4.7456: real time    4.7568

 eigenvalue-minimisations  :  2256
 total energy-change (2. order) :-0.3156135E+03  (-0.3055694E+03)
 number of electron     684.0000000 magnetization      45.0000000
 augmentation part      684.0000000 magnetization      45.0000000

 Free energy of the ion-electron system (eV)
  ---------------------------------------------------
  alpha Z        PSCENC =      2956.06641708
  Ewald energy   TEWEN  =    -43484.00302586
  -Hartree energ DENC   =    -14556.17582993
  -exchange      EXHF   =         0.00000000
  -V(xc)+E(xc)   XCENC  =      2676.85974714
  PAW double counting   =     45540.44676850   -47086.67956587
  entropy T*S    EENTRO =        -0.04246614
  eigenvalues    EBANDS =     -4424.86085628
  atomic energy  EATOM  =     57500.43164092
  Solvation  Ediel_sol  =         0.00000000
  ---------------------------------------------------
  free energy    TOTEN  =      -877.95717044 eV

  energy without entropy =     -877.91470430  energy(sigma->0) =     -877.93593737


--------------------------------------------------------------------------------------------------------




--------------------------------------- Iteration      1(   5)  ---------------------------------------


     EDDAV:  cpu time    6.2643: real time    6.2792
    CHARGE:  cpu time    0.2586: real time    0.2593
    MIXING:  cpu time    0.0041: real time    0.0041
    --------------------------------------------
      LOOP:  cpu time    6.5268: real time    6.5423

 eigenvalue-minimisations  :  3184
 total energy-change (2. order) :-0.2514051E+02  (-0.2482320E+02)
 number of electron     683.9999976 magnetization      43.2459551
 augmentation part      194.5868359 magnetization      35.9002638

 Broyden mixing:
  rms(total) = 0.13032E+02    rms(broyden)= 0.13031E+02
  rms(prec ) = 0.14123E+02
  weight for this iteration     100.00

 Free energy of the ion-electron system (eV)
  ---------------------------------------------------
  alpha Z        PSCENC =      2956.06641708
  Ewald energy   TEWEN  =    -43484.00302586
  -Hartree energ DENC   =    -14556.17582993
  -exchange      EXHF   =         0.00000000
  -V(xc)+E(xc)   XCENC  =      2676.85974714
  PAW double counting   =     45540.44676850   -47086.67956587
  entropy T*S    EENTRO =        -0.07784337
  eigenvalues    EBANDS =     -4449.96598784
  atomic energy  EATOM  =     57500.43164092
  Solvation  Ediel_sol  =         0.00000000
  ---------------------------------------------------
  free energy    TOTEN  =      -903.09767924 eV

  energy without entropy =     -903.01983587  energy(sigma->0) =     -903.05875755


--------------------------------------------------------------------------------------------------------




--------------------------------------- Iteration      1(   6)  ---------------------------------------


    POTLOK:  cpu time    0.2021: real time    0.2026
    SETDIJ:  cpu time    0.0324: real time    0.0325
     EDDAV:  cpu time    5.4154: real time    5.4282
    CHARGE:  cpu time    0.2567: real time    0.2573
    MIXING:  cpu time    0.0045: real time    0.0045
    --------------------------------------------
      LOOP:  cpu time    5.9111: real time    5.9251

 eigenvalue-minimisations  :  2688
 total energy-change (2. order) : 0.3229190E+02  (-0.1074507E+03)
 number of electron     683.9999971 magnetization      39.8479299
 augmentation part      216.0643224 magnetization      39.7701746

 Broyden mixing:
  rms(total) = 0.16533E+02    rms(broyden)= 0.16532E+02
  rms(prec ) = 0.17979E+02
  weight for this iteration     100.00

 eigenvalues of (default mixing * dielectric matrix)
  average eigenvalue GAMMA=   0.3042
  0.3042

 Free energy of the ion-electron system (eV)
  ---------------------------------------------------
  alpha Z        PSCENC =      2956.06641708
  Ewald energy   TEWEN  =    -43484.00302586
  -Hartree energ DENC   =    -14353.94615917
  -exchange      EXHF   =         0.00000000
  -V(xc)+E(xc)   XCENC  =      2703.61136195
  PAW double counting   =     55019.57616987   -56429.74957934
  entropy T*S    EENTRO =        -0.02917905
  eigenvalues    EBANDS =     -4782.76342880
  atomic energy  EATOM  =     57500.43164092
  Solvation  Ediel_sol  =         0.00000000
  ---------------------------------------------------
  free energy    TOTEN  =      -870.80578239 eV

  energy without entropy =     -870.77660334  energy(sigma->0) =     -870.79119287


--------------------------------------------------------------------------------------------------------




--------------------------------------- Iteration      1(   7)  ---------------------------------------


    POTLOK:  cpu time    0.1995: real time    0.2000
    SETDIJ:  cpu time    0.0316: real time    0.0317
     EDDAV:  cpu time    5.1684: real time    5.1807
    CHARGE:  cpu time    0.2642: real time    0.2648
    MIXING:  cpu time    0.0043: real time    0.0043
    --------------------------------------------
      LOOP:  cpu time    5.6681: real time    5.6815

 eigenvalue-minimisations  :  2544
 total energy-change (2. order) : 0.8242872E+02  (-0.4010308E+02)
 number of electron     683.9999975 magnetization      36.8345455
 augmentation part      207.2591530 magnetization      31.0136139

 Broyden mixing:
  rms(total) = 0.10276E+02    rms(broyden)= 0.10275E+02
  rms(prec ) = 0.11419E+02
  weight for this iteration     100.00

 eigenvalues of (default mixing * dielectric matrix)
  average eigenvalue GAMMA=   0.4347
  0.4347  0.4347

 Free energy of the ion-electron system (eV)
  ---------------------------------------------------
  alpha Z        PSCENC =      2956.06641708
  Ewald energy   TEWEN  =    -43484.00302586
  -Hartree energ DENC   =    -14476.94539316
  -exchange      EXHF   =         0.00000000
  -V(xc)+E(xc)   XCENC  =      2695.69488136
  PAW double counting   =     58291.03151982   -59815.73829339
  entropy T*S    EENTRO =        -0.05695122
  eigenvalues    EBANDS =     -4454.85785668
  atomic energy  EATOM  =     57500.43164092
  Solvation  Ediel_sol  =         0.00000000
  ---------------------------------------------------
  free energy    TOTEN  =      -788.37706113 eV

  energy without entropy =     -788.32010991  energy(sigma->0) =     -788.34858552


--------------------------------------------------------------------------------------------------------




--------------------------------------- Iteration      1(   8)  ---------------------------------------


    POTLOK:  cpu time    0.2005: real time    0.2010
    SETDIJ:  cpu time    0.0312: real time    0.0313
     EDDAV:  cpu time    5.0892: real time    5.1013
    CHARGE:  cpu time    0.2591: real time    0.2597
    MIXING:  cpu time    0.0045: real time    0.0045
    --------------------------------------------
      LOOP:  cpu time    5.5845: real time    5.5977

 eigenvalue-minimisations  :  2496
 total energy-change (2. order) :-0.1063665E+02  (-0.1606526E+02)
 number of electron     683.9999975 magnetization      33.3878404
 augmentation part      200.0555105 magnetization      29.9090613

 Broyden mixing:
  rms(total) = 0.91920E+01    rms(broyden)= 0.91909E+01
  rms(prec ) = 0.11841E+02
  weight for this iteration     100.00

 eigenvalues of (default mixing * dielectric matrix)
  average eigenvalue GAMMA=   0.5197
  0.6695  0.6695  0.2201

 Free energy of the ion-electron system (eV)
  ---------------------------------------------------
  alpha Z        PSCENC =      2956.06641708
  Ewald energy   TEWEN  =    -43484.00302586
  -Hartree energ DENC   =    -14545.05270635
  -exchange      EXHF   =         0.00000000
  -V(xc)+E(xc)   XCENC  =      2691.24843101
  PAW double counting   =     62031.10945587   -63634.41717190
  entropy T*S    EENTRO =        -0.04697364
  eigenvalues    EBANDS =     -4314.34977799
  atomic energy  EATOM  =     57500.43164092
  Solvation  Ediel_sol  =         0.00000000
  ---------------------------------------------------
  free energy    TOTEN  =      -799.01371084 eV

  energy without entropy =     -798.96673720  energy(sigma->0) =     -798.99022402


--------------------------------------------------------------------------------------------------------




--------------------------------------- Iteration      1(   9)  ---------------------------------------


    POTLOK:  cpu time    0.1990: real time    0.1995
    SETDIJ:  cpu time    0.0333: real time    0.0333
     EDDAV:  cpu time    5.0442: real time    5.0562
    CHARGE:  cpu time    0.2598: real time    0.2604
    MIXING:  cpu time    0.0049: real time    0.0049
    --------------------------------------------
      LOOP:  cpu time    5.5412: real time    5.5543

 eigenvalue-minimisations  :  2464
 total energy-change (2. order) :-0.4837827E+02  (-0.2715571E+02)
 number of electron     683.9999981 magnetization      29.4762390
 augmentation part      197.6954629 magnetization      27.7008026

 Broyden mixing:
  rms(total) = 0.11850E+02    rms(broyden)= 0.11849E+02
  rms(prec ) = 0.13767E+02
  weight for this iteration     100.00

 eigenvalues of (default mixing * dielectric matrix)
  average eigenvalue GAMMA=   0.5241
  1.0799  0.5772  0.2807  0.1586

 Free energy of the ion-electron system (eV)
  ---------------------------------------------------
  alpha Z        PSCENC =      2956.06641708
  Ewald energy   TEWEN  =    -43484.00302586
  -Hartree energ DENC   =    -14452.70568395
  -exchange      EXHF   =         0.00000000
  -V(xc)+E(xc)   XCENC  =      2686.59256415
  PAW double counting   =     65191.22549332   -66802.85180689
  entropy T*S    EENTRO =        -0.05573093
  eigenvalues    EBANDS =     -4442.09184670
  atomic energy  EATOM  =     57500.43164092
  Solvation  Ediel_sol  =         0.00000000
  ---------------------------------------------------
  free energy    TOTEN  =      -847.39197886 eV

  energy without entropy =     -847.33624793  energy(sigma->0) =     -847.36411339


--------------------------------------------------------------------------------------------------------




--------------------------------------- Iteration      1(  10)  ---------------------------------------


    POTLOK:  cpu time    0.1988: real time    0.1992
    SETDIJ:  cpu time    0.0311: real time    0.0312
     EDDAV:  cpu time    5.3599: real time    5.3727
    CHARGE:  cpu time    0.2563: real time    0.2569
    MIXING:  cpu time    0.0051: real time    0.0051
    --------------------------------------------
      LOOP:  cpu time    5.8511: real time    5.8650

 eigenvalue-minimisations  :  2640
 total energy-change (2. order) :-0.4957902E+02  (-0.2137880E+02)
 number of electron     683.9999977 magnetization      26.2230753
 augmentation part      199.5943558 magnetization      22.1054439

 Broyden mixing:
  rms(total) = 0.14585E+02    rms(broyden)= 0.14585E+02
  rms(prec ) = 0.18297E+02
  weight for this iteration     100.00

 eigenvalues of (default mixing * dielectric matrix)
  average eigenvalue GAMMA=   0.5072
  1.3517  0.5803  0.2962  0.1539  0.1539

 Free energy of the ion-electron system (eV)
  ---------------------------------------------------
  alpha Z        PSCENC =      2956.06641708
  Ewald energy   TEWEN  =    -43484.00302586
  -Hartree energ DENC   =    -14373.69109530
  -exchange      EXHF   =         0.00000000
  -V(xc)+E(xc)   XCENC  =      2682.31484304
  PAW double counting   =     68201.16406971   -69820.66067622
  entropy T*S    EENTRO =        -0.05790987
  eigenvalues    EBANDS =     -4558.53525906
  atomic energy  EATOM  =     57500.43164092
  Solvation  Ediel_sol  =         0.00000000
  ---------------------------------------------------
  free energy    TOTEN  =      -896.97099556 eV

  energy without entropy =     -896.91308568  energy(sigma->0) =     -896.94204062


--------------------------------------------------------------------------------------------------------




--------------------------------------- Iteration      1(  11)  ---------------------------------------


    POTLOK:  cpu time    0.1992: real time    0.1997
    SETDIJ:  cpu time    0.0313: real time    0.0314
     EDDAV:  cpu time    4.9198: real time    4.9315
    CHARGE:  cpu time    0.2567: real time    0.2573
    MIXING:  cpu time    0.0053: real time    0.0053
    --------------------------------------------
      LOOP:  cpu time    5.4124: real time    5.4253

 eigenvalue-minimisations  :  2384
 total energy-change (2. order) : 0.9224401E+02  (-0.6568617E+01)
 number of electron     683.9999975 magnetization      25.2532965
 augmentation part      204.1926124 magnetization      22.6519547

 Broyden mixing:
  rms(total) = 0.97542E+01    rms(broyden)= 0.97535E+01
  rms(prec ) = 0.11716E+02
  weight for this iteration     100.00

 eigenvalues of (default mixing * dielectric matrix)
  average eigenvalue GAMMA=   0.4797
  1.4295  0.5987  0.2782  0.2782  0.1867  0.1070

 Free energy of the ion-electron system (eV)
  ---------------------------------------------------
  alpha Z        PSCENC =      2956.06641708
  Ewald energy   TEWEN  =    -43484.00302586
  -Hartree energ DENC   =    -14312.00028309
  -exchange      EXHF   =         0.00000000
  -V(xc)+E(xc)   XCENC  =      2680.48240181
  PAW double counting   =     70502.15184082   -72122.19876039
  entropy T*S    EENTRO =        -0.05492265
  eigenvalues    EBANDS =     -4525.60229165
  atomic energy  EATOM  =     57500.43164092
  Solvation  Ediel_sol  =         0.00000000
  ---------------------------------------------------
  free energy    TOTEN  =      -804.72698301 eV

  energy without entropy =     -804.67206036  energy(sigma->0) =     -804.69952168


--------------------------------------------------------------------------------------------------------




--------------------------------------- Iteration      1(  12)  ---------------------------------------


    POTLOK:  cpu time    0.1984: real time    0.1989
    SETDIJ:  cpu time    0.0313: real time    0.0314
     EDDAV:  cpu time    5.1799: real time    5.1922
    CHARGE:  cpu time    0.2554: real time    0.2560
    MIXING:  cpu time    0.0057: real time    0.0057
    --------------------------------------------
      LOOP:  cpu time    5.6707: real time    5.6842

 eigenvalue-minimisations  :  2544
 total energy-change (2. order) :-0.6487653E+01  (-0.1518899E+02)
 number of electron     683.9999984 magnetization      22.3865538
 augmentation part      204.3261021 magnetization      20.4655694

 Broyden mixing:
  rms(total) = 0.11006E+02    rms(broyden)= 0.11006E+02
  rms(prec ) = 0.13594E+02
  weight for this iteration     100.00

 eigenvalues of (default mixing * dielectric matrix)
  average eigenvalue GAMMA=   0.4955
  1.6602  0.6513  0.3953  0.3953  0.1719  0.0972  0.0972

 Free energy of the ion-electron system (eV)
  ---------------------------------------------------
  alpha Z        PSCENC =      2956.06641708
  Ewald energy   TEWEN  =    -43484.00302586
  -Hartree energ DENC   =    -14325.10484227
  -exchange      EXHF   =         0.00000000
  -V(xc)+E(xc)   XCENC  =      2681.06954718
  PAW double counting   =     70957.76031793   -72588.57753151
  entropy T*S    EENTRO =        -0.08373910
  eigenvalues    EBANDS =     -4508.77341994
  atomic energy  EATOM  =     57500.43164092
  Solvation  Ediel_sol  =         0.00000000
  ---------------------------------------------------
  free energy    TOTEN  =      -811.21463559 eV

  energy without entropy =     -811.13089648  energy(sigma->0) =     -811.17276603


--------------------------------------------------------------------------------------------------------




--------------------------------------- Iteration      1(  13)  ---------------------------------------


    POTLOK:  cpu time    0.2008: real time    0.2012
    SETDIJ:  cpu time    0.0315: real time    0.0316
     EDDAV:  cpu time    4.6898: real time    4.7009
    CHARGE:  cpu time    0.2552: real time    0.2558
    MIXING:  cpu time    0.0059: real time    0.0059
    --------------------------------------------
      LOOP:  cpu time    5.1831: real time    5.1954

 eigenvalue-minimisations  :  2240
 total energy-change (2. order) :-0.2154488E+01  (-0.4512121E+02)
 number of electron     683.9999980 magnetization      20.7403191
 augmentation part      201.9816947 magnetization      19.3879853

 Broyden mixing:
  rms(total) = 0.12079E+02    rms(broyden)= 0.12079E+02
  rms(prec ) = 0.14799E+02
  weight for this iteration     100.00

 eigenvalues of (default mixing * dielectric matrix)
  average eigenvalue GAMMA=   0.4695
  1.7814  0.6531  0.4161  0.4161  0.1805  0.1176  0.1176  0.0738

 Free energy of the ion-electron system (eV)
  ---------------------------------------------------
  alpha Z        PSCENC =      2956.06641708
  Ewald energy   TEWEN  =    -43484.00302586
  -Hartree energ DENC   =    -14369.40067461
  -exchange      EXHF   =         0.00000000
  -V(xc)+E(xc)   XCENC  =      2682.96919044
  PAW double counting   =     72139.41286398   -73794.52307095
  entropy T*S    EENTRO =        -0.04480669
  eigenvalues    EBANDS =     -4444.27765770
  atomic energy  EATOM  =     57500.43164092
  Solvation  Ediel_sol  =         0.00000000
  ---------------------------------------------------
  free energy    TOTEN  =      -813.36912338 eV

  energy without entropy =     -813.32431669  energy(sigma->0) =     -813.34672004


--------------------------------------------------------------------------------------------------------




--------------------------------------- Iteration      1(  14)  ---------------------------------------


    POTLOK:  cpu time    0.1990: real time    0.1994
    SETDIJ:  cpu time    0.0311: real time    0.0312
     EDDAV:  cpu time    4.8090: real time    4.8203
    CHARGE:  cpu time    0.2553: real time    0.2559
    MIXING:  cpu time    0.0058: real time    0.0058
    --------------------------------------------
      LOOP:  cpu time    5.3002: real time    5.3128

 eigenvalue-minimisations  :  2320
 total energy-change (2. order) : 0.3600857E+02  (-0.1413421E+02)
 number of electron     683.9999973 magnetization      19.7966394
 augmentation part      203.4145816 magnetization      17.1737893

 Broyden mixing:
  rms(total) = 0.88521E+01    rms(broyden)= 0.88515E+01
  rms(prec ) = 0.10881E+02
  weight for this iteration     100.00

 eigenvalues of (default mixing * dielectric matrix)
  average eigenvalue GAMMA=   0.4429
  1.8420  0.6174  0.4267  0.4267  0.2351  0.1403  0.1403  0.0788  0.0788

 Free energy of the ion-electron system (eV)
  ---------------------------------------------------
  alpha Z        PSCENC =      2956.06641708
  Ewald energy   TEWEN  =    -43484.00302586
  -Hartree energ DENC   =    -14378.21034848
  -exchange      EXHF   =         0.00000000
  -V(xc)+E(xc)   XCENC  =      2683.57526131
  PAW double counting   =     72778.35393486   -74441.88469424
  entropy T*S    EENTRO =        -0.02906618
  eigenvalues    EBANDS =     -4391.66067093
  atomic energy  EATOM  =     57500.43164092
  Solvation  Ediel_sol  =         0.00000000
  ---------------------------------------------------
  free energy    TOTEN  =      -777.36055152 eV

  energy without entropy =     -777.33148534  energy(sigma->0) =     -777.34601843


--------------------------------------------------------------------------------------------------------




--------------------------------------- Iteration      1(  15)  ---------------------------------------


    POTLOK:  cpu time    0.1996: real time    0.2000
    SETDIJ:  cpu time    0.0313: real time    0.0314
     EDDAV:  cpu time    4.7385: real time    4.7497
    CHARGE:  cpu time    0.2551: real time    0.2557
    MIXING:  cpu time    0.0060: real time    0.0060
    --------------------------------------------
      LOOP:  cpu time    5.2305: real time    5.2429

 eigenvalue-minimisations  :  2272
 total energy-change (2. order) : 0.2163369E+02  (-0.1240206E+02)
 number of electron     683.9999978 magnetization      19.2041468
 augmentation part      204.7260906 magnetization      15.4576098

 Broyden mixing:
  rms(total) = 0.50693E+01    rms(broyden)= 0.50678E+01
  rms(prec ) = 0.59845E+01
  weight for this iteration     100.00

 eigenvalues of (default mixing * dielectric matrix)
  average eigenvalue GAMMA=   0.4218
  1.8048  0.5312  0.4458  0.4458  0.3797  0.2036  0.1314  0.1314  0.0722  0.0722

 Free energy of the ion-electron system (eV)
  ---------------------------------------------------
  alpha Z        PSCENC =      2956.06641708
  Ewald energy   TEWEN  =    -43484.00302586
  -Hartree energ DENC   =    -14377.96822889
  -exchange      EXHF   =         0.00000000
  -V(xc)+E(xc)   XCENC  =      2683.17947443
  PAW double counting   =     73066.62083401   -74733.35306891
  entropy T*S    EENTRO =        -0.06299467
  eigenvalues    EBANDS =     -4366.63791104
  atomic energy  EATOM  =     57500.43164092
  Solvation  Ediel_sol  =         0.00000000
  ---------------------------------------------------
  free energy    TOTEN  =      -755.72686292 eV

  energy without entropy =     -755.66386825  energy(sigma->0) =     -755.69536559


--------------------------------------------------------------------------------------------------------




--------------------------------------- Iteration      1(  16)  ---------------------------------------


    POTLOK:  cpu time    0.1986: real time    0.1991
    SETDIJ:  cpu time    0.0309: real time    0.0309
     EDDAV:  cpu time    5.1020: real time    5.1141
    CHARGE:  cpu time    0.2591: real time    0.2597
    MIXING:  cpu time    0.0063: real time    0.0063
    --------------------------------------------
      LOOP:  cpu time    5.5969: real time    5.6102

 eigenvalue-minimisations  :  2496
 total energy-change (2. order) :-0.8265081E+00  (-0.6542732E+01)
 number of electron     683.9999975 magnetization      18.5927273
 augmentation part      203.7039008 magnetization      18.0698049

 Broyden mixing:
  rms(total) = 0.46872E+01    rms(broyden)= 0.46862E+01
  rms(prec ) = 0.58359E+01
  weight for this iteration     100.00

 eigenvalues of (default mixing * dielectric matrix)
  average eigenvalue GAMMA=   0.3996
  1.7488  0.5459  0.4714  0.4714  0.3372  0.2806  0.1348  0.1301  0.1301  0.0725
  0.0725

 Free energy of the ion-electron system (eV)
  ---------------------------------------------------
  alpha Z        PSCENC =      2956.06641708
  Ewald energy   TEWEN  =    -43484.00302586
  -Hartree energ DENC   =    -14393.32506985
  -exchange      EXHF   =         0.00000000
  -V(xc)+E(xc)   XCENC  =      2682.94719426
  PAW double counting   =     73009.94926029   -74678.66491485
  entropy T*S    EENTRO =        -0.07030155
  eigenvalues    EBANDS =     -4349.88457148
  atomic energy  EATOM  =     57500.43164092
  Solvation  Ediel_sol  =         0.00000000
  ---------------------------------------------------
  free energy    TOTEN  =      -756.55337105 eV

  energy without entropy =     -756.48306950  energy(sigma->0) =     -756.51822027


--------------------------------------------------------------------------------------------------------




--------------------------------------- Iteration      1(  17)  ---------------------------------------


    POTLOK:  cpu time    0.1992: real time    0.1996
    SETDIJ:  cpu time    0.0314: real time    0.0315
     EDDAV:  cpu time    5.0143: real time    5.0261
    CHARGE:  cpu time    0.2631: real time    0.2637
    MIXING:  cpu time    0.0067: real time    0.0067
    --------------------------------------------
      LOOP:  cpu time    5.5147: real time    5.5277

 eigenvalue-minimisations  :  2448
 total energy-change (2. order) : 0.6989241E+01  (-0.2390414E+01)
 number of electron     683.9999975 magnetization      18.4061278
 augmentation part      203.3735346 magnetization      14.5136586

 Broyden mixing:
  rms(total) = 0.36990E+01    rms(broyden)= 0.36979E+01
  rms(prec ) = 0.41915E+01
  weight for this iteration     100.00

 eigenvalues of (default mixing * dielectric matrix)
  average eigenvalue GAMMA=   0.3671
  1.7482  0.5394  0.4735  0.4735  0.3273  0.2872  0.1380  0.1301  0.1301  0.0724
  0.0724  0.0130

 Free energy of the ion-electron system (eV)
  ---------------------------------------------------
  alpha Z        PSCENC =      2956.06641708
  Ewald energy   TEWEN  =    -43484.00302586
  -Hartree energ DENC   =    -14398.62207491
  -exchange      EXHF   =         0.00000000
  -V(xc)+E(xc)   XCENC  =      2682.84068280
  PAW double counting   =     72869.55775441   -74535.41005645
  entropy T*S    EENTRO =        -0.06801939
  eigenvalues    EBANDS =     -4340.35744827
  atomic energy  EATOM  =     57500.43164092
  Solvation  Ediel_sol  =         0.00000000
  ---------------------------------------------------
  free energy    TOTEN  =      -749.56412966 eV

  energy without entropy =     -749.49611028  energy(sigma->0) =     -749.53011997


--------------------------------------------------------------------------------------------------------




--------------------------------------- Iteration      1(  18)  ---------------------------------------


    POTLOK:  cpu time    0.1987: real time    0.1992
    SETDIJ:  cpu time    0.0323: real time    0.0323
     EDDAV:  cpu time    5.1770: real time    5.1893
    CHARGE:  cpu time    0.2603: real time    0.2609
    MIXING:  cpu time    0.0072: real time    0.0072
    --------------------------------------------
      LOOP:  cpu time    5.6755: real time    5.6889

 eigenvalue-minimisations  :  2544
 total energy-change (2. order) : 0.3913581E+00  (-0.9764411E+00)
 number of electron     683.9999977 magnetization      18.4136414
 augmentation part      203.2837433 magnetization      14.1032085

 Broyden mixing:
  rms(total) = 0.29844E+01    rms(broyden)= 0.29836E+01
  rms(prec ) = 0.33472E+01
  weight for this iteration     100.00

 eigenvalues of (default mixing * dielectric matrix)
  average eigenvalue GAMMA=   0.3431
  1.7489  0.5438  0.4728  0.4728  0.3068  0.3068  0.1397  0.1301  0.1301  0.0723
  0.0723  0.0355  0.0283

 Free energy of the ion-electron system (eV)
  ---------------------------------------------------
  alpha Z        PSCENC =      2956.06641708
  Ewald energy   TEWEN  =    -43484.00302586
  -Hartree energ DENC   =    -14399.71253105
  -exchange      EXHF   =         0.00000000
  -V(xc)+E(xc)   XCENC  =      2682.99193366
  PAW double counting   =     72884.70060308   -74548.55331905
  entropy T*S    EENTRO =        -0.11987633
  eigenvalues    EBANDS =     -4340.97461406
  atomic energy  EATOM  =     57500.43164092
  Solvation  Ediel_sol  =         0.00000000
  ---------------------------------------------------
  free energy    TOTEN  =      -749.17277160 eV

  energy without entropy =     -749.05289527  energy(sigma->0) =     -749.11283344


--------------------------------------------------------------------------------------------------------




--------------------------------------- Iteration      1(  19)  ---------------------------------------


    POTLOK:  cpu time    0.1995: real time    0.2000
    SETDIJ:  cpu time    0.0313: real time    0.0314
     EDDAV:  cpu time    5.1738: real time    5.1860
    CHARGE:  cpu time    0.2588: real time    0.2594
    MIXING:  cpu time    0.0072: real time    0.0072
    --------------------------------------------
      LOOP:  cpu time    5.6705: real time    5.6840

 eigenvalue-minimisations  :  2544
 total energy-change (2. order) : 0.8101271E-02  (-0.5563107E+00)
 number of electron     683.9999976 magnetization      18.5338052
 augmentation part      203.2986654 magnetization      13.5242439

 Broyden mixing:
  rms(total) = 0.30625E+01    rms(broyden)= 0.30619E+01
  rms(prec ) = 0.33073E+01
  weight for this iteration     100.00

 eigenvalues of (default mixing * dielectric matrix)
  average eigenvalue GAMMA=   0.3425
  1.7549  0.4807  0.4807  0.4614  0.4614  0.1752  0.1752  0.2310  0.1359  0.1359
  0.1133  0.0725  0.0725  0.0448

 Free energy of the ion-electron system (eV)
  ---------------------------------------------------
  alpha Z        PSCENC =      2956.06641708
  Ewald energy   TEWEN  =    -43484.00302586
  -Hartree energ DENC   =    -14400.30470383
  -exchange      EXHF   =         0.00000000
  -V(xc)+E(xc)   XCENC  =      2683.03780588
  PAW double counting   =     72878.43574335   -74541.28948758
  entropy T*S    EENTRO =        -0.10938103
  eigenvalues    EBANDS =     -4341.42967925
  atomic energy  EATOM  =     57500.43164092
  Solvation  Ediel_sol  =         0.00000000
  ---------------------------------------------------
  free energy    TOTEN  =      -749.16467033 eV

  energy without entropy =     -749.05528929  energy(sigma->0) =     -749.10997981


--------------------------------------------------------------------------------------------------------




--------------------------------------- Iteration      1(  20)  ---------------------------------------


    POTLOK:  cpu time    0.1991: real time    0.1996
    SETDIJ:  cpu time    0.0319: real time    0.0320
     EDDAV:  cpu time    4.9351: real time    4.9468
    CHARGE:  cpu time    0.2622: real time    0.2628
    MIXING:  cpu time    0.0075: real time    0.0076
    --------------------------------------------
      LOOP:  cpu time    5.4358: real time    5.4487

 eigenvalue-minimisations  :  2400
 total energy-change (2. order) :-0.9639361E+00  (-0.6718727E+00)
 number of electron     683.9999976 magnetization      18.6074984
 augmentation part      203.1965941 magnetization      13.2046485

 Broyden mixing:
  rms(total) = 0.33243E+01    rms(broyden)= 0.33238E+01
  rms(prec ) = 0.36552E+01
  weight for this iteration     100.00

 eigenvalues of (default mixing * dielectric matrix)
  average eigenvalue GAMMA=   0.3259
  1.7606  0.4796  0.4796  0.4604  0.4604  0.1995  0.1995  0.2335  0.1355  0.1355
  0.1179  0.0720  0.0720  0.0591  0.0237

 Free energy of the ion-electron system (eV)
  ---------------------------------------------------
  alpha Z        PSCENC =      2956.06641708
  Ewald energy   TEWEN  =    -43484.00302586
  -Hartree energ DENC   =    -14400.47069214
  -exchange      EXHF   =         0.00000000
  -V(xc)+E(xc)   XCENC  =      2683.03963906
  PAW double counting   =     72864.36439332   -74526.47819802
  entropy T*S    EENTRO =        -0.06754195
  eigenvalues    EBANDS =     -4343.01123881
  atomic energy  EATOM  =     57500.43164092
  Solvation  Ediel_sol  =         0.00000000
  ---------------------------------------------------
  free energy    TOTEN  =      -750.12860639 eV

  energy without entropy =     -750.06106444  energy(sigma->0) =     -750.09483542


--------------------------------------------------------------------------------------------------------




--------------------------------------- Iteration      1(  21)  ---------------------------------------


    POTLOK:  cpu time    0.2003: real time    0.2008
    SETDIJ:  cpu time    0.0312: real time    0.0313
     EDDAV:  cpu time    5.0143: real time    5.0263
    CHARGE:  cpu time    0.2590: real time    0.2596
    MIXING:  cpu time    0.0077: real time    0.0077
    --------------------------------------------
      LOOP:  cpu time    5.5125: real time    5.5257

 eigenvalue-minimisations  :  2432
 total energy-change (2. order) : 0.2920008E+00  (-0.2469237E+00)
 number of electron     683.9999977 magnetization      18.6324191
 augmentation part      203.2017029 magnetization      13.0227922

[...]
      4.41162      0.06483      2.51530        -0.006904      0.003899     -0.013979
      4.41985      4.85824      4.23828         0.000267      0.002996     -0.000717
      5.86472      0.07082      5.17182        -0.007788     -0.023041     -0.021851
      5.90539      4.85882      6.77154        -0.000181     -0.003534     -0.000942
      7.34991      9.66836      5.91322        -0.008654     -0.003899     -0.012968
      8.84903      0.03972      5.09640         0.006323     -0.005562      0.004606
      8.83794      4.87495      6.78183        -0.000754     -0.002996     -0.000127
     11.76648      4.87268      6.75063         0.000071      0.000000      0.000123
      4.34137      9.60193      6.02540         0.003465     -0.017142      0.008938
      4.45678      7.13321      7.52604         0.006071     -0.015289     -0.004758
      8.89505     12.16547      1.75419        -0.002186     -0.000000     -0.003786
      1.60783      2.61105      0.81924         0.007944      0.005582     -0.008315
      7.41034      7.05302      7.62072        -0.003283     -0.000698     -0.007597
      3.03053     12.11441      1.84680         0.003848     -0.012364      0.032292
      4.48026      2.68368      0.86251        -0.001290     -0.000561      0.002364
     10.30578      7.02237      7.60215        -0.003605     -0.005762     -0.006139
      5.80274     12.17898      1.65339        -0.001599     -0.006608      0.001728
      7.25493      2.59998      0.81619        -0.007156      0.015289      0.002879
      7.28297      7.12214      2.63702        -0.011173     -0.005582      0.002723
      7.48141     12.20435      4.37142         0.026042      0.012364      0.019479
      8.87725      2.58335      3.50310         0.005261     -0.005518      0.002035
      1.56074      7.14984      2.63296        -0.000868      0.005518      0.005574
     10.24484     12.16547      4.09210        -0.007820     -0.000000     -0.013545
      2.93336      2.69286      3.33311         0.003674     -0.003420     -0.007550
      4.38628      7.06303      2.52292         0.001269      0.005516      0.004214
      4.46552     12.17352      4.26722         0.018634     -0.007610      0.007321
      5.86015      2.68017      3.42139        -0.004938      0.000698     -0.006642
      5.88423      7.04951      5.14626         0.002692      0.000561      0.000065
      5.92780     12.13979      6.67552         0.002296      0.006608     -0.000521
      7.36918      2.67016      5.89508         0.003015     -0.005516      0.003206
      8.79728      7.04033      5.04191        -0.008375      0.003420     -0.000593
      8.86006     12.14525      6.82436        -0.002977      0.007610      0.019798
     10.23968      2.66864      5.96383         0.012997     -0.000054     -0.005118
      3.01057      7.06454      5.04323        -0.010931      0.000054      0.008696
     11.74524     12.16547      6.69087         0.005880      0.000000      0.010185
      4.39635      2.71082      5.91962        -0.003514      0.005762     -0.006192
      8.86582     10.84984      0.12884         0.000999      0.000690      0.004095
      8.83944      3.70339      0.04970        -0.001125      0.001434     -0.000535
      8.60420      1.19006      1.59854        -0.007978      0.025171      0.002049
      8.88578      8.55530      1.43597         0.005764     -0.025171     -0.005884
      1.42914      6.01629      0.87439         0.004779      0.001421     -0.000495
      1.49701     13.49786      0.70514        -0.005889      0.007952     -0.001657
      2.89203     10.92606     -0.02484         0.005617     -0.019857      0.010994
      7.43171      3.83224      7.60299         0.000711     -0.001834     -0.000433
      2.92969      1.15563      1.67156         0.002070      0.029613     -0.002074
      2.93309      8.47928      1.68331         0.018549      0.006678      0.005646
      4.43747      5.91917      0.75308        -0.002058      0.002371     -0.002123
      4.31742     13.28570      0.86410        -0.008172     -0.016992      0.014983
     10.44836     10.86842      7.54080        -0.017006     -0.019003      0.020462
     10.25872      3.83505      7.59614         0.000623     -0.000806     -0.000753
      5.92597      1.16391      1.68230        -0.002125      0.015579      0.005685
      6.04856      8.56242      1.83527        -0.019394      0.002539     -0.011288
      7.42683      6.04197      0.86528         0.000100     -0.001434     -0.001242
      7.50207     13.48110      0.91620         0.003047     -0.000690      0.002913
      7.25946     10.82091      2.47252         0.001509     -0.007952     -0.005929
      7.42008      3.71690      2.50986        -0.002818     -0.001421      0.003891
      7.36865      1.25391      4.21677        -0.004385     -0.006678      0.018887
      7.36018      8.57756      4.20795        -0.002831     -0.029613      0.000756
      8.83615      6.04089      3.30927         0.001287      0.005164      0.003041
      8.80076     13.51640      3.33279         0.008625      0.006845     -0.000210
      1.47138     10.80237      2.47008        -0.004494     -0.006845      0.007364
     10.25134      3.70448      2.49221         0.001990     -0.005164      0.002635
     10.31483      1.24873      4.21441        -0.016772      0.017141     -0.008594
     10.29588      8.49664      4.22535         0.000944     -0.017141     -0.018822
      3.00953      5.89315      3.41757        -0.001736      0.005100     -0.000342
      3.00740     13.24342      3.50966         0.010150     -0.042207      0.025172
      4.49341     10.76993      2.55783         0.001252     -0.005569      0.001706
      4.42554      3.81647      2.62610        -0.000817      0.003824     -0.001278
      4.40413      1.09004      4.25515        -0.003748     -0.000778     -0.016637
      4.46023      8.51541      4.26159        -0.007259     -0.008464      0.000918
      5.83411      5.90095      3.43103        -0.000730      0.001834      0.000400
      5.92977     13.39271      3.31565         0.006712      0.019857      0.010361
      5.98692     11.03306      4.99455         0.017061      0.016992      0.000414
      5.81086      3.81402      5.05449        -0.000810     -0.002371     -0.002843
      5.94252      1.17077      6.99083        -0.000078     -0.002539     -0.022439
      5.87134      8.56928      6.80818         0.005986     -0.015579      0.001002
      7.43891      5.91672      5.98067        -0.000698     -0.003824     -0.001347
      7.36574     13.54883      5.99383         0.000851      0.005569      0.001937
      8.93305     11.07535      5.18282         0.016724      0.042207      0.021376
      8.83234      3.84004      5.15011         0.000572     -0.005100     -0.001674
      8.83794      1.21778      6.82846         0.004425      0.008464     -0.005828
      8.86041      8.64315      6.77665        -0.012534      0.000778     -0.011565
     10.22215      5.91258      5.96546        -0.000746      0.000400     -0.003661
     10.40146     13.55968      5.93159         0.007421      0.015521      0.019219
     11.75958     10.77127      5.14749         0.012933     -0.015521      0.016036
      3.02075      3.82061      5.02886        -0.002797     -0.000400     -0.002477
     11.96426      1.21301      6.59938        -0.003710      0.005729     -0.014742
     11.53661      8.53236      6.84629        -0.010912     -0.005729     -0.010584
      4.41467      5.89814      5.87587        -0.000964      0.000806      0.000163
      4.29182     13.45035      6.00094         0.026224      0.019003     -0.004497
 -----------------------------------------------------------------------------------
    total drift:                                0.005251      0.001926      0.007942


--------------------------------------------------------------------------------------------------------



  FREE ENERGIE OF THE ION-ELECTRON SYSTEM (eV)
  ---------------------------------------------------
  free  energy   TOTEN  =      -754.4069020297 eV

  energy  without entropy=     -754.3461734831  energy(sigma->0) =     -754.37653776
 
 d Force = 0.1453288E-02[ 0.123E-02, 0.167E-02]  d Energy = 0.1428132E-02 0.252E-04
 d Force =-0.1206842E+01[-0.121E+01,-0.120E+01]  d Ewald  = 0.6425052E+00-0.185E+01


--------------------------------------------------------------------------------------------------------


    POTLOK:  cpu time    0.2348: real time    0.2353


--------------------------------------------------------------------------------------------------------


 Quasi-Newton relaxation of ions (Broydens 2nd method)
  g(Force)  = 0.177E-02   g(Stress)= 0.106E-03

 retain information from N=  3 steps
 eigenvalues of (default step * inverse Hessian matrix)
  average eigenvalue of G=   4.1286
 eigenvalue spectrum of G is  5.3069  5.3069  1.7719


--------------------------------------------------------------------------------------------------------


     LOOP+:  cpu time   68.5514: real time   68.7937
    4ORBIT:  cpu time    0.0000: real time    0.0000

volume of typ            1:     9.2 %

volume of typ            2:    11.6 %

volume of typ            3:    21.4 %

volume of typ            4:     8.9 %
 
total charge     
 
# of ion       s       p       d       tot
------------------------------------------
    1        0.285   6.181   1.950   8.416
    2        0.292   6.187   1.898   8.377
    3        0.289   6.173   1.958   8.421
    4        0.288   6.172   1.962   8.423
    5        0.285   6.181   1.950   8.416
    6        0.289   6.173   1.958   8.421
    7        0.288   6.172   1.962   8.423
    8        0.288   6.169   1.975   8.432
    9        0.288   6.169   1.975   8.432
   10        0.218   0.248   7.894   8.360
   11        0.191   0.212   7.985   8.388
   12        0.193   0.213   8.015   8.421
   13        0.218   0.248   7.895   8.360
   14        0.218   0.248   7.894   8.360
   15        0.189   0.208   8.020   8.417
   16        0.189   0.208   8.020   8.417
   17        0.218   0.247   7.894   8.358
   18        0.199   0.229   7.933   8.360
   19        0.201   0.230   7.955   8.386
   20        0.267   0.351   7.828   8.446
   21        0.191   0.212   7.985   8.388
   22        0.218   0.248   7.895   8.360
   23        0.201   0.230   7.955   8.386
   24        0.199   0.229   7.933   8.360
   25        0.267   0.351   7.828   8.446
   26        0.218   0.247   7.894   8.358
   27        0.193   0.213   8.015   8.421
   28        2.081   0.274   0.105   2.460
   29        2.074   0.253   0.096   2.423
   30        2.084   0.281   0.108   2.473
   31        2.080   0.267   0.102   2.449
   32        2.080   0.266   0.102   2.448
   33        2.076   0.253   0.094   2.423
   34        2.087   0.286   0.111   2.484
   35        2.074   0.254   0.097   2.425
   36        2.081   0.274   0.105   2.460
   37        2.084   0.281   0.108   2.473
   38        2.080   0.266   0.102   2.448
   39        2.079   0.265   0.101   2.445
   40        2.079   0.265   0.101   2.445
   41        2.078   0.261   0.098   2.437
   42        2.082   0.270   0.103   2.455
   43        2.073   0.245   0.091   2.409
   44        2.081   0.271   0.104   2.456
   45        2.080   0.267   0.102   2.449
   46        2.076   0.253   0.094   2.423
   47        2.074   0.254   0.097   2.425
   48        2.073   0.245   0.091   2.409
   49        2.082   0.270   0.103   2.455
   50        2.081   0.271   0.104   2.456
   51        2.075   0.249   0.093   2.417
   52        2.075   0.249   0.093   2.417
   53        2.080   0.268   0.104   2.452
   54        2.087   0.286   0.111   2.484
   55        1.248   2.843   0.005   4.096
   56        1.248   2.836   0.005   4.089
   57        1.254   2.850   0.006   4.110
   58        1.254   2.850   0.006   4.110
   59        1.248   2.836   0.005   4.088
   60        1.248   2.843   0.005   4.096
   61        1.255   2.825   0.005   4.085
   62        1.250   2.799   0.004   4.054
   63        1.250   2.826   0.006   4.081
   64        1.255   2.823   0.006   4.084
   65        1.251   2.803   0.004   4.058
   66        1.254   2.837   0.005   4.096
   67        1.247   2.850   0.005   4.101
   68        1.249   2.804   0.004   4.058
   69        1.250   2.826   0.006   4.082
   70        1.250   2.848   0.005   4.103
   71        1.248   2.836   0.005   4.089
   72        1.248   2.843   0.005   4.096
   73        1.248   2.843   0.005   4.096
   74        1.248   2.836   0.005   4.088
   75        1.255   2.823   0.006   4.084
   76        1.250   2.826   0.006   4.081
   77        1.246   2.842   0.004   4.093
   78        1.246   2.831   0.005   4.081
   79        1.246   2.831   0.005   4.081
   80        1.246   2.842   0.004   4.093
   81        1.254   2.825   0.006   4.085
   82        1.254   2.825   0.006   4.085
   83        1.249   2.804   0.004   4.058
   84        1.255   2.837   0.005   4.097
   85        1.247   2.835   0.005   4.086
   86        1.251   2.802   0.004   4.057
   87        1.252   2.823   0.006   4.081
   88        1.255   2.822   0.006   4.083
   89        1.250   2.799   0.004   4.054
   90        1.255   2.825   0.005   4.085
   91        1.254   2.837   0.005   4.096
   92        1.251   2.803   0.004   4.058
   93        1.250   2.848   0.005   4.103
   94        1.250   2.826   0.006   4.082
   95        1.251   2.802   0.004   4.057
   96        1.247   2.835   0.005   4.086
   97        1.255   2.837   0.005   4.097
   98        1.249   2.804   0.004   4.058
   99        1.255   2.822   0.006   4.083
  100        1.252   2.823   0.006   4.081
  101        1.252   2.797   0.005   4.054
  102        1.248   2.827   0.005   4.081
  103        1.248   2.827   0.005   4.081
  104        1.252   2.797   0.005   4.054
  105        1.252   2.846   0.005   4.103
  106        1.252   2.846   0.005   4.103
  107        1.249   2.804   0.004   4.058
  108        1.247   2.850   0.005   4.101
--------------------------------------------------
tot         130.04  219.77  163.42  513.24
 
magnetization (x)
 
# of ion       s       p       d       tot
------------------------------------------
    1       -0.000  -0.000  -0.011  -0.012
    2       -0.002  -0.001  -0.013  -0.016
    3       -0.001  -0.001  -0.010  -0.011
    4       -0.001  -0.001  -0.025  -0.027
    5       -0.000  -0.000  -0.011  -0.012
    6       -0.001  -0.001  -0.010  -0.011
    7       -0.001  -0.001  -0.025  -0.027
    8       -0.001  -0.001  -0.028  -0.030
    9       -0.001  -0.001  -0.028  -0.030
   10        0.001  -0.000   1.447   1.447
   11       -0.006  -0.002  -1.250  -1.258
   12        0.004   0.001   1.163   1.168
   13        0.001  -0.000   1.441   1.441
   14        0.001  -0.000   1.447   1.447
   15        0.002   0.001   1.144   1.147
   16        0.002   0.001   1.144   1.147
   17        0.000   0.000   1.452   1.453
   18        0.001   0.001   1.435   1.437
   19        0.002   0.002   1.343   1.347
   20       -0.002  -0.002   0.120   0.115
   21       -0.006  -0.002  -1.249  -1.257
   22        0.001  -0.000   1.441   1.441
   23        0.002   0.002   1.343   1.347
   24        0.001   0.001   1.435   1.437
   25       -0.002  -0.002   0.120   0.115
   26        0.001  -0.000   1.452   1.452
   27        0.004   0.001   1.164   1.168
   28        0.003   0.006   0.002   0.010
   29        0.003   0.008   0.002   0.013
   30        0.003   0.004   0.001   0.008
   31        0.004   0.010   0.002   0.016
   32        0.001   0.003   0.001   0.004
   33        0.004   0.007   0.001   0.013
   34        0.003   0.009   0.003   0.015
   35        0.001   0.002   0.001   0.003
   36        0.003   0.006   0.002   0.010
   37        0.003   0.004   0.001   0.008
   38        0.001   0.003   0.001   0.004
   39        0.002   0.003   0.000   0.004
   40        0.002   0.003   0.000   0.004
   41        0.001   0.004   0.001   0.007
   42        0.003   0.007   0.002   0.012
   43        0.004   0.006   0.001   0.011
   44        0.000  -0.000   0.000   0.000
   45        0.004   0.010   0.002   0.016
   46        0.004   0.007   0.001   0.013
   47        0.001   0.002   0.001   0.003
   48        0.004   0.006   0.001   0.011
   49        0.003   0.007   0.002   0.012
   50        0.000  -0.000   0.000   0.000
   51        0.004   0.007   0.001   0.011
   52        0.004   0.007   0.001   0.011
   53        0.000   0.001  -0.000   0.001
   54        0.003   0.009   0.003   0.015
   55        0.004   0.044   0.000   0.048
   56        0.009   0.091   0.000   0.100
   57        0.002   0.025  -0.000   0.027
   58        0.002   0.025  -0.000   0.027
   59        0.009   0.090   0.000   0.099
   60        0.004   0.044   0.000   0.048
   61        0.001   0.017   0.000   0.018
   62        0.011   0.109   0.000   0.120
   63        0.008   0.100   0.000   0.109
   64        0.001   0.014   0.000   0.015
   65        0.014   0.151   0.000   0.166
   66        0.003   0.055   0.000   0.058
   67       -0.004  -0.037  -0.000  -0.040
   68        0.012   0.109   0.000   0.120
   69        0.007   0.106   0.000   0.114
   70       -0.003  -0.031  -0.000  -0.033
   71        0.009   0.091   0.000   0.100
   72        0.004   0.044   0.000   0.048
   73        0.004   0.044   0.000   0.048
   74        0.009   0.090   0.000   0.099
   75        0.001   0.014   0.000   0.015
   76        0.008   0.100   0.000   0.109
   77        0.009   0.090   0.000   0.099
   78        0.008   0.095   0.000   0.103
   79        0.008   0.095   0.000   0.103
   80        0.009   0.090   0.000   0.099
   81        0.007   0.079   0.000   0.087
   82        0.007   0.079   0.000   0.087
   83        0.011   0.109   0.000   0.121
   84        0.002   0.054   0.000   0.055
   85        0.001   0.025  -0.000   0.026
   86        0.014   0.151   0.000   0.165
   87        0.001   0.027  -0.000   0.028
   88        0.008   0.088   0.000   0.096
   89        0.011   0.109   0.000   0.120
   90        0.001   0.017   0.000   0.018
   91        0.003   0.055   0.000   0.059
   92        0.014   0.151   0.000   0.166
   93       -0.003  -0.031  -0.000  -0.033
   94        0.007   0.106   0.000   0.114
   95        0.014   0.151   0.000   0.165
   96        0.001   0.025  -0.000   0.026
   97        0.002   0.054   0.000   0.055
   98        0.011   0.109   0.000   0.121
   99        0.008   0.088   0.000   0.096
  100        0.001   0.027  -0.000   0.028
  101        0.014   0.157   0.000   0.171
  102        0.007   0.102   0.000   0.110
  103        0.007   0.102   0.000   0.110
  104        0.014   0.157   0.000   0.171
  105        0.002   0.032  -0.000   0.034
  106        0.002   0.032  -0.000   0.034
  107        0.012   0.109   0.000   0.120
  108       -0.004  -0.037  -0.000  -0.040
--------------------------------------------------
tot           0.38    3.93   16.47   20.78
 

 total amount of memory used by VASP MPI-rank0   149431. kBytes
=======================================================================

   base      :      30000. kBytes
   nonlr-proj:      39632. kBytes
   fftplans  :       9349. kBytes
   grid      :      57131. kBytes
   one-center:       1679. kBytes
   wavefun   :      11640. kBytes
 
  
  
 General timing and accounting informations for this job:
 ========================================================
  
                  Total CPU time used (sec):     2249.747
                            User time (sec):     2238.899
                          System time (sec):       10.848
                         Elapsed time (sec):     2261.003
  
                   Maximum memory used (kb):      212116.
                   Average memory used (kb):           0.
  
                          Minor page faults:        40925
                          Major page faults:           44
                 Voluntary context switches:         1394
