 vasp.5.4.4.18Apr17-6-g9f103f2a35 (build May 12 2020 05:39:39) gamma-only       
  
 MD_VERSION_INFO: Compiled 2020-05-12T12:39:39-UTC in devlin.sd.materialsdesign.
 com:/home/medea2/data/build/wwolf/vasp-gpu5.4.4/13047/x86_64/src/src/build/gam 
 from svn 13047
 
 This VASP executable licensed from Materials Design, Inc.
 
 executed on                        Lin64 date 2023.04.02  15:04:27
 running on   16 total cores
 distrk:  each k-point on   16 cores,    1 groups
 distr:  one band on NCORES_PER_BAND=   1 cores,   16 groups


--------------------------------------------------------------------------------------------------------


 INCAR:
 POTCAR:    PAW_PBE Ta_pv 07Sep2000               
 POTCAR:    PAW_PBE Ni 02Aug2007                  
 POTCAR:    PAW_PBE Li_sv 10Sep2004               
 POTCAR:    PAW_PBE O 08Apr2002                   

 ----------------------------------------------------------------------------- 
|                                                                             |
|           W    W    AA    RRRRR   N    N  II  N    N   GGGG   !!!           |
|           W    W   A  A   R    R  NN   N  II  NN   N  G    G  !!!           |
|           W    W  A    A  R    R  N N  N  II  N N  N  G       !!!           |
|           W WW W  AAAAAA  RRRRR   N  N N  II  N  N N  G  GGG   !            |
|           WW  WW  A    A  R   R   N   NN  II  N   NN  G    G                |
|           W    W  A    A  R    R  N    N  II  N    N   GGGG   !!!           |
|                                                                             |
|      For optimal performance we recommend to set                            |
|        NCORE= 4 - approx SQRT( number of cores)                             |
|      NCORE specifies how many cores store one orbital (NPAR=cpu/NCORE).     |
|      This setting can  greatly improve the performance of VASP for DFT.     |
|      The default,   NCORE=1            might be grossly inefficient         |
|      on modern multi-core architectures or massively parallel machines.     |
|      Do your own testing !!!!                                               |
|      Unfortunately you need to use the default for GW and RPA calculations. |
|      (for HF NCORE is supported but not extensively tested yet)             |
|                                                                             |
 ----------------------------------------------------------------------------- 

 POTCAR:    PAW_PBE Ta_pv 07Sep2000               
  local pseudopotential read in
  partial core-charges read in
  partial kinetic energy density read in
  atomic valenz-charges read in
  non local Contribution for L=           1  read in
    real space projection operators read in
  non local Contribution for L=           1  read in
    real space projection operators read in
  non local Contribution for L=           2  read in
    real space projection operators read in
  non local Contribution for L=           2  read in
    real space projection operators read in
  non local Contribution for L=           0  read in
    real space projection operators read in
  non local Contribution for L=           0  read in
    real space projection operators read in
    PAW grid and wavefunctions read in
 
   number of l-projection  operators is LMAX  =           6
   number of lm-projection operators is LMMAX =          18
 
 POTCAR:    PAW_PBE Ni 02Aug2007                  
  local pseudopotential read in
  partial core-charges read in
  partial kinetic energy density read in
  atomic valenz-charges read in
  non local Contribution for L=           2  read in
    real space projection operators read in
  non local Contribution for L=           2  read in
    real space projection operators read in
  non local Contribution for L=           0  read in
    real space projection operators read in
  non local Contribution for L=           0  read in
    real space projection operators read in
  non local Contribution for L=           1  read in
    real space projection operators read in
  non local Contribution for L=           1  read in
    real space projection operators read in
    PAW grid and wavefunctions read in
 
   number of l-projection  operators is LMAX  =           6
   number of lm-projection operators is LMMAX =          18
 
 POTCAR:    PAW_PBE Li_sv 10Sep2004               
  local pseudopotential read in
  atomic valenz-charges read in
  non local Contribution for L=           0  read in
    real space projection operators read in
  non local Contribution for L=           0  read in
    real space projection operators read in
  non local Contribution for L=           1  read in
    real space projection operators read in
    PAW grid and wavefunctions read in
 
   number of l-projection  operators is LMAX  =           3
   number of lm-projection operators is LMMAX =           5
 
 POTCAR:    PAW_PBE O 08Apr2002                   
  local pseudopotential read in
  partial core-charges read in
  partial kinetic energy density read in
  kinetic energy density of atom read in
  atomic valenz-charges read in
  non local Contribution for L=           0  read in
    real space projection operators read in
  non local Contribution for L=           0  read in
    real space projection operators read in
  non local Contribution for L=           1  read in
    real space projection operators read in
  non local Contribution for L=           1  read in
    real space projection operators read in
    PAW grid and wavefunctions read in
 
   number of l-projection  operators is LMAX  =           4
   number of lm-projection operators is LMMAX =           8
 
 Optimization of the real space projectors (new method)

 maximal supplied QI-value         = 15.12
 optimisation between [QCUT,QGAM] = [ 11.34, 22.83] = [ 36.00,145.93] Ry 
 Optimized for a Real-space Cutoff    1.61 Angstroem

   l    n(q)    QCUT    max X(q) W(low)/X(q) W(high)/X(q)  e(spline) 
   1     11    11.338     4.092    0.40E-05    0.64E-05    0.47E-07
   1     11    11.338     4.834    0.13E-04    0.44E-04    0.21E-06
   2     10    11.338    62.294    0.15E-03    0.31E-03    0.77E-06
   2     10    11.338    50.966    0.15E-03    0.31E-03    0.77E-06
   0     11    11.338   103.792    0.33E-04    0.19E-04    0.90E-07
   0     11    11.338    56.335    0.26E-04    0.17E-04    0.79E-07
 Optimization of the real space projectors (new method)

 maximal supplied QI-value         = 16.25
 optimisation between [QCUT,QGAM] = [ 11.38, 22.75] = [ 36.24,144.96] Ry 
 Optimized for a Real-space Cutoff    1.47 Angstroem

   l    n(q)    QCUT    max X(q) W(low)/X(q) W(high)/X(q)  e(spline) 
   2      9    11.376    60.317    0.17E-03    0.16E-04    0.16E-06
   2      9    11.376    55.921    0.17E-03    0.16E-04    0.17E-06
   0     10    11.376    51.690    0.45E-04    0.60E-04    0.21E-06
   0     10    11.376    30.015    0.37E-04    0.55E-04    0.19E-06
   1     10    11.376    18.849    0.83E-04    0.11E-03    0.92E-07
   1     10    11.376    14.624    0.69E-04    0.92E-04    0.82E-07
 Optimization of the real space projectors (new method)

 maximal supplied QI-value         = 22.11
 optimisation between [QCUT,QGAM] = [ 11.28, 22.77] = [ 35.61,145.23] Ry 
 Optimized for a Real-space Cutoff    1.10 Angstroem

   l    n(q)    QCUT    max X(q) W(low)/X(q) W(high)/X(q)  e(spline) 
   0      7    11.276    10.506    0.54E-04    0.58E-04    0.16E-07
   0      7    11.276     8.367    0.11E-03    0.14E-03    0.35E-07
   1      7    11.276     8.983    0.23E-03    0.43E-03    0.86E-07
 Optimization of the real space projectors (new method)

 maximal supplied QI-value         = 24.76
 optimisation between [QCUT,QGAM] = [ 11.39, 22.77] = [ 36.31,145.25] Ry 
 Optimized for a Real-space Cutoff    1.10 Angstroem

   l    n(q)    QCUT    max X(q) W(low)/X(q) W(high)/X(q)  e(spline) 
   0      7    11.387    20.381    0.22E-03    0.48E-03    0.18E-06
   0      7    11.387    15.268    0.22E-03    0.52E-03    0.19E-06
   1      7    11.387     5.964    0.22E-03    0.73E-03    0.24E-06
   1      7    11.387     5.382    0.19E-03    0.60E-03    0.21E-06

 ----------------------------------------------------------------------------- 
|                                                                             |
|  ADVICE TO THIS USER RUNNING 'VASP/VAMP'   (HEAR YOUR MASTER'S VOICE ...):  |
|                                                                             |
|      You enforced a specific xc-type in the INCAR file,                     |
|      a different type was found on the POTCAR file                          |
|          I HOPE YOU KNOW, WHAT YOU ARE  DOING                               |
|                                                                             |
 ----------------------------------------------------------------------------- 

  PAW_PBE Ta_pv 07Sep2000               :
 energy of atom  1       EATOM=-1047.1984
 kinetic energy error for atom=    0.0019 (will be added to EATOM!!)
  PAW_PBE Ni 02Aug2007                  :
 energy of atom  2       EATOM=-1077.6739
 kinetic energy error for atom=    0.0030 (will be added to EATOM!!)
  PAW_PBE Li_sv 10Sep2004               :
 energy of atom  3       EATOM= -202.7858
 kinetic energy error for atom=    0.0143 (will be added to EATOM!!)
  PAW_PBE O 08Apr2002                   :
 energy of atom  4       EATOM= -432.3788
 kinetic energy error for atom=    0.0224 (will be added to EATOM!!)
 
 
 POSCAR: ce409355_1                              
  positions in direct lattice
  No initial velocities read in
 exchange correlation table for  LEXCH =       14
   RHO(1)=    0.500       N(1)  =     2000
   RHO(2)=  100.500       N(2)  =     4000
 


--------------------------------------------------------------------------------------------------------


 ion  position               nearest neighbor table
   1  0.999  0.999  0.002-  60 1.99  57 2.00  72 2.00  93 2.01 108 2.01 105 2.02  15 2.91  18 2.91
                            12 2.92   9 2.93  25 2.93  21 2.94  54 2.97  29 3.00  47 3.00  30 3.02
   2  0.890  0.334  0.220-  56 1.99  59 2.00  80 2.01  71 2.01  74 2.01  77 2.02  22 2.90  26 2.91
                            10 2.92  13 2.93  19 2.94  16 2.94  37 2.95  39 2.97  28 2.99  40 3.00
   3  0.110  0.670  0.108-  55 1.97  61 1.99  79 2.00  94 2.01  58 2.02  64 2.04  27 2.90  14 2.92
                            23 2.92  32 2.93  17 2.95  20 2.96  29 2.97  11 2.97  47 2.97  31 2.98
   4  0.333  1.000  0.335-  87 1.99  90 2.00  69 2.01  84 2.01  63 2.01  66 2.02  21 2.90  25 2.91
                            15 2.92  18 2.93  12 2.94   9 2.94  32 2.95  33 2.97  44 2.99  35 3.00
   5  0.223  0.335  0.554-  89 1.99  86 2.00  83 2.00  92 2.01 107 2.01 104 2.02  10 2.91  13 2.91
                            19 2.92  16 2.93  26 2.93  22 2.94  54 2.97  43 3.00  46 3.00  45 3.02
   6  0.440  0.663  0.448-  88 1.97  76 1.99  70 2.00  91 2.01  85 2.02  73 2.04  27 2.90  20 2.92
                            23 2.92  37 2.93  11 2.95  14 2.96  43 2.97  17 2.97  46 2.97  38 2.98
   7  0.667  0.999  0.670-  99 1.99 102 1.99  96 2.00  81 2.01  78 2.01  75 2.02  12 2.89  25 2.90
                             9 2.91  18 2.93  21 2.94  15 2.95  38 2.96  39 2.97  51 3.01  48 3.03
   8  0.559  0.335  0.886-  98 1.99 101 1.99  95 2.00  68 2.01  65 2.01  62 2.02  19 2.89  26 2.90
                            16 2.91  13 2.93  22 2.94  10 2.95  31 2.96  33 2.97  51 3.01  48 3.03
   9  0.334  0.999  1.000-  60 2.05  99 2.06  63 2.06  96 2.06  66 2.07  93 2.07   7 2.91  12 2.92
                            21 2.92   1 2.93  18 2.93   4 2.94
  10  0.222  0.334  0.222-  86 2.05  62 2.06  59 2.06  65 2.06  80 2.07  83 2.07   5 2.91  22 2.92
                             2 2.92  13 2.92  19 2.92   8 2.95
  11  0.448  0.666  0.108-  67 1.95 100 1.96  85 2.04  64 2.04  70 2.09  61 2.10  50 2.83  14 2.89
                            24 2.89  23 2.90   6 2.95   3 2.97  20 2.98
  12  0.667  0.999  1.000-  99 2.06  66 2.06  72 2.06 102 2.06 105 2.06  69 2.07   7 2.89  25 2.92
                             9 2.92   1 2.92  15 2.92   4 2.94
  13  0.556  0.335  0.222-  89 2.05  68 2.06  86 2.06  65 2.06  74 2.07  71 2.07   5 2.91  26 2.92
                            10 2.92   8 2.93   2 2.93  16 2.93
  14  0.777  0.667  0.109-  67 1.96 106 1.97  58 2.04  73 2.05  70 2.08  55 2.09  34 2.81  11 2.89
                            24 2.90  27 2.91   3 2.92   6 2.96  17 2.98
  15  0.667  1.000  0.334-  57 2.05  75 2.06  90 2.06  78 2.06  69 2.07  72 2.07   1 2.91  21 2.92
                             4 2.92  18 2.92  12 2.92   7 2.95
  16  0.556  0.334  0.556-  89 2.05  98 2.06  74 2.06  95 2.06  77 2.07  92 2.07   8 2.91  19 2.92
                            22 2.92   5 2.93  13 2.93   2 2.94
  17  0.778  0.667  0.448-  82 1.95  97 1.96  58 2.04  73 2.04  79 2.09  76 2.10  49 2.83  20 2.89
                            24 2.89  23 2.90   3 2.95   6 2.97  14 2.98
  18  0.999  0.999  0.334-  60 2.05  81 2.06  57 2.06  78 2.06  63 2.07  84 2.07   1 2.91  25 2.92
                            15 2.92   7 2.93   4 2.93   9 2.93
  19  0.889  0.334  0.556-  98 2.06  77 2.06  83 2.06 101 2.06 104 2.06  80 2.07   8 2.89  26 2.92
                            16 2.92   5 2.92  10 2.92   2 2.94
  20  0.108  0.667  0.447-  82 1.96 103 1.97  85 2.04  64 2.05  79 2.08  88 2.09  41 2.81  17 2.89
                            24 2.90  27 2.91   6 2.92   3 2.96  11 2.98
  21  0.334  1.000  0.666-  87 2.06  75 2.06  93 2.06  90 2.06 108 2.07  96 2.07   4 2.90  15 2.92
                             9 2.92  25 2.93   1 2.94   7 2.94
  22  0.222  0.334  0.889-  56 2.06  62 2.06  92 2.06  59 2.06 107 2.07  95 2.07   2 2.90  10 2.92
                            16 2.92  26 2.93   5 2.94   8 2.94
  23  0.447  0.667  0.778-  97 1.99 100 1.99  61 2.07  76 2.07  91 2.08  94 2.08  11 2.90  17 2.90
                            24 2.90   6 2.92   3 2.92  27 2.96
  24  0.778  0.667  0.778-  97 1.91 100 1.91 103 1.92 106 1.92  67 1.93  82 1.93  53 2.84  52 2.84
                            11 2.89  17 2.89  14 2.90  20 2.90  23 2.90  27 2.91
  25  1.000  0.999  0.667- 108 2.05  84 2.06  87 2.06 105 2.06  81 2.06 102 2.06   7 2.90   4 2.91
                            12 2.92  18 2.92  21 2.93   1 2.93
  26  0.889  0.334  0.888- 107 2.05  71 2.06  56 2.06 104 2.06  68 2.06 101 2.06   8 2.90   2 2.91
                            19 2.92  13 2.92  22 2.93   5 2.93
  27  0.110  0.667  0.778- 103 2.00 106 2.00  55 2.07  88 2.07  91 2.08  94 2.08   3 2.90   6 2.90
                            14 2.91  20 2.91  24 2.91  23 2.96
  28  0.002  0.500  0.987- 107 2.05  94 2.09  71 2.09  59 2.16 106 2.17  58 2.23   2 2.99   3 3.03

  29  0.875  0.833  0.238-  78 2.05  79 2.07  73 2.08  72 2.10  55 2.18  60 2.19   3 2.97   1 3.00

  30  0.126  0.166  0.110-  63 2.07  62 2.08  93 2.10  80 2.11  57 2.19  56 2.20   2 3.01   1 3.02

  31  0.327  0.499  0.004-  94 2.08  65 2.09  95 2.09  59 2.09  64 2.11   8 2.96   3 2.98
  32  0.223  0.834  0.222-  79 2.07  61 2.08  84 2.08  66 2.09  60 2.15  85 2.17   3 2.93   4 2.95

  33  0.444  0.167  0.111-  62 2.09  68 2.10  69 2.10  63 2.10  99 2.15  86 2.15   4 2.97   8 2.97

  34  0.670  0.507  0.005-  70 2.06 106 2.08 100 2.15  71 2.15 101 2.17  65 2.17  14 2.81   8 3.05

  35  0.567  0.834  0.213-  72 2.06  66 2.09  73 2.13  90 2.14  67 2.18  85 2.21   4 3.00   6 3.05

  36  0.764  0.167  0.111-  69 2.07  68 2.07 105 2.10  74 2.11  57 2.19  56 2.19   2 3.01   1 3.02

  37  0.667  0.500  0.334-  70 2.07  76 2.08  71 2.08  77 2.09  89 2.15  58 2.17   6 2.93   2 2.95

  38  0.553  0.834  0.552-  91 2.08  78 2.09  96 2.09  90 2.09  73 2.11   7 2.96   6 2.98
  39  0.777  0.166  0.445-  75 2.09  81 2.10  80 2.10  74 2.10  98 2.15  57 2.15   2 2.97   7 2.97

  40  0.002  0.500  0.343-  83 2.06  77 2.09  64 2.13  59 2.14  82 2.18  58 2.21   2 3.00   3 3.05

  41  0.897  0.826  0.551-  79 2.06 103 2.08  97 2.15  84 2.15 102 2.17  78 2.17  20 2.81   7 3.05

  42  0.097  0.167  0.445-  80 2.07  81 2.07 104 2.10  63 2.11  86 2.19  87 2.19   4 3.01   5 3.02

  43  0.334  0.500  0.318-  65 2.05  70 2.07  64 2.08  83 2.10  88 2.18  89 2.19   6 2.97   5 3.00

  44  0.211  0.834  0.569- 108 2.05  91 2.09  84 2.09  90 2.16 103 2.17  85 2.23   4 2.99   6 3.03

  45  0.458  0.167  0.445-  74 2.07  75 2.08  92 2.10  69 2.11  86 2.19  87 2.20   4 3.01   5 3.02

  46  0.333  0.499  0.682-  95 2.05  94 2.06  76 2.08 107 2.09  88 2.17  89 2.19   6 2.97   5 3.00

  47  0.237  0.834  0.874-  96 2.05  91 2.06  61 2.08 108 2.09  55 2.17  60 2.19   3 2.97   1 3.00

  48  0.430  0.167  0.778-  92 2.07  93 2.07  62 2.10  75 2.10  98 2.20  99 2.20   8 3.03   7 3.03

  49  0.669  0.506  0.658-  76 2.04  82 2.12  77 2.14  95 2.16 100 2.17 101 2.18  17 2.83   8 3.03

  50  0.549  0.827  0.898-  61 2.04  67 2.12  66 2.14  96 2.16  97 2.17 102 2.18  11 2.83   7 3.03

  51  0.792  0.167  0.778- 104 2.07 105 2.07  68 2.10  81 2.10  98 2.20  99 2.20   8 3.01   7 3.01

  52  0.994  0.506  0.671- 106 2.09  88 2.11  82 2.12 101 2.14 107 2.16  83 2.16  24 2.84   5 3.04

  53  0.887  0.827  0.885- 103 2.09  55 2.11  67 2.12 102 2.14 108 2.16  72 2.16  24 2.84   1 3.04

  54  0.111  0.167  0.778-  92 2.10  93 2.10 104 2.10 105 2.10  56 2.14  87 2.14   5 2.97   1 2.97

  55  0.004  0.748  0.001-   3 1.97  27 2.07  14 2.09  53 2.11  47 2.17  29 2.18
  56  0.997  0.255  0.005-   2 1.99  22 2.06  26 2.06  54 2.14  36 2.19  30 2.20
  57  0.891  0.078  0.217-   1 2.00  15 2.05  18 2.06  39 2.15  36 2.19  30 2.19
  58  0.891  0.592  0.222-   3 2.02  17 2.04  14 2.04  37 2.17  40 2.21  28 2.23
  59  0.105  0.413  0.115-   2 2.00  10 2.06  22 2.06  31 2.09  40 2.14  28 2.16
  60  0.109  0.921  0.108-   1 1.99  18 2.05   9 2.05  32 2.15  47 2.19  29 2.19
  61  0.327  0.748  0.002-   3 1.99  50 2.04  23 2.07  47 2.08  32 2.08  11 2.10
  62  0.341  0.255  0.996-   8 2.02  10 2.06  22 2.06  30 2.08  33 2.09  48 2.10
  63  0.225  0.078  0.225-   4 2.01   9 2.06  18 2.07  30 2.07  33 2.10  42 2.11
  64  0.221  0.591  0.219-   3 2.04  11 2.04  20 2.05  43 2.08  31 2.11  40 2.13
  65  0.447  0.414  0.104-   8 2.01  43 2.05  10 2.06  13 2.06  31 2.09  34 2.17
  66  0.442  0.920  0.118-   4 2.02  12 2.06   9 2.07  32 2.09  35 2.09  50 2.14
  67  0.669  0.735  0.995-  24 1.93  11 1.95  14 1.96  50 2.12  53 2.12  35 2.18
  68  0.664  0.255  0.997-   8 2.01  13 2.06  26 2.06  36 2.07  33 2.10  51 2.10
  69  0.549  0.079  0.225-   4 2.01  15 2.07  36 2.07  12 2.07  33 2.10  45 2.11
  70  0.551  0.585  0.231-   6 2.00  34 2.06  37 2.07  43 2.07  14 2.08  11 2.09
  71  0.782  0.414  0.114-   2 2.01  26 2.06  13 2.07  37 2.08  28 2.09  34 2.15
  72  0.783  0.919  0.108-   1 2.00  35 2.06  12 2.06  15 2.07  29 2.10  53 2.16
  73  0.662  0.742  0.336-   6 2.04  17 2.04  14 2.05  29 2.08  38 2.11  35 2.13
  74  0.673  0.255  0.330-   2 2.01  16 2.06  13 2.07  45 2.07  39 2.10  36 2.11
  75  0.559  0.078  0.559-   7 2.02  15 2.06  21 2.06  45 2.08  39 2.09  48 2.10
  76  0.551  0.585  0.554-   6 1.99  49 2.04  23 2.07  46 2.08  37 2.08  17 2.10
  77  0.782  0.414  0.438-   2 2.02  19 2.06  16 2.07  37 2.09  40 2.09  49 2.14
  78  0.773  0.920  0.451-   7 2.01  29 2.05  15 2.06  18 2.06  38 2.09  41 2.17
  79  0.005  0.748  0.325-   3 2.00  41 2.06  32 2.07  29 2.07  20 2.08  17 2.09
  80  0.997  0.254  0.330-   2 2.01  10 2.07  42 2.07  19 2.07  39 2.10  30 2.11
  81  0.883  0.079  0.559-   7 2.01  18 2.06  25 2.06  42 2.07  39 2.10  51 2.10
  82  0.886  0.598  0.560-  24 1.93  17 1.95  20 1.96  49 2.12  52 2.12  40 2.18
  83  0.113  0.414  0.447-   5 2.00  40 2.06  19 2.06  10 2.07  43 2.10  52 2.16
  84  0.118  0.920  0.442-   4 2.01  25 2.06  18 2.07  32 2.08  44 2.09  41 2.15
  85  0.335  0.742  0.334-   6 2.02  11 2.04  20 2.04  32 2.17  35 2.21  44 2.23
  86  0.330  0.255  0.339-   5 2.00  10 2.05  13 2.06  33 2.15  42 2.19  45 2.19
  87  0.224  0.079  0.551-   4 1.99  21 2.06  25 2.06  54 2.14  42 2.19  45 2.20
  88  0.227  0.585  0.554-   6 1.97  27 2.07  20 2.09  52 2.11  46 2.17  43 2.18
  89  0.439  0.412  0.447-   5 1.99  13 2.05  16 2.05  37 2.15  46 2.19  43 2.19
  90  0.442  0.920  0.441-   4 2.00  15 2.06  21 2.06  38 2.09  35 2.14  44 2.16
  91  0.337  0.746  0.659-   6 2.01  47 2.06  38 2.08  27 2.08  23 2.08  44 2.09
  92  0.330  0.255  0.664-   5 2.01  22 2.06  16 2.07  48 2.07  45 2.10  54 2.10
  93  0.216  0.079  0.892-   1 2.01  21 2.06   9 2.07  48 2.07  30 2.10  54 2.10
  94  0.219  0.587  0.896-   3 2.01  46 2.06  31 2.08  27 2.08  23 2.08  28 2.09
  95  0.447  0.414  0.782-   8 2.00  46 2.05  16 2.06  22 2.07  31 2.09  49 2.16
  96  0.451  0.919  0.774-   7 2.00  47 2.05   9 2.06  21 2.07  38 2.09  50 2.16
  97  0.673  0.736  0.670-  24 1.91  17 1.96  23 1.99  41 2.15  50 2.17
  98  0.665  0.255  0.671-   8 1.99  16 2.06  19 2.06  39 2.15  48 2.20  51 2.20
  99  0.558  0.078  0.884-   7 1.99   9 2.06  12 2.06  33 2.15  48 2.20  51 2.20
 100  0.565  0.597  0.885-  24 1.91  11 1.96  23 1.99  34 2.15  49 2.17
 101  0.773  0.415  0.780-   8 1.99  19 2.06  26 2.06  52 2.14  34 2.17  49 2.18
 102  0.775  0.919  0.775-   7 1.99  12 2.06  25 2.06  53 2.14  41 2.17  50 2.18
 103  0.992  0.737  0.670-  24 1.92  20 1.97  27 2.00  41 2.08  53 2.09  44 2.17
 104  0.006  0.255  0.663-   5 2.02  26 2.06  19 2.06  51 2.07  42 2.10  54 2.10
 105  0.892  0.079  0.892-   1 2.02  25 2.06  12 2.06  51 2.07  36 2.10  54 2.10
 106  0.884  0.596  0.886-  24 1.92  14 1.97  27 2.00  34 2.08  52 2.09  28 2.17
 107  0.113  0.413  0.772-   5 2.01  28 2.05  26 2.05  22 2.07  46 2.09  52 2.16
 108  0.108  0.920  0.783-   1 2.01  44 2.05  25 2.05  21 2.07  47 2.09  53 2.16
 
  LATTYP: Found a base centered monoclinic cell.
 ALAT       =    15.1831098106
 B/A-ratio  =     0.5777284973
 C/A-ratio  =     2.2152168114
 COS(beta)  =    -0.7812441633
  
  Lattice vectors:
  
 A1 = (   4.3858575586,  -0.0052063566,   7.5915531200)
 A2 = (  -4.3858576562,  -0.0052063566,   7.5915531200)
 A3 = (   0.0000001953, -14.4825035827, -30.3561357995)


Analysis of symmetry for initial positions (statically):
=====================================================================
 Subroutine PRICEL returns:
 Original cell was already a primitive cell.
 

 Routine SETGRP: Setting up the symmetry group for a 
 base centered monoclinic supercell.


 Subroutine GETGRP returns: Found  2 space group operations
 (whereof  1 operations were pure point group operations)
 out of a pool of  4 trial point group operations.


The static configuration has the point symmetry C_1 .
 The point group associated with its full space group is C_2 .


Analysis of symmetry for dynamics (positions and initial velocities):
=====================================================================
 Subroutine PRICEL returns:
 Original cell was already a primitive cell.
 

 Routine SETGRP: Setting up the symmetry group for a 
 base centered monoclinic supercell.


 Subroutine GETGRP returns: Found  2 space group operations
 (whereof  1 operations were pure point group operations)
 out of a pool of  4 trial point group operations.


The dynamic configuration has the point symmetry C_1 .
 The point group associated with its full space group is C_2 .


Analysis of structural, dynamic, and magnetic symmetry:
=====================================================================
 Subroutine PRICEL returns:
 Original cell was already a primitive cell.
 

 Routine SETGRP: Setting up the symmetry group for a 
 base centered monoclinic supercell.


 Subroutine GETGRP returns: Found  2 space group operations
 (whereof  1 operations were pure point group operations)
 out of a pool of  4 trial point group operations.


The magnetic configuration has the point symmetry C_1 .
 The point group associated with its full space group is C_2 .


 Subroutine INISYM returns: Found  2 space group operations
 (whereof  1 operations are pure point group operations),
 and found     1 'primitive' translations

 
 
 KPOINTS: Automatic mesh                          

Automatic generation of k-mesh.
Space group operators:
 irot       det(A)        alpha          n_x          n_y          n_z        tau_x        tau_y        tau_z
    1     1.000000     0.000000     1.000000     0.000000     0.000000     0.000000     0.000000     0.000000
    2     1.000000   180.000000     1.000000     0.000000     0.000000     1.222222    -0.666667    -2.444444
 
 Subroutine IBZKPT returns following result:
 ===========================================
 
 Found      1 irreducible k-points:
 
 Following reciprocal coordinates:
            Coordinates               Weight
  0.000000  0.000000  0.000000      1.000000
 
 Following cartesian coordinates:
            Coordinates               Weight
  0.000000  0.000000  0.000000      1.000000
 


--------------------------------------------------------------------------------------------------------




 Dimension of arrays:
   k-points           NKPTS =      1   k-points in BZ     NKDIM =      1   number of bands    NBANDS=    448
   number of dos      NEDOS =    301   number of ions     NIONS =    108
   non local maximal  LDIM  =      6   non local SUM 2l+1 LMDIM =     18
   total plane-waves  NPLWV = 442368
   max r-space proj   IRMAX =   8073   max aug-charges    IRDMAX=  25929
   dimension x,y,z NGX =    64 NGY =  108 NGZ =   64
   dimension x,y,z NGXF=   128 NGYF=  216 NGZF=  128
   support grid    NGXF=   128 NGYF=  216 NGZF=  128
   ions per type =               8  19  27  54
   NGX,Y,Z   is equivalent  to a cutoff of  12.13, 12.38, 12.14 a.u.
   NGXF,Y,Z  is equivalent  to a cutoff of  24.26, 24.76, 24.27 a.u.

 SYSTEM =  unknown system                          
 POSCAR =  ce409355_1                              

 Startparameter for this run:
   NWRITE =      1    write-flag & timer
   PREC   = accura    normal or accurate (medium, high low for compatibility)
   ISTART =      0    job   : 0-new  1-cont  2-samecut
   ICHARG =      2    charge: 1-file 2-atom 10-const
   ISPIN  =      2    spin polarized calculation?
   LNONCOLLINEAR =      F non collinear calculations
   LSORBIT =      F    spin-orbit coupling
   INIWAV =      1    electr: 0-lowe 1-rand  2-diag
   LASPH  =      F    aspherical Exc in radial PAW
   METAGGA=      F    non-selfconsistent MetaGGA calc.

 Electronic Relaxation 1
   ENCUT  =  500.0 eV  36.75 Ry    6.06 a.u.  15.99 26.44 15.99*2*pi/ulx,y,z
   ENINI  =  500.0     initial cutoff
   ENAUG  =  628.9 eV  augmentation charge cutoff
   NELM   =     80;   NELMIN=  2; NELMDL= -5     # of ELM steps 
   EDIFF  = 0.1E-04   stopping-criterion for ELM
   LREAL  =      T    real-space projection
   NLSPLINE    = F    spline interpolate recip. space projectors
   LCOMPAT=      F    compatible to vasp.4.4
   GGA_COMPAT  = T    GGA compatible to vasp.4.4-vasp.4.6
   LMAXPAW     = -100 max onsite density
   LMAXMIX     =    2 max onsite mixed and CHGCAR
   VOSKOWN=      1    Vosko Wilk Nusair interpolation
   ROPT   =   -0.00025  -0.00025  -0.00025  -0.00025
 Ionic relaxation
   EDIFFG = -.2E-01   stopping-criterion for IOM
   NSW    =     20    number of steps for IOM
   NBLOCK =      1;   KBLOCK =     20    inner block; outer block 
   IBRION =      1    ionic relax: 0-MD 1-quasi-New 2-CG
   NFREE  =      0    steps in history (QN), initial steepest desc. (CG)
   ISIF   =      3    stress and relaxation
   IWAVPR =     11    prediction:  0-non 1-charg 2-wave 3-comb
   ISYM   =      2    0-nonsym 1-usesym 2-fastsym
   LCORR  =      T    Harris-Foulkes like correction to forces

   POTIM  = 0.5000    time-step for ionic-motion
   TEIN   =    0.0    initial temperature
   TEBEG  =    0.0;   TEEND  =   0.0 temperature during run
   SMASS  =  -3.00    Nose mass-parameter (am)
   estimated Nose-frequenzy (Omega)   =  0.10E-29 period in steps =****** mass=  -0.176E-26a.u.
   SCALEE = 1.0000    scale energy and forces
   NPACO  =    256;   APACO  = 16.0  distance and # of slots for P.C.
   PSTRESS=    0.0 pullay stress

  Mass of Ions in am
   POMASS = 180.95 58.69  7.01 16.00
  Ionic Valenz
   ZVAL   =  11.00 10.00  3.00  6.00
  Atomic Wigner-Seitz radii
   RWIGS  =   1.34  1.15  1.23  0.73
  virtual crystal weights 
   VCA    =   1.00  1.00  1.00  1.00
   NELECT =     683.0000    total number of electrons
   NUPDOWN=      -1.0000    fix difference up-down

 DOS related values:
   EMIN   =  10.00;   EMAX   =-10.00  energy-range for DOS
   EFERMI =   0.00
   ISMEAR =     0;   SIGMA  =   0.05  broadening in eV -4-tet -1-fermi 0-gaus

 Electronic relaxation 2 (details)
   IALGO  =     38    algorithm
   LDIAG  =      T    sub-space diagonalisation (order eigenvalues)
   LSUBROT=      F    optimize rotation matrix (better conditioning)
   TURBO    =      0    0=normal 1=particle mesh
   IRESTART =      0    0=no restart 2=restart with 2 vectors
   NREBOOT  =      0    no. of reboots
   NMIN     =      0    reboot dimension
   EREF     =   0.00    reference energy to select bands
   IMIX   =      4    mixing-type and parameters
     AMIX     =   0.40;   BMIX     =  1.00
     AMIX_MAG =   1.60;   BMIX_MAG =  1.00
     AMIN     =   0.10
     WC   =   100.;   INIMIX=   1;  MIXPRE=   1;  MAXMIX= -45

 Intra band minimization:
   WEIMIN = 0.0010     energy-eigenvalue tresh-hold
   EBREAK =  0.56E-08  absolut break condition
   DEPER  =   0.30     relativ break condition  

   TIME   =   0.40     timestep for ELM

  volume/ion in A,a.u.               =       8.94        60.35
  Fermi-wavevector in a.u.,A,eV,Ry     =   1.458548  2.756257 28.944537  2.127363
  Thomas-Fermi vector in A             =   2.575220
 
 Write flags
   LWAVE        =      F    write WAVECAR
   LDOWNSAMPLE  =      F    k-point downsampling of WAVECAR
   LCHARG       =      T    write CHGCAR
   LVTOT        =      F    write LOCPOT, total local potential
   LVHAR        =      F    write LOCPOT, Hartree potential only
   LELF         =      F    write electronic localiz. function (ELF)
   LORBIT       =      0    0 simple, 1 ext, 2 COOP (PROOUT), +10 PAW based schemes


 Dipole corrections
   LMONO  =      F    monopole corrections only (constant potential shift)
   LDIPOL =      F    correct potential (dipole corrections)
   IDIPOL =      0    1-x, 2-y, 3-z, 4-all directions 
   EPSILON=  1.0000000 bulk dielectric constant

 Exchange correlation treatment:
   GGA     =    PS    GGA type
   LEXCH   =    14    internal setting for exchange type
   VOSKOWN=      1    Vosko Wilk Nusair interpolation
   LHFCALC =     F    Hartree Fock is set to
   LHFONE  =     F    Hartree Fock one center treatment
   AEXX    =    0.0000 exact exchange contribution

 Linear response parameters
   LEPSILON=     F    determine dielectric tensor
   LRPA    =     F    only Hartree local field effects (RPA)
   LNABLA  =     F    use nabla operator in PAW spheres
   LVEL    =     F    velocity operator in full k-point grid
   LINTERFAST=   F  fast interpolation
   KINTER  =     0    interpolate to denser k-point grid
   CSHIFT  =0.1000    complex shift for real part using Kramers Kronig
   OMEGAMAX=  -1.0    maximum frequency
   DEG_THRESHOLD= 0.2000000E-02 threshold for treating states as degnerate
   RTIME   =   -0.100 relaxation time in fs
  (WPLASMAI=    0.000 imaginary part of plasma frequency in eV, 0.658/RTIME)
   DFIELD  = 0.0000000 0.0000000 0.0000000 field for delta impulse in time
 
 Orbital magnetization related:
   ORBITALMAG=     F  switch on orbital magnetization
   LCHIMAG   =     F  perturbation theory with respect to B field
   DQ        =  0.001000  dq finite difference perturbation B field
   LLRAUG    =     F  two centre corrections for induced B field



--------------------------------------------------------------------------------------------------------


 quasi-Newton-method for relaxation of ions
 charge density and potential will be updated during run
 spin polarized calculation
 Variant of blocked Davidson
 Davidson routine will perform the subspace rotation
 perform sub-space diagonalisation
    after iterative eigenvector-optimisation
 modified Broyden-mixing scheme, WC =      100.0
 initial mixing is a Kerker type mixing with AMIX =  0.4000 and BMIX =      1.0000
 Hartree-type preconditioning will be used
 using additional bands          106
 real space projection scheme for non local part
 use partial core corrections
 calculate Harris-corrections to forces 
   (improved forces if not selfconsistent)
 use gradient corrections 
 use of overlap-Matrix (Vanderbilt PP)
 Gauss-broadening in eV      SIGMA  =   0.05


--------------------------------------------------------------------------------------------------------


  energy-cutoff  :      500.00
  volume of cell :      965.79
      direct lattice vectors                 reciprocal lattice vectors
     8.771715215  0.000000000  0.000000000     0.114002789 -0.000045760 -0.065862706
     0.000000000 14.503329009 -0.010076681     0.000000000  0.068949720  0.000047286
     4.385857559 -0.005206357  7.591553120     0.000000000  0.000091521  0.131725414

  length of vectors
     8.771715215 14.503332510  8.767408534     0.131660678  0.068949736  0.131725446


 
 k-points in units of 2pi/SCALE and weight: Automatic mesh                          
   0.00000000  0.00000000  0.00000000       1.000
 
 k-points in reciprocal lattice and weights: Automatic mesh                          
   0.00000000  0.00000000  0.00000000       1.000
 
 position of ions in fractional coordinates (direct lattice) 
   0.99881016  0.99878599  0.00192865
   0.89044091  0.33351683  0.22013045
   0.11020807  0.67024623  0.10779992
   0.33279359  0.99981650  0.33542510
   0.22296103  0.33454734  0.55362691
   0.44023023  0.66308711  0.44775563
   0.66732525  0.99864790  0.66974134
   0.55928881  0.33468543  0.88581422
   0.33416384  0.99885794  0.99952850
   0.22225940  0.33370645  0.22203991
   0.44838598  0.66602425  0.10750027
   0.66682510  0.99888324  0.99975245
   0.55553809  0.33455161  0.22156854
   0.77689579  0.66655055  0.10861540
   0.66652154  0.99962688  0.33351564
   0.55591456  0.33447539  0.55602706
   0.77810847  0.66730909  0.44805528
   0.99932885  0.99878172  0.33398701
   0.88879976  0.33445009  0.55580311
   0.10773342  0.66678279  0.44694015
   0.33358694  0.99962220  0.66636622
   0.22217538  0.33371113  0.88918934
   0.44712667  0.66666667  0.77777778
   0.77801097  0.66666667  0.77777778
   0.99957359  0.99888622  0.66706057
   0.88885638  0.33444711  0.88849499
   0.10969844  0.66666667  0.77777778
   0.00160203  0.49973110  0.98670906
   0.87453686  0.83321808  0.23763141
   0.12578140  0.16621505  0.11049158
   0.32664468  0.49891814  0.00379027
   0.22251486  0.83358271  0.22186098
   0.44423542  0.16704744  0.11076116
   0.67015209  0.50703447  0.00464536
   0.56738106  0.83354208  0.21251013
   0.76385028  0.16652112  0.11081893
   0.66659807  0.49975062  0.33369457
   0.55265717  0.83441519  0.55176529
   0.77721880  0.16628590  0.44479439
   0.00211340  0.49979125  0.34304542
   0.89701966  0.82629886  0.55091020
   0.09689144  0.16681222  0.44473662
   0.33439050  0.50011525  0.31792414
   0.21053330  0.83360223  0.56884650
   0.45849521  0.16711829  0.44506397
   0.33320835  0.49948407  0.68192518
   0.23735575  0.83384926  0.87363038
   0.43045712  0.16666667  0.77777778
   0.66877250  0.50634279  0.65777121
   0.54876593  0.82699054  0.89778435
   0.79243589  0.16666667  0.77777778
   0.99410030  0.50638673  0.67074156
   0.88706408  0.82694660  0.88481400
   0.11105824  0.16666667  0.77777778
   0.00391613  0.74813662  0.00111555
   0.99739883  0.25482512  0.00480610
   0.89111145  0.07823805  0.21700334
   0.89124755  0.59170102  0.22192022
   0.10529704  0.41343360  0.11453481
   0.10875740  0.92115257  0.10811524
   0.32651711  0.74797649  0.00195732
   0.34077722  0.25508252  0.99618866
   0.22521121  0.07832304  0.22537007
   0.22075114  0.59088821  0.21932445
   0.44696504  0.41357855  0.10424211
   0.44213988  0.91980554  0.11774215
   0.66880505  0.73536538  0.99525377
   0.66395332  0.25474897  0.99671813
   0.54926565  0.07910351  0.22530063
   0.55149149  0.58515799  0.23098940
   0.78179519  0.41383118  0.11361360
   0.78305421  0.91924503  0.10807276
   0.66229782  0.74244512  0.33623110
   0.67280351  0.25501029  0.33018548
   0.55918810  0.07825081  0.55936690
   0.55069665  0.58535684  0.55359824
   0.78210425  0.41352780  0.43781340
   0.77342938  0.91975479  0.45131344
   0.00470311  0.74817534  0.32456615
   0.99678850  0.25422982  0.33025492
   0.88289367  0.07858436  0.55883743
   0.88628103  0.59796795  0.56030179
   0.11334920  0.41408831  0.44748279
   0.11763102  0.91950216  0.44194195
   0.33538999  0.74163231  0.33363533
   0.33033702  0.25509528  0.33855221
   0.22442715  0.07850821  0.55074946
   0.22725390  0.58519671  0.55444001
   0.43909487  0.41218077  0.44744031
   0.44205409  0.91989974  0.44102074
   0.33719494  0.74623415  0.65941564
   0.32989251  0.25479425  0.66351077
   0.21562550  0.07853908  0.89204479
   0.21883280  0.58709918  0.89613992
   0.44702360  0.41386713  0.78198232
   0.45122814  0.91946621  0.77357324
   0.67260238  0.73618091  0.67033634
   0.66453612  0.25512059  0.67144570
   0.55820404  0.07821274  0.88410986
   0.56516094  0.59715242  0.88521922
   0.77277351  0.41468322  0.78024051
   0.77523624  0.91865012  0.77531505
   0.99187006  0.73698986  0.66993229
   0.00597403  0.25462020  0.66345749
   0.89165373  0.07871313  0.89209807
   0.88402457  0.59634347  0.88562327
   0.11346640  0.41320899  0.77243813
   0.10812675  0.92012435  0.78311743
 
 position of ions in cartesian coordinates  (Angst):
   8.76973706 14.48571178  0.00457700
   8.77615488  4.83595824  1.66777126
   1.43950890  9.72024035  0.81161496
   4.39029731 14.49892131  2.53632263
   4.38387943  4.84916776  4.19951697
   5.82536662  9.61463934  3.39247893
   8.79097717 14.48023215  5.07431390
   8.79097716  4.84944104  6.72133319
   7.31497967 14.48156144  7.57790853
   2.92343158  4.83869842  1.68226512
   4.40459499  9.65900914  0.80938270
  10.23397171 14.48192720  7.57960840
   5.84478997  4.85095851  1.67867817
   7.29108029  9.66663644  0.81784296
   7.30928922 14.49618113  2.52182878
   7.31497969  4.84811175  4.21773856
   8.79045254  9.67587055  3.39471120
  10.23064753 14.48392104  2.52541572
  10.23397165  4.84774598  4.21603869
   2.90522271  9.66824325  3.38625093
   5.84871696 14.49438031  5.04868168
   5.84871695  4.83529288  6.74696541
   7.33329037  9.66483667  5.89782355
  10.23571322  9.66483667  5.89782355
  11.69360751 14.48370254  5.05396029
  11.69360750  4.84597065  6.74168680
   4.37346603  9.66483667  5.89782355
   4.34161794  7.24262740  7.48561861
   8.71340580 12.08319876  1.79559540
   1.58791895  2.41009630  0.83712780
   2.88185769  7.23595420  0.02374660
   2.92488764 12.08856921  1.67586967
   4.38248926  2.42216732  0.83916595
   5.89875717  7.35366355  0.03015627
   5.90894424 12.08802863  1.60488260
   7.18631316  2.41453363  0.83960981
   7.31074528  7.24631033  2.52822423
   7.26771527 12.09892534  4.18034737
   8.76834681  2.40938336  3.37500463
   1.52308649  7.24685092  2.59921129
  10.28461466 11.98121599  4.17393770
   2.80045558  2.41701705  3.37456076
   4.32754823  7.25168079  2.40849850
   4.34161787 12.08704579  4.31002848
   5.97377659  2.42145438  3.37704277
   5.91363546  7.24063146  5.17183809
   5.91363545 12.08904173  6.62380900
   7.18706982  2.41317216  5.90286189
   8.75117275  7.34023148  4.98840283
   8.75117273 11.98944170  6.80724426
  10.36224451  2.41317216  5.90286189
  11.66174167  7.34080123  5.08686749
  11.66174166 11.98887196  6.70877961
   4.38539381  2.41317216  5.90286189
   0.03924382 10.85046574  0.00093002
   8.76997736  3.69578753  0.03391797
   8.76832160  1.13358238  1.64660400
   8.79108017  8.58047917  1.67875676
   1.42596901  5.99556722  0.86533106
   1.42816698 13.35921590  0.81148043
   2.87269963 10.84813893  0.00732198
   7.35834229  3.69435920  7.56004874
   2.96392962  1.13477146  1.71011962
   2.89829193  8.56870424  1.65905902
   4.37784109  5.99772306  0.78719202
   4.39472541 13.33962936  0.88457720
  10.23160870 10.66006440  7.54811182
  10.19547318  3.68951886  7.56407161
   5.80613833  1.14609124  1.70958460
   5.85061290  8.48553624  1.74767185
   7.35597783  6.00133824  0.85833363
   7.34272026 13.33155044  0.81117716
   7.28414958 10.76617531  2.54503487
   7.34978727  3.69677907  2.50405095
   7.35834231  1.13198498  4.24567503
   7.25855721  8.48674061  4.19677199
   8.78058296  5.99525033  3.31951670
   8.76369872 13.33715663  3.41690188
   1.46475524 10.84934331  2.45642204
  10.19199589  3.68545930  2.50458598
  10.19547320  1.13682532  4.24165217
  10.23160864  8.66960878  4.24753527
   2.95686268  6.00332924  3.39291673
   2.97012025 13.33354144  3.34576026
   4.40522251 10.75440037  2.52533714
   4.38246403  3.69796815  2.56756657
   4.38411973  1.13576300  4.18025268
   4.42510140  8.48441381  4.20316395
   5.81402462  5.97566378  3.39261347
   5.81182673 13.33931247  3.33876284
   5.84988105 10.81944624  4.99846930
   5.80378687  3.69191036  5.03450978
   5.80378686  1.13443381  6.77121400
   5.84988104  8.51022694  6.79717779
   7.35082678  5.99837987  5.93228991
   7.35082678 13.33129346  5.86335718
   8.83987623 10.67358394  5.08147567
   8.77398679  3.69660207  5.09474493
   8.77398678  1.12974211  6.71097884
   8.83987622  8.65608925  6.71417142
  10.20057289  6.01022496  5.91905865
  10.20057289 13.31944837  5.87658844
  11.63862929 10.68531851  5.07840015
   2.96223254  3.68938634  5.03410705
  11.73394765  1.13695784  6.77161672
  11.63862928  8.64435468  6.71724694
   4.38309856  5.98888434  5.85984132
   4.38309856 13.34078899  5.93580577
 


--------------------------------------------------------------------------------------------------------


 use serial FFT for orbitals x direction half grid
 k-point  1 :   0.0000 0.0000 0.0000  plane waves:   12243

 maximum and minimum number of plane-waves per node :     12243    12243

 maximum number of plane-waves:     12243
 maximum index in each direction: 
   IXMAX=   15   IYMAX=   26   IZMAX=   15
   IXMIN=    0   IYMIN=  -26   IZMIN=  -13

 The following grids will avoid any aliasing or wrap around errors in the Hartre
 e energy
  - symmetry arguments have not been applied
  - exchange correlation energies might require even more grid points
  - we recommend to set PREC=Normal or Accurate and rely on VASP defaults
 NGX is ok and might be reduce to    64
 NGY is ok and might be reduce to   108
 NGZ is ok and might be reduce to    60

 serial   3D FFT for wavefunctions
 parallel 3D FFT for charge:
    minimum data exchange during FFTs selected (reduces bandwidth)


 total amount of memory used by VASP MPI-rank0   149694. kBytes
=======================================================================

   base      :      30000. kBytes
   nonlr-proj:      40081. kBytes
   fftplans  :       9349. kBytes
   grid      :      57131. kBytes
   one-center:       1679. kBytes
   wavefun   :      11454. kBytes
 
     INWAV:  cpu time    0.0000: real time    0.0000
 Broyden mixing: mesh for mixing (old mesh)
   NGX = 31   NGY = 53   NGZ = 31
  (NGX  =128   NGY  =216   NGZ  =128)
  gives a total of  50933 points

 initial charge density was supplied:
 charge density of overlapping atoms calculated
 number of electron     683.0000000 magnetization      47.5000000
 keeping initial charge density in first step


--------------------------------------------------------------------------------------------------------


 Maximum index for non-local projection operator         7820
 Maximum index for augmentation-charges         1603 (set IRDMAX)


--------------------------------------------------------------------------------------------------------


 First call to EWALD:  gamma=   0.179
 Maximum number of real-space cells 3x 2x 3
 Maximum number of reciprocal cells 2x 4x 2

    FEWALD:  cpu time    0.0046: real time    0.0046


--------------------------------------- Iteration      1(   1)  ---------------------------------------


    POTLOK:  cpu time    0.3006: real time    0.3037
    SETDIJ:  cpu time    0.0397: real time    0.0398
     EDDAV:  cpu time    6.1367: real time    6.1706
    --------------------------------------------
      LOOP:  cpu time    6.4776: real time    6.5147

 eigenvalue-minimisations  :  1824
 total energy-change (2. order) : 0.1172158E+05  (-0.3272189E+05)
 number of electron     683.0000000 magnetization      47.5000000
 augmentation part      683.0000000 magnetization      47.5000000

 Free energy of the ion-electron system (eV)
  ---------------------------------------------------
  alpha Z        PSCENC =      2895.28483519
  Ewald energy   TEWEN  =    -43790.49985855
  -Hartree energ DENC   =    -14463.98697433
  -exchange      EXHF   =         0.00000000
  -V(xc)+E(xc)   XCENC  =      2686.78236215
  PAW double counting   =     45681.61002414   -47310.91080040
  entropy T*S    EENTRO =        -0.01278569
  eigenvalues    EBANDS =      8493.70172233
  atomic energy  EATOM  =     57529.61037987
  Solvation  Ediel_sol  =         0.00000000
  ---------------------------------------------------
  free energy    TOTEN  =     11721.57890472 eV

  energy without entropy =    11721.59169040  energy(sigma->0) =    11721.58529756


--------------------------------------------------------------------------------------------------------




--------------------------------------- Iteration      1(   2)  ---------------------------------------


     EDDAV:  cpu time    6.1729: real time    6.1874
    --------------------------------------------
      LOOP:  cpu time    6.1726: real time    6.1872

 eigenvalue-minimisations  :  1840
 total energy-change (2. order) :-0.9925046E+04  (-0.9170884E+04)
 number of electron     683.0000000 magnetization      47.5000000
 augmentation part      683.0000000 magnetization      47.5000000

 Free energy of the ion-electron system (eV)
  ---------------------------------------------------
  alpha Z        PSCENC =      2895.28483519
  Ewald energy   TEWEN  =    -43790.49985855
  -Hartree energ DENC   =    -14463.98697433
  -exchange      EXHF   =         0.00000000
  -V(xc)+E(xc)   XCENC  =      2686.78236215
  PAW double counting   =     45681.61002414   -47310.91080040
  entropy T*S    EENTRO =        -0.03424559
  eigenvalues    EBANDS =     -1431.32277134
  atomic energy  EATOM  =     57529.61037987
  Solvation  Ediel_sol  =         0.00000000
  ---------------------------------------------------
  free energy    TOTEN  =      1796.53295115 eV

  energy without entropy =     1796.56719673  energy(sigma->0) =     1796.55007394


--------------------------------------------------------------------------------------------------------




--------------------------------------- Iteration      1(   3)  ---------------------------------------


     EDDAV:  cpu time    6.7590: real time    6.7790
    --------------------------------------------
      LOOP:  cpu time    6.7590: real time    6.7790

 eigenvalue-minimisations  :  2048
 total energy-change (2. order) :-0.2317750E+04  (-0.2011599E+04)
 number of electron     683.0000000 magnetization      47.5000000
 augmentation part      683.0000000 magnetization      47.5000000

 Free energy of the ion-electron system (eV)
  ---------------------------------------------------
  alpha Z        PSCENC =      2895.28483519
  Ewald energy   TEWEN  =    -43790.49985855
  -Hartree energ DENC   =    -14463.98697433
  -exchange      EXHF   =         0.00000000
  -V(xc)+E(xc)   XCENC  =      2686.78236215
  PAW double counting   =     45681.61002414   -47310.91080040
  entropy T*S    EENTRO =        -0.01827460
  eigenvalues    EBANDS =     -3749.08891527
  atomic energy  EATOM  =     57529.61037987
  Solvation  Ediel_sol  =         0.00000000
  ---------------------------------------------------
  free energy    TOTEN  =      -521.21722180 eV

  energy without entropy =     -521.19894720  energy(sigma->0) =     -521.20808450


--------------------------------------------------------------------------------------------------------




--------------------------------------- Iteration      1(   4)  ---------------------------------------


     EDDAV:  cpu time    7.1948: real time    7.2118
    --------------------------------------------
      LOOP:  cpu time    7.1948: real time    7.2118

 eigenvalue-minimisations  :  2240
 total energy-change (2. order) :-0.3511974E+03  (-0.3408430E+03)
 number of electron     683.0000000 magnetization      47.5000000
 augmentation part      683.0000000 magnetization      47.5000000

 Free energy of the ion-electron system (eV)
  ---------------------------------------------------
  alpha Z        PSCENC =      2895.28483519
  Ewald energy   TEWEN  =    -43790.49985855
  -Hartree energ DENC   =    -14463.98697433
  -exchange      EXHF   =         0.00000000
  -V(xc)+E(xc)   XCENC  =      2686.78236215
  PAW double counting   =     45681.61002414   -47310.91080040
  entropy T*S    EENTRO =        -0.07788491
  eigenvalues    EBANDS =     -4100.22674770
  atomic energy  EATOM  =     57529.61037987
  Solvation  Ediel_sol  =         0.00000000
  ---------------------------------------------------
  free energy    TOTEN  =      -872.41466454 eV

  energy without entropy =     -872.33677963  energy(sigma->0) =     -872.37572208


--------------------------------------------------------------------------------------------------------




--------------------------------------- Iteration      1(   5)  ---------------------------------------


     EDDAV:  cpu time    9.4230: real time    9.4453
    CHARGE:  cpu time    0.4355: real time    0.4365
    MIXING:  cpu time    0.0058: real time    0.0058
    --------------------------------------------
      LOOP:  cpu time    9.8638: real time    9.8871

 eigenvalue-minimisations  :  3120
 total energy-change (2. order) :-0.2582524E+02  (-0.2534543E+02)
 number of electron     682.9999907 magnetization      46.3622238
 augmentation part      196.4900548 magnetization      37.0513070

 Broyden mixing:
  rms(total) = 0.12737E+02    rms(broyden)= 0.12734E+02
  rms(prec ) = 0.13806E+02
  weight for this iteration     100.00

 Free energy of the ion-electron system (eV)
  ---------------------------------------------------
  alpha Z        PSCENC =      2895.28483519
  Ewald energy   TEWEN  =    -43790.49985855
  -Hartree energ DENC   =    -14463.98697433
  -exchange      EXHF   =         0.00000000
  -V(xc)+E(xc)   XCENC  =      2686.78236215
  PAW double counting   =     45681.61002414   -47310.91080040
  entropy T*S    EENTRO =        -0.08659534
  eigenvalues    EBANDS =     -4126.04327848
  atomic energy  EATOM  =     57529.61037987
  Solvation  Ediel_sol  =         0.00000000
  ---------------------------------------------------
  free energy    TOTEN  =      -898.23990575 eV

  energy without entropy =     -898.15331041  energy(sigma->0) =     -898.19660808


--------------------------------------------------------------------------------------------------------




--------------------------------------- Iteration      1(   6)  ---------------------------------------


    POTLOK:  cpu time    0.2823: real time    0.2830
    SETDIJ:  cpu time    0.0408: real time    0.0409
     EDDAV:  cpu time    8.3729: real time    8.3926
    CHARGE:  cpu time    0.4460: real time    0.4491
    MIXING:  cpu time    0.0061: real time    0.0061
    --------------------------------------------
      LOOP:  cpu time    9.1481: real time    9.1717

 eigenvalue-minimisations  :  2704
 total energy-change (2. order) : 0.6730329E+02  (-0.1194183E+03)
 number of electron     682.9999925 magnetization      43.3300737
 augmentation part      223.1656267 magnetization      36.8706145

 Broyden mixing:
  rms(total) = 0.16160E+02    rms(broyden)= 0.16159E+02
  rms(prec ) = 0.17563E+02
  weight for this iteration     100.00

 eigenvalues of (default mixing * dielectric matrix)
  average eigenvalue GAMMA=   0.2945
  0.2945

 Free energy of the ion-electron system (eV)
  ---------------------------------------------------
  alpha Z        PSCENC =      2895.28483519
  Ewald energy   TEWEN  =    -43790.49985855
  -Hartree energ DENC   =    -14191.16241632
  -exchange      EXHF   =         0.00000000
  -V(xc)+E(xc)   XCENC  =      2713.19916552
  PAW double counting   =     54431.43323709   -55911.69075394
  entropy T*S    EENTRO =        -0.06489748
  eigenvalues    EBANDS =     -4507.04631026
  atomic energy  EATOM  =     57529.61037987
  Solvation  Ediel_sol  =         0.00000000
  ---------------------------------------------------
  free energy    TOTEN  =      -830.93661888 eV

  energy without entropy =     -830.87172140  energy(sigma->0) =     -830.90417014


--------------------------------------------------------------------------------------------------------




--------------------------------------- Iteration      1(   7)  ---------------------------------------


    POTLOK:  cpu time    0.2798: real time    0.2805
    SETDIJ:  cpu time    0.0411: real time    0.0412
     EDDAV:  cpu time    7.3373: real time    7.3546
    CHARGE:  cpu time    0.4395: real time    0.4406
    MIXING:  cpu time    0.0062: real time    0.0062
    --------------------------------------------
      LOOP:  cpu time    8.1040: real time    8.1231

 eigenvalue-minimisations  :  2304
 total energy-change (2. order) : 0.4972067E+02  (-0.3856486E+02)
 number of electron     682.9999916 magnetization      39.3996584
 augmentation part      208.2991348 magnetization      39.0732748

 Broyden mixing:
  rms(total) = 0.10473E+02    rms(broyden)= 0.10471E+02
  rms(prec ) = 0.12262E+02
  weight for this iteration     100.00

 eigenvalues of (default mixing * dielectric matrix)
  average eigenvalue GAMMA=   0.4129
  0.4129  0.4129

 Free energy of the ion-electron system (eV)
  ---------------------------------------------------
  alpha Z        PSCENC =      2895.28483519
  Ewald energy   TEWEN  =    -43790.49985855
  -Hartree energ DENC   =    -14384.63507276
  -exchange      EXHF   =         0.00000000
  -V(xc)+E(xc)   XCENC  =      2703.97201209
  PAW double counting   =     57549.79030177   -59169.81712051
  entropy T*S    EENTRO =        -0.07032395
  eigenvalues    EBANDS =     -4114.85109786
  atomic energy  EATOM  =     57529.61037987
  Solvation  Ediel_sol  =         0.00000000
  ---------------------------------------------------
  free energy    TOTEN  =      -781.21594471 eV

  energy without entropy =     -781.14562076  energy(sigma->0) =     -781.18078274


--------------------------------------------------------------------------------------------------------




--------------------------------------- Iteration      1(   8)  ---------------------------------------


    POTLOK:  cpu time    0.2791: real time    0.2798
    SETDIJ:  cpu time    0.0411: real time    0.0412
     EDDAV:  cpu time    7.7009: real time    7.7191
    CHARGE:  cpu time    0.4393: real time    0.4403
    MIXING:  cpu time    0.0061: real time    0.0061
    --------------------------------------------
      LOOP:  cpu time    8.4666: real time    8.4865

 eigenvalue-minimisations  :  2448
 total energy-change (2. order) :-0.9040914E+02  (-0.1568291E+02)
 number of electron     682.9999933 magnetization      36.3495600
 augmentation part      195.8131015 magnetization      28.3662952

 Broyden mixing:
  rms(total) = 0.15935E+02    rms(broyden)= 0.15934E+02
  rms(prec ) = 0.21841E+02
  weight for this iteration     100.00

 eigenvalues of (default mixing * dielectric matrix)
  average eigenvalue GAMMA=   0.3919
  0.5175  0.5175  0.1407

 Free energy of the ion-electron system (eV)
  ---------------------------------------------------
  alpha Z        PSCENC =      2895.28483519
  Ewald energy   TEWEN  =    -43790.49985855
  -Hartree energ DENC   =    -14400.81219490
  -exchange      EXHF   =         0.00000000
  -V(xc)+E(xc)   XCENC  =      2698.79633464
  PAW double counting   =     60243.91770624   -61915.03796758
  entropy T*S    EENTRO =        -0.08063111
  eigenvalues    EBANDS =     -4132.80368622
  atomic energy  EATOM  =     57529.61037987
  Solvation  Ediel_sol  =         0.00000000
  ---------------------------------------------------
  free energy    TOTEN  =      -871.62508243 eV

  energy without entropy =     -871.54445132  energy(sigma->0) =     -871.58476687


--------------------------------------------------------------------------------------------------------




--------------------------------------- Iteration      1(   9)  ---------------------------------------


    POTLOK:  cpu time    0.2801: real time    0.2807
    SETDIJ:  cpu time    0.0411: real time    0.0412
     EDDAV:  cpu time    7.8042: real time    7.8227
    CHARGE:  cpu time    0.4078: real time    0.4088
    MIXING:  cpu time    0.0058: real time    0.0058
    --------------------------------------------
      LOOP:  cpu time    8.5390: real time    8.5592

 eigenvalue-minimisations  :  2528
 total energy-change (2. order) : 0.8180335E+02  (-0.2981511E+02)
 number of electron     682.9999916 magnetization      30.3178383
 augmentation part      205.6010621 magnetization      24.2310604

 Broyden mixing:
  rms(total) = 0.94722E+01    rms(broyden)= 0.94710E+01
  rms(prec ) = 0.11119E+02
  weight for this iteration     100.00

 eigenvalues of (default mixing * dielectric matrix)
  average eigenvalue GAMMA=   0.5274
  1.1942  0.5135  0.2989  0.1028

 Free energy of the ion-electron system (eV)
  ---------------------------------------------------
  alpha Z        PSCENC =      2895.28483519
  Ewald energy   TEWEN  =    -43790.49985855
  -Hartree energ DENC   =    -14309.52392308
  -exchange      EXHF   =         0.00000000
  -V(xc)+E(xc)   XCENC  =      2693.74881438
  PAW double counting   =     62384.95694132   -64056.00969695
  entropy T*S    EENTRO =        -0.06749475
  eigenvalues    EBANDS =     -4137.32173385
  atomic energy  EATOM  =     57529.61037987
  Solvation  Ediel_sol  =         0.00000000
  ---------------------------------------------------
  free energy    TOTEN  =      -789.82173642 eV

  energy without entropy =     -789.75424167  energy(sigma->0) =     -789.78798905


--------------------------------------------------------------------------------------------------------




--------------------------------------- Iteration      1(  10)  ---------------------------------------


    POTLOK:  cpu time    0.2670: real time    0.2676
    SETDIJ:  cpu time    0.0412: real time    0.0413
     EDDAV:  cpu time    7.2664: real time    7.2865
    CHARGE:  cpu time    0.4464: real time    0.4474
    MIXING:  cpu time    0.0067: real time    0.0068
    --------------------------------------------
      LOOP:  cpu time    8.0277: real time    8.0496

 eigenvalue-minimisations  :  2528
 total energy-change (2. order) :-0.3305899E+02  (-0.1180235E+02)
 number of electron     682.9999915 magnetization      27.0292815
 augmentation part      205.0986595 magnetization      23.9157600

 Broyden mixing:
  rms(total) = 0.11523E+02    rms(broyden)= 0.11522E+02
  rms(prec ) = 0.14328E+02
  weight for this iteration     100.00

 eigenvalues of (default mixing * dielectric matrix)
  average eigenvalue GAMMA=   0.5402
  1.5546  0.4381  0.4381  0.1350  0.1350

 Free energy of the ion-electron system (eV)
  ---------------------------------------------------
  alpha Z        PSCENC =      2895.28483519
  Ewald energy   TEWEN  =    -43790.49985855
  -Hartree energ DENC   =    -14181.75245218
  -exchange      EXHF   =         0.00000000
  -V(xc)+E(xc)   XCENC  =      2689.78091434
  PAW double counting   =     67107.96339177   -68796.61586377
  entropy T*S    EENTRO =        -0.05870917
  eigenvalues    EBANDS =     -4276.59336078
  atomic energy  EATOM  =     57529.61037987
  Solvation  Ediel_sol  =         0.00000000
  ---------------------------------------------------
  free energy    TOTEN  =      -822.88072326 eV

  energy without entropy =     -822.82201410  energy(sigma->0) =     -822.85136868


--------------------------------------------------------------------------------------------------------




--------------------------------------- Iteration      1(  11)  ---------------------------------------


    POTLOK:  cpu time    0.2816: real time    0.2823
    SETDIJ:  cpu time    0.0412: real time    0.0413
     EDDAV:  cpu time    7.4116: real time    7.4291
    CHARGE:  cpu time    0.4412: real time    0.4422
    MIXING:  cpu time    0.0069: real time    0.0069
    --------------------------------------------
      LOOP:  cpu time    8.1825: real time    8.2018

 eigenvalue-minimisations  :  2304
 total energy-change (2. order) :-0.4151354E+01  (-0.1170297E+02)
 number of electron     682.9999927 magnetization      22.9177300
 augmentation part      205.9126451 magnetization      20.2847687

 Broyden mixing:
  rms(total) = 0.12569E+02    rms(broyden)= 0.12568E+02
  rms(prec ) = 0.15836E+02
  weight for this iteration     100.00

 eigenvalues of (default mixing * dielectric matrix)
  average eigenvalue GAMMA=   0.5442
  1.8979  0.4733  0.4733  0.1590  0.1590  0.1030

 Free energy of the ion-electron system (eV)
  ---------------------------------------------------
  alpha Z        PSCENC =      2895.28483519
  Ewald energy   TEWEN  =    -43790.49985855
  -Hartree energ DENC   =    -14135.37594554
  -exchange      EXHF   =         0.00000000
  -V(xc)+E(xc)   XCENC  =      2688.81017301
  PAW double counting   =     69440.32619231   -71143.16852226
  entropy T*S    EENTRO =        -0.08165800
  eigenvalues    EBANDS =     -4311.93767311
  atomic energy  EATOM  =     57529.61037987
  Solvation  Ediel_sol  =         0.00000000
  ---------------------------------------------------
  free energy    TOTEN  =      -827.03207708 eV

  energy without entropy =     -826.95041908  energy(sigma->0) =     -826.99124808


--------------------------------------------------------------------------------------------------------




--------------------------------------- Iteration      1(  12)  ---------------------------------------


    POTLOK:  cpu time    0.2822: real time    0.2829
    SETDIJ:  cpu time    0.0411: real time    0.0412
     EDDAV:  cpu time    6.8169: real time    6.8331
    CHARGE:  cpu time    0.4390: real time    0.4401
    MIXING:  cpu time    0.0073: real time    0.0073
    --------------------------------------------
      LOOP:  cpu time    7.5866: real time    7.6045

 eigenvalue-minimisations  :  2560
 total energy-change (2. order) : 0.2976880E+02  (-0.3219732E+02)
 number of electron     682.9999921 magnetization      22.0242434
 augmentation part      211.2708937 magnetization      19.8561544

 Broyden mixing:
  rms(total) = 0.83052E+01    rms(broyden)= 0.83042E+01
  rms(prec ) = 0.10091E+02
  weight for this iteration     100.00

 eigenvalues of (default mixing * dielectric matrix)
  average eigenvalue GAMMA=   0.5024
  1.9190  0.4035  0.3324  0.3324  0.3234  0.1108  0.0952

 Free energy of the ion-electron system (eV)
  ---------------------------------------------------
  alpha Z        PSCENC =      2895.28483519
  Ewald energy   TEWEN  =    -43790.49985855
  -Hartree energ DENC   =    -14089.60693736
  -exchange      EXHF   =         0.00000000
  -V(xc)+E(xc)   XCENC  =      2687.70835492
  PAW double counting   =     72015.82969432   -73735.33922432
  entropy T*S    EENTRO =        -0.07351053
  eigenvalues    EBANDS =     -4310.17701041
  atomic energy  EATOM  =     57529.61037987
  Solvation  Ediel_sol  =         0.00000000
  ---------------------------------------------------
  free energy    TOTEN  =      -797.26327686 eV

  energy without entropy =     -797.18976633  energy(sigma->0) =     -797.22652160


--------------------------------------------------------------------------------------------------------




--------------------------------------- Iteration      1(  13)  ---------------------------------------


    POTLOK:  cpu time    0.2810: real time    0.2817
    SETDIJ:  cpu time    0.0410: real time    0.0411
     EDDAV:  cpu time    7.1998: real time    7.2168
    CHARGE:  cpu time    0.4393: real time    0.4403
    MIXING:  cpu time    0.0075: real time    0.0075
    --------------------------------------------
      LOOP:  cpu time    7.9686: real time    7.9874

 eigenvalue-minimisations  :  2224
 total energy-change (2. order) : 0.2351005E+02  (-0.7711281E+01)
 number of electron     682.9999913 magnetization      21.1747908
 augmentation part      210.4569883 magnetization      18.7325395

 Broyden mixing:
  rms(total) = 0.78574E+01    rms(broyden)= 0.78562E+01
  rms(prec ) = 0.95705E+01
  weight for this iteration     100.00

 eigenvalues of (default mixing * dielectric matrix)
  average eigenvalue GAMMA=   0.4929
  1.8794  0.5600  0.4771  0.4771  0.2280  0.1034  0.1091  0.1091

 Free energy of the ion-electron system (eV)
  ---------------------------------------------------
  alpha Z        PSCENC =      2895.28483519
  Ewald energy   TEWEN  =    -43790.49985855
  -Hartree energ DENC   =    -14115.70657582
  -exchange      EXHF   =         0.00000000
  -V(xc)+E(xc)   XCENC  =      2687.86073104
  PAW double counting   =     72159.32087190   -73892.60043562
  entropy T*S    EENTRO =        -0.06904571
  eigenvalues    EBANDS =     -4246.95412529
  atomic energy  EATOM  =     57529.61037987
  Solvation  Ediel_sol  =         0.00000000
  ---------------------------------------------------
  free energy    TOTEN  =      -773.75322300 eV

  energy without entropy =     -773.68417728  energy(sigma->0) =     -773.71870014


--------------------------------------------------------------------------------------------------------




--------------------------------------- Iteration      1(  14)  ---------------------------------------


    POTLOK:  cpu time    0.2806: real time    0.2813
    SETDIJ:  cpu time    0.0414: real time    0.0415
     EDDAV:  cpu time    7.5843: real time    7.6054
    CHARGE:  cpu time    0.4387: real time    0.4397
    MIXING:  cpu time    0.0078: real time    0.0078
    --------------------------------------------
      LOOP:  cpu time    8.3529: real time    8.3757

 eigenvalue-minimisations  :  2352
 total energy-change (2. order) : 0.1841586E+02  (-0.7373639E+01)
 number of electron     682.9999914 magnetization      20.9482874
 augmentation part      208.5311816 magnetization      17.5447251

 Broyden mixing:
  rms(total) = 0.54273E+01    rms(broyden)= 0.54247E+01
  rms(prec ) = 0.65334E+01
  weight for this iteration     100.00

 eigenvalues of (default mixing * dielectric matrix)
  average eigenvalue GAMMA=   0.4630
  1.8495  0.5168  0.5168  0.4841  0.2830  0.2018  0.1188  0.0979  0.0979

 Free energy of the ion-electron system (eV)
  ---------------------------------------------------
  alpha Z        PSCENC =      2895.28483519
  Ewald energy   TEWEN  =    -43790.49985855
  -Hartree energ DENC   =    -14168.22127515
  -exchange      EXHF   =         0.00000000
  -V(xc)+E(xc)   XCENC  =      2688.42590690
  PAW double counting   =     71926.98120267   -73676.26224743
  entropy T*S    EENTRO =        -0.11415923
  eigenvalues    EBANDS =     -4160.54214709
  atomic energy  EATOM  =     57529.61037987
  Solvation  Ediel_sol  =         0.00000000
  ---------------------------------------------------
  free energy    TOTEN  =      -755.33736282 eV

  energy without entropy =     -755.22320359  energy(sigma->0) =     -755.28028321


--------------------------------------------------------------------------------------------------------




--------------------------------------- Iteration      1(  15)  ---------------------------------------


    POTLOK:  cpu time    0.2710: real time    0.2717
    SETDIJ:  cpu time    0.0407: real time    0.0408
     EDDAV:  cpu time    6.9439: real time    6.9603
    CHARGE:  cpu time    0.4482: real time    0.4492
    MIXING:  cpu time    0.0082: real time    0.0082
    --------------------------------------------
      LOOP:  cpu time    7.7121: real time    7.7303

 eigenvalue-minimisations  :  2464
 total energy-change (2. order) : 0.7864212E+01  (-0.4384251E+01)
 number of electron     682.9999912 magnetization      20.7879158
 augmentation part      207.6169922 magnetization      16.3872256

 Broyden mixing:
  rms(total) = 0.52252E+01    rms(broyden)= 0.52230E+01
  rms(prec ) = 0.60826E+01
  weight for this iteration     100.00

 eigenvalues of (default mixing * dielectric matrix)
  average eigenvalue GAMMA=   0.4374
  1.8428  0.5463  0.5463  0.3906  0.3906  0.2387  0.1236  0.1158  0.0897  0.0897

 Free energy of the ion-electron system (eV)
  ---------------------------------------------------
  alpha Z        PSCENC =      2895.28483519
  Ewald energy   TEWEN  =    -43790.49985855
  -Hartree energ DENC   =    -14191.41195091
  -exchange      EXHF   =         0.00000000
  -V(xc)+E(xc)   XCENC  =      2688.55228762
  PAW double counting   =     71711.23734102   -73464.47270358
  entropy T*S    EENTRO =        -0.05394117
  eigenvalues    EBANDS =     -4125.71954002
  atomic energy  EATOM  =     57529.61037987
  Solvation  Ediel_sol  =         0.00000000
  ---------------------------------------------------
  free energy    TOTEN  =      -747.47315053 eV

  energy without entropy =     -747.41920936  energy(sigma->0) =     -747.44617994


--------------------------------------------------------------------------------------------------------




--------------------------------------- Iteration      1(  16)  ---------------------------------------


    POTLOK:  cpu time    0.2823: real time    0.2830
    SETDIJ:  cpu time    0.0413: real time    0.0414
     EDDAV:  cpu time    8.2058: real time    8.2252
    CHARGE:  cpu time    0.4456: real time    0.4466
    MIXING:  cpu time    0.0085: real time    0.0085
    --------------------------------------------
      LOOP:  cpu time    8.9835: real time    9.0047

 eigenvalue-minimisations  :  2608
 total energy-change (2. order) : 0.2287326E+01  (-0.3419118E+01)
 number of electron     682.9999917 magnetization      20.8117392
 augmentation part      207.9267722 magnetization      15.8165130

 Broyden mixing:
  rms(total) = 0.46046E+01    rms(broyden)= 0.46028E+01
  rms(prec ) = 0.52494E+01
  weight for this iteration     100.00

 eigenvalues of (default mixing * dielectric matrix)
  average eigenvalue GAMMA=   0.4124
  1.8330  0.5501  0.5501  0.3768  0.3768  0.3084  0.1607  0.1174  0.0980  0.0980
  0.0668

 Free energy of the ion-electron system (eV)
  ---------------------------------------------------
  alpha Z        PSCENC =      2895.28483519
  Ewald energy   TEWEN  =    -43790.49985855
  -Hartree energ DENC   =    -14196.12828427
  -exchange      EXHF   =         0.00000000
  -V(xc)+E(xc)   XCENC  =      2688.58026255
  PAW double counting   =     71705.61165600   -73457.21149997
  entropy T*S    EENTRO =        -0.08465543
  eigenvalues    EBANDS =     -4120.34865958
  atomic energy  EATOM  =     57529.61037987
  Solvation  Ediel_sol  =         0.00000000
  ---------------------------------------------------
  free energy    TOTEN  =      -745.18582419 eV

  energy without entropy =     -745.10116876  energy(sigma->0) =     -745.14349647


--------------------------------------------------------------------------------------------------------




--------------------------------------- Iteration      1(  17)  ---------------------------------------


    POTLOK:  cpu time    0.2825: real time    0.2831
    SETDIJ:  cpu time    0.0415: real time    0.0415
     EDDAV:  cpu time    6.8538: real time    6.8700
    CHARGE:  cpu time    0.4377: real time    0.4388
    MIXING:  cpu time    0.0087: real time    0.0087
    --------------------------------------------
      LOOP:  cpu time    7.6242: real time    7.6422

 eigenvalue-minimisations  :  2576
 total energy-change (2. order) : 0.1863102E+01  (-0.8330973E+00)
 number of electron     682.9999915 magnetization      20.9619294
 augmentation part      207.7846837 magnetization      15.1832827

 Broyden mixing:
  rms(total) = 0.38984E+01    rms(broyden)= 0.38973E+01
  rms(prec ) = 0.42951E+01
  weight for this iteration     100.00

 eigenvalues of (default mixing * dielectric matrix)
  average eigenvalue GAMMA=   0.3861
  1.8144  0.5594  0.5594  0.3656  0.3656  0.3433  0.1660  0.1165  0.1020  0.1020
  0.0693  0.0693

 Free energy of the ion-electron system (eV)
  ---------------------------------------------------
  alpha Z        PSCENC =      2895.28483519
  Ewald energy   TEWEN  =    -43790.49985855
  -Hartree energ DENC   =    -14202.33125950
  -exchange      EXHF   =         0.00000000
  -V(xc)+E(xc)   XCENC  =      2688.90935456
  PAW double counting   =     71660.30374732   -73409.83634397
  entropy T*S    EENTRO =        -0.06061289
  eigenvalues    EBANDS =     -4114.70296449
  atomic energy  EATOM  =     57529.61037987
  Solvation  Ediel_sol  =         0.00000000
  ---------------------------------------------------
  free energy    TOTEN  =      -743.32272246 eV

  energy without entropy =     -743.26210957  energy(sigma->0) =     -743.29241601


--------------------------------------------------------------------------------------------------------




--------------------------------------- Iteration      1(  18)  ---------------------------------------


    POTLOK:  cpu time    0.2791: real time    0.2797
    SETDIJ:  cpu time    0.0415: real time    0.0416
     EDDAV:  cpu time    8.0624: real time    8.0836
    CHARGE:  cpu time    0.4379: real time    0.4390
    MIXING:  cpu time    0.0092: real time    0.0092
    --------------------------------------------
      LOOP:  cpu time    8.8300: real time    8.8530

 eigenvalue-minimisations  :  2560
 total energy-change (2. order) : 0.9789123E+00  (-0.5261043E+00)
 number of electron     682.9999915 magnetization      20.9966842
 augmentation part      207.5066233 magnetization      15.4703803

 Broyden mixing:
  rms(total) = 0.34375E+01    rms(broyden)= 0.34365E+01
  rms(prec ) = 0.37599E+01
  weight for this iteration     100.00

 eigenvalues of (default mixing * dielectric matrix)
  average eigenvalue GAMMA=   0.3600
  1.8096  0.5625  0.5625  0.3259  0.3259  0.3054  0.1674  0.1674  0.1163  0.1146
  0.0854  0.0854  0.0517

 Free energy of the ion-electron system (eV)
  ---------------------------------------------------
  alpha Z        PSCENC =      2895.28483519
  Ewald energy   TEWEN  =    -43790.49985855
  -Hartree energ DENC   =    -14208.68267446
  -exchange      EXHF   =         0.00000000
  -V(xc)+E(xc)   XCENC  =      2689.26101341
  PAW double counting   =     71583.46044353   -73331.76107209
  entropy T*S    EENTRO =        -0.10546588
  eigenvalues    EBANDS =     -4108.91141120
  atomic energy  EATOM  =     57529.61037987
  Solvation  Ediel_sol  =         0.00000000
  ---------------------------------------------------
  free energy    TOTEN  =      -742.34381018 eV

  energy without entropy =     -742.23834430  energy(sigma->0) =     -742.29107724


--------------------------------------------------------------------------------------------------------




--------------------------------------- Iteration      1(  19)  ---------------------------------------


    POTLOK:  cpu time    0.2782: real time    0.2788
    SETDIJ:  cpu time    0.0410: real time    0.0411
     EDDAV:  cpu time    8.0210: real time    8.0400
    CHARGE:  cpu time    0.4372: real time    0.4382
    MIXING:  cpu time    0.0091: real time    0.0091
    --------------------------------------------
      LOOP:  cpu time    8.7864: real time    8.8072

 eigenvalue-minimisations  :  2560
 total energy-change (2. order) :-0.1001937E+00  (-0.3364578E+00)
 number of electron     682.9999915 magnetization      21.0686742
 augmentation part      207.4482358 magnetization      15.3984131

 Broyden mixing:
  rms(total) = 0.35296E+01    rms(broyden)= 0.35288E+01
  rms(prec ) = 0.38743E+01
  weight for this iteration     100.00

 eigenvalues of (default mixing * dielectric matrix)
  average eigenvalue GAMMA=   0.3623
  1.7992  0.5643  0.5643  0.3331  0.3331  0.3542  0.3542  0.2387  0.1200  0.1200
  0.0957  0.0957  0.0653  0.0346

 Free energy of the ion-electron system (eV)
  ---------------------------------------------------
  alpha Z        PSCENC =      2895.28483519
  Ewald energy   TEWEN  =    -43790.49985855
  -Hartree energ DENC   =    -14209.82913980
  -exchange      EXHF   =         0.00000000
  -V(xc)+E(xc)   XCENC  =      2689.33624723
  PAW double counting   =     71572.54675665   -73320.33345816
  entropy T*S    EENTRO =        -0.07742199
  eigenvalues    EBANDS =     -4108.48234434
  atomic energy  EATOM  =     57529.61037987
  Solvation  Ediel_sol  =         0.00000000
  ---------------------------------------------------
  free energy    TOTEN  =      -742.44400390 eV

  energy without entropy =     -742.36658190  energy(sigma->0) =     -742.40529290


--------------------------------------------------------------------------------------------------------




--------------------------------------- Iteration      1(  20)  ---------------------------------------


    POTLOK:  cpu time    0.2795: real time    0.2802
    SETDIJ:  cpu time    0.0415: real time    0.0416
     EDDAV:  cpu time    7.4411: real time    7.4587
    CHARGE:  cpu time    0.4376: real time    0.4387
    MIXING:  cpu time    0.0097: real time    0.0098
    --------------------------------------------
      LOOP:  cpu time    8.2095: real time    8.2289

 eigenvalue-minimisations  :  2336
 total energy-change (2. order) :-0.1381115E+00  (-0.4570530E+00)
 number of electron     682.9999915 magnetization      21.0372856
 augmentation part      207.4222055 magnetization      16.0363140

 Broyden mixing:
  rms(total) = 0.34310E+01    rms(broyden)= 0.34306E+01
  rms(prec ) = 0.37692E+01
  weight for this iteration     100.00

 eigenvalues of (default mixing * dielectric matrix)
  average eigenvalue GAMMA=   0.3492
  1.7966  0.5599  0.5599  0.3790  0.3790  0.3546  0.3546  0.2503  0.1320  0.1202
  0.0981  0.0981  0.0697  0.0537  0.0330

 Free energy of the ion-electron system (eV)
  ---------------------------------------------------
  alpha Z        PSCENC =      2895.28483519
  Ewald energy   TEWEN  =    -43790.49985855
  -Hartree energ DENC   =    -14211.48200409
  -exchange      EXHF   =         0.00000000
  -V(xc)+E(xc)   XCENC  =      2689.46985606
  PAW double counting   =     71554.77981126   -73301.83952360
  entropy T*S    EENTRO =        -0.07560644
  eigenvalues    EBANDS =     -4107.83000507
  atomic energy  EATOM  =     57529.61037987
  Solvation  Ediel_sol  =         0.00000000
  ---------------------------------------------------
  free energy    TOTEN  =      -742.58211537 eV

  energy without entropy =     -742.50650893  energy(sigma->0) =     -742.54431215


--------------------------------------------------------------------------------------------------------




--------------------------------------- Iteration      1(  21)  ---------------------------------------


    POTLOK:  cpu time    0.2822: real time    0.2829
    SETDIJ:  cpu time    0.0414: real time    0.0415
     EDDAV:  cpu time    7.8469: real time    7.8674
    CHARGE:  cpu time    0.4353: real time    0.4363
    MIXING:  cpu time    0.0096: real time    0.0096
    --------------------------------------------
      LOOP:  cpu time    8.6154: real time    8.6377

 eigenvalue-minimisations  :  2480
 total energy-change (2. order) : 0.4004046E+00  (-0.2122376E+00)
 number of electron     682.9999915 magnetization      21.0140942
 augmentation part      207.2860098 magnetization      16.2708578

 Broyden mixing:
  rms(total) = 0.29731E+01    rms(broyden)= 0.29727E+01
  rms(prec ) = 0.31721E+01
[...]
     10.23133      4.84927      4.22723         0.001010     -0.005220      0.002078
      2.90833      9.66620      3.38102         0.005899     -0.007253      0.002151
      5.83411     14.50030      5.06386        -0.003461      0.010509      0.017301
      5.83411      4.83192      6.72635        -0.003461     -0.010509     -0.017301
      7.35642      9.66611      5.89511         0.016836      0.000000     -0.000000
     10.24619      9.66611      5.89511        -0.011241     -0.000000      0.000000
     11.69520     14.48857      5.04883        -0.003206      0.005517      0.000881
     11.69520      4.84365      6.74139        -0.003206     -0.005517     -0.000881
      4.37933      9.66611      5.89511        -0.014886     -0.000000      0.000000
      4.33561      7.26077      7.49031        -0.018075      0.015658     -0.005853
      8.71687     12.08713      1.79306        -0.007695     -0.021562      0.003483
      1.59479      2.42038      0.84014         0.004418      0.007986      0.002959
      2.87577      7.23613      0.02155        -0.010575      0.006137      0.014543
      2.92139     12.08738      1.67517         0.006346     -0.016324      0.004637
      4.38538      2.42291      0.83637         0.004462      0.002093     -0.004629
      5.89182      7.37001      0.02937         0.010000      0.001238      0.003599
      5.91124     12.07880      1.58663        -0.009826     -0.026028     -0.011667
      7.18835      2.41388      0.83708         0.001175     -0.001487     -0.007080
      7.30845      7.25288      2.52236         0.006346      0.016324     -0.004637
      7.26283     12.10413      4.17598        -0.010575     -0.006137     -0.014543
      8.77244      2.40881      3.37663         0.004462     -0.002093      0.004629
      1.52418      7.26146      2.61089        -0.009826      0.026028      0.011667
     10.27887     11.97024      4.16815         0.010000     -0.001238     -0.003599
      2.80129      2.41784      3.37592         0.001175      0.001487      0.007080
      4.32981      7.25313      2.40446        -0.007695      0.021562     -0.003483
      4.33561     12.07145      4.29990        -0.018075     -0.015658      0.005853
      5.98185      2.41134      3.37286         0.004418     -0.007986     -0.002959
      5.92062      7.24840      5.16821         0.003591      0.026792     -0.016036
      5.92062     12.08382      6.62200         0.003591     -0.026792      0.016036
      7.19092      2.41184      5.90285         0.009614      0.000000     -0.000000
      8.75992      7.36289      4.99492         0.012989      0.018227     -0.008800
      8.75992     11.96933      6.79530         0.012989     -0.018227      0.008800
     10.36497      2.41184      5.90285        -0.003178     -0.000000      0.000000
     11.65503      7.36248      5.08210        -0.003183      0.026046      0.010395
     11.65503     11.96974      6.70812        -0.003183     -0.026046     -0.010395
      4.38195      2.41184      5.90285        -0.006941     -0.000000      0.000000
      0.04372     10.85771     -0.00277        -0.002981     -0.012819      0.026155
      8.77071      3.68630      0.03075        -0.004717      0.001610      0.003214
      8.77346      1.12800      1.65171         0.000742     -0.009473     -0.000716
      8.77917      8.56292      1.63574         0.053442     -0.050960      0.032834
      1.44213      5.97568      0.84653         0.014637     -0.035329     -0.033428
      1.42915     13.36502      0.80740         0.005656     -0.000349      0.003434
      2.87784     10.84852      0.01859        -0.012301     -0.007692      0.007838
      7.34938      3.70655      7.56358        -0.012830      0.008635     -0.000374
      2.97201      1.13996      1.71375         0.003293      0.008129     -0.000320
      2.86300      8.54724      1.67260         0.014733     -0.036284     -0.056746
      4.38196      5.99476      0.78871         0.003008     -0.005588      0.001215
      4.39976     13.34540      0.88618         0.004007      0.005260      0.008605
     10.24960     10.67313      7.53194        -0.049497      0.031342     -0.041229
     10.19552      3.68611      7.55911        -0.006886      0.002502     -0.000538
      5.81322      1.14417      1.70773         0.003015     -0.001759      0.000879
      5.83644      8.49019      1.73969         0.014939      0.003900     -0.013805
      7.36158      5.99978      0.85428         0.003885      0.001820     -0.004015
      7.33885     13.34745      0.81146        -0.002379     -0.002312      0.001079
      7.25006     10.79302      2.52492         0.014733      0.036284      0.056746
      7.35907      3.69176      2.49926         0.003293     -0.008129      0.000320
      7.34938      1.11713      4.24211        -0.012830     -0.008635      0.000374
      7.26490      8.49174      4.17894        -0.012301      0.007692     -0.007838
      8.78681      5.99486      3.31135         0.004007     -0.005260     -0.008605
      8.76901     13.34550      3.40882         0.003008      0.005588     -0.001215
      1.44939     10.85007      2.45783         0.014939     -0.003900      0.013805
     10.20028      3.68755      2.50527         0.003015      0.001759     -0.000879
     10.19552      1.13757      4.24658        -0.006886     -0.002502      0.000538
     10.24960      8.65910      4.25827        -0.049497     -0.031342      0.041229
      2.95180      5.99281      3.38607        -0.002379      0.002312     -0.001079
      2.97452     13.34048      3.34324         0.003885     -0.001820      0.004015
      4.39212     10.77734      2.56179         0.053442      0.050960     -0.032834
      4.38640      3.70372      2.56129         0.000742      0.009473      0.000716
      4.38365      1.14542      4.18225        -0.004717     -0.001610     -0.003214
      4.43077      8.48255      4.20029        -0.002981      0.012819     -0.026155
      5.81621      5.97524      3.39013         0.005656      0.000349     -0.003434
      5.82919     13.36458      3.35100         0.014637      0.035329      0.033428
      5.86222     10.80958      5.00779         0.025225     -0.052455      0.037437
      5.80788      3.69045      5.03247         0.002051      0.012487      0.009796
      5.80788      1.13323      6.77322         0.002051     -0.012487     -0.009796
      5.86222      8.52264      6.78242         0.025225      0.052455     -0.037437
      7.35014      5.99672      5.92501         0.002352      0.009466     -0.007633
      7.35014     13.33550      5.86520         0.002352     -0.009466      0.007633
      8.84856     10.69107      5.09930        -0.047555     -0.034744     -0.015668
      8.77375      3.69060      5.09559        -0.003414      0.002715      0.005462
      8.77375      1.13308      6.71010        -0.003414     -0.002715     -0.005462
      8.84856      8.64115      6.69091        -0.047555      0.034744      0.015668
     10.20233      6.01117      5.92091        -0.002316     -0.006825      0.002570
     10.20233     13.32106      5.86931        -0.002316      0.006825     -0.002570
     11.65719     10.68035      5.06594        -0.005924      0.026757      0.060464
      2.96566      3.68855      5.03229         0.005494      0.004768     -0.001600
     11.73977      1.13513      6.77340         0.005494     -0.004768      0.001600
     11.65719      8.65187      6.72427        -0.005924     -0.026757     -0.060464
      4.38137      5.99569      5.85611         0.012770     -0.006089      0.007009
      4.38137     13.33654      5.93411         0.012770      0.006089     -0.007009
 -----------------------------------------------------------------------------------
    total drift:                               -0.005846     -0.001515     -0.002189


--------------------------------------------------------------------------------------------------------



  FREE ENERGIE OF THE ION-ELECTRON SYSTEM (eV)
  ---------------------------------------------------
  free  energy   TOTEN  =      -744.9923829357 eV

  energy  without entropy=     -744.9481482263  energy(sigma->0) =     -744.97026558
 
 d Force =-0.1545359E-02[-0.154E-02,-0.155E-02]  d Energy =-0.1607543E-02 0.622E-04
 d Force =-0.3338192E+01[-0.334E+01,-0.333E+01]  d Ewald  =-0.5365948E+01 0.203E+01


--------------------------------------------------------------------------------------------------------


    POTLOK:  cpu time    0.3284: real time    0.3291


--------------------------------------------------------------------------------------------------------


 Quasi-Newton relaxation of ions (Broydens 2nd method)
  g(Force)  = 0.448E-02   g(Stress)= 0.207E-03

 retain information from N=  1 steps
 eigenvalues of (default step * inverse Hessian matrix)
  average eigenvalue of G=   0.3669
 eigenvalue spectrum of G is  0.3669


--------------------------------------------------------------------------------------------------------


     LOOP+:  cpu time   89.1044: real time   89.4286
    4ORBIT:  cpu time    0.0000: real time    0.0000

volume of typ            1:     8.3 %

volume of typ            2:    12.5 %

volume of typ            3:    21.8 %

volume of typ            4:     9.1 %
 
total charge     
 
# of ion       s       p       d       tot
------------------------------------------
    1        0.291   6.186   1.898   8.376
    2        0.292   6.186   1.899   8.377
    3        0.293   6.188   1.902   8.383
    4        0.292   6.186   1.899   8.377
    5        0.291   6.186   1.898   8.376
    6        0.293   6.188   1.902   8.383
    7        0.292   6.186   1.898   8.376
    8        0.292   6.186   1.898   8.376
    9        0.203   0.238   7.913   8.355
   10        0.204   0.242   7.943   8.389
   11        0.214   0.247   7.896   8.358
   12        0.204   0.240   7.913   8.358
   13        0.203   0.239   7.913   8.355
   14        0.221   0.262   7.892   8.376
   15        0.204   0.242   7.943   8.389
   16        0.203   0.238   7.913   8.355
   17        0.214   0.247   7.896   8.358
   18        0.203   0.239   7.913   8.355
   19        0.204   0.240   7.913   8.358
   20        0.221   0.262   7.892   8.376
   21        0.203   0.240   7.940   8.383
   22        0.203   0.240   7.940   8.383
   23        0.215   0.250   7.900   8.365
   24        0.271   0.358   7.826   8.455
   25        0.204   0.240   7.914   8.358
   26        0.204   0.240   7.914   8.358
   27        0.217   0.253   7.893   8.363
   28        2.076   0.258   0.097   2.432
   29        2.081   0.272   0.105   2.458
   30        2.077   0.261   0.100   2.438
   31        2.078   0.264   0.101   2.443
   32        2.081   0.274   0.107   2.461
   33        2.078   0.263   0.101   2.442
   34        2.076   0.252   0.096   2.423
   35        2.076   0.255   0.096   2.427
   36        2.078   0.264   0.102   2.444
   37        2.081   0.274   0.107   2.461
   38        2.078   0.264   0.101   2.443
   39        2.078   0.263   0.101   2.442
   40        2.076   0.255   0.096   2.427
   41        2.076   0.252   0.096   2.423
   42        2.078   0.264   0.102   2.444
   43        2.081   0.272   0.105   2.458
   44        2.076   0.258   0.097   2.432
   45        2.077   0.261   0.100   2.438
   46        2.082   0.276   0.108   2.465
   47        2.082   0.276   0.108   2.465
   48        2.077   0.259   0.099   2.435
   49        2.075   0.251   0.095   2.422
   50        2.075   0.251   0.095   2.422
   51        2.078   0.265   0.102   2.445
   52        2.076   0.251   0.095   2.422
   53        2.076   0.251   0.095   2.422
   54        2.079   0.267   0.103   2.449
   55        1.253   2.828   0.005   4.086
   56        1.250   2.827   0.005   4.082
   57        1.251   2.824   0.005   4.080
   58        1.250   2.825   0.005   4.080
   59        1.252   2.826   0.005   4.083
   60        1.250   2.832   0.005   4.087
   61        1.248   2.840   0.005   4.092
   62        1.249   2.831   0.005   4.085
   63        1.247   2.837   0.005   4.088
   64        1.247   2.833   0.005   4.085
   65        1.249   2.833   0.005   4.087
   66        1.248   2.833   0.005   4.086
   67        1.254   2.794   0.005   4.053
   68        1.247   2.838   0.005   4.090
   69        1.248   2.835   0.005   4.088
   70        1.249   2.840   0.005   4.094
   71        1.248   2.834   0.005   4.087
   72        1.249   2.832   0.005   4.086
   73        1.247   2.833   0.005   4.085
   74        1.247   2.837   0.005   4.088
   75        1.249   2.831   0.005   4.085
   76        1.248   2.840   0.005   4.092
   77        1.248   2.833   0.005   4.086
   78        1.249   2.833   0.005   4.087
   79        1.249   2.840   0.005   4.094
   80        1.248   2.835   0.005   4.088
   81        1.247   2.838   0.005   4.090
   82        1.254   2.794   0.005   4.053
   83        1.249   2.832   0.005   4.086
   84        1.248   2.834   0.005   4.087
   85        1.250   2.825   0.005   4.080
   86        1.251   2.824   0.005   4.080
   87        1.250   2.827   0.005   4.082
   88        1.253   2.828   0.005   4.086
   89        1.250   2.832   0.005   4.087
   90        1.252   2.826   0.005   4.083
   91        1.248   2.834   0.005   4.087
   92        1.248   2.833   0.005   4.087
   93        1.248   2.833   0.005   4.087
   94        1.248   2.834   0.005   4.087
   95        1.248   2.834   0.005   4.088
   96        1.248   2.834   0.005   4.088
   97        1.256   2.784   0.005   4.045
   98        1.250   2.829   0.005   4.083
   99        1.250   2.829   0.005   4.083
  100        1.256   2.784   0.005   4.045
  101        1.250   2.827   0.005   4.083
  102        1.250   2.827   0.005   4.083
  103        1.254   2.794   0.005   4.053
  104        1.247   2.838   0.005   4.089
  105        1.247   2.838   0.005   4.089
  106        1.254   2.794   0.005   4.053
  107        1.249   2.832   0.005   4.086
  108        1.249   2.832   0.005   4.086
--------------------------------------------------
tot         129.93  214.02  168.43  512.39
 
magnetization (x)
 
# of ion       s       p       d       tot
------------------------------------------
    1       -0.001  -0.001  -0.008  -0.011
    2       -0.001  -0.001  -0.003  -0.005
    3        0.001   0.001   0.006   0.007
    4       -0.001  -0.001  -0.003  -0.005
    5       -0.001  -0.001  -0.008  -0.011
    6        0.001   0.001   0.006   0.007
    7       -0.001  -0.001  -0.016  -0.018
    8       -0.001  -0.001  -0.016  -0.018
    9        0.001  -0.000   1.496   1.497
   10       -0.001  -0.001  -0.040  -0.041
   11       -0.002  -0.001  -1.445  -1.448
   12        0.001  -0.000   1.497   1.498
   13        0.001  -0.000   1.500   1.501
   14        0.004   0.002   1.299   1.305
   15       -0.001  -0.001  -0.040  -0.041
   16        0.001  -0.000   1.496   1.497
   17       -0.002  -0.001  -1.445  -1.448
   18        0.001  -0.000   1.500   1.501
   19        0.001  -0.000   1.497   1.498
   20        0.004   0.002   1.299   1.305
   21       -0.001  -0.001   0.045   0.043
   22       -0.001  -0.001   0.045   0.043
   23       -0.001  -0.000  -1.384  -1.385
   24        0.001   0.001   0.001   0.003
   25        0.001  -0.000   1.489   1.489
   26        0.001  -0.000   1.489   1.489
   27       -0.003  -0.001  -1.426  -1.429
   28       -0.001  -0.000   0.000  -0.001
   29        0.002   0.005   0.001   0.008
   30        0.001   0.003   0.001   0.004
   31        0.002   0.005   0.001   0.008
   32       -0.000  -0.001  -0.000  -0.002
   33        0.001   0.001   0.000   0.002
   34       -0.003  -0.007  -0.002  -0.011
   35       -0.000   0.000  -0.000  -0.000
   36        0.003   0.007   0.002   0.012
   37       -0.000  -0.001  -0.000  -0.002
   38        0.002   0.005   0.001   0.008
   39        0.001   0.001   0.000   0.002
   40       -0.000   0.000  -0.000  -0.000
   41       -0.003  -0.007  -0.002  -0.011
   42        0.003   0.007   0.002   0.012
   43        0.002   0.005   0.001   0.008
   44       -0.001  -0.000   0.000  -0.001
   45        0.001   0.003   0.001   0.004
   46        0.001   0.004   0.001   0.006
   47        0.001   0.004   0.001   0.006
   48        0.001   0.005   0.001   0.007
   49        0.001   0.004   0.001   0.007
   50        0.001   0.004   0.001   0.007
   51        0.002   0.007   0.002   0.011
   52       -0.000  -0.000  -0.000  -0.001
   53       -0.000  -0.000  -0.000  -0.001
   54        0.003   0.009   0.003   0.015
   55        0.000   0.006   0.000   0.006
   56        0.009   0.114   0.000   0.124
   57        0.008   0.111   0.000   0.119
   58       -0.000  -0.004  -0.000  -0.005
   59       -0.001  -0.018  -0.000  -0.019
   60        0.009   0.118   0.000   0.128
   61       -0.010  -0.115  -0.000  -0.125
   62        0.002   0.026   0.000   0.028
   63        0.009   0.116   0.000   0.125
   64       -0.000  -0.006   0.000  -0.006
   65       -0.000  -0.002  -0.000  -0.002
   66        0.009   0.116   0.000   0.125
   67       -0.000  -0.015   0.000  -0.016
   68        0.009   0.116   0.000   0.125
   69       -0.000   0.002  -0.000   0.002
   70        0.000  -0.002   0.000  -0.002
   71        0.009   0.118   0.000   0.128
   72        0.007   0.102   0.000   0.109
   73       -0.000  -0.006   0.000  -0.006
   74        0.009   0.116   0.000   0.125
   75        0.002   0.026   0.000   0.028
   76       -0.010  -0.115  -0.000  -0.125
   77        0.009   0.116   0.000   0.125
   78       -0.000  -0.002  -0.000  -0.002
   79        0.000  -0.002   0.000  -0.002
   80       -0.000   0.002  -0.000   0.002
   81        0.009   0.116   0.000   0.125
   82       -0.000  -0.015   0.000  -0.016
   83        0.007   0.102   0.000   0.109
   84        0.009   0.118   0.000   0.128
   85       -0.000  -0.004  -0.000  -0.005
   86        0.008   0.111   0.000   0.119
   87        0.009   0.114   0.000   0.124
   88        0.000   0.006   0.000   0.006
   89        0.009   0.118   0.000   0.128
   90       -0.001  -0.018  -0.000  -0.019
   91       -0.008  -0.083  -0.000  -0.091
   92        0.001   0.006  -0.000   0.006
   93        0.001   0.006  -0.000   0.006
   94       -0.008  -0.083  -0.000  -0.091
   95        0.009   0.126   0.000   0.135
   96        0.009   0.126   0.000   0.135
   97       -0.012  -0.153  -0.000  -0.165
   98        0.009   0.122   0.000   0.132
   99        0.009   0.122   0.000   0.132
  100       -0.012  -0.153  -0.000  -0.165
  101        0.009   0.117   0.000   0.126
  102        0.009   0.117   0.000   0.126
  103       -0.000  -0.004  -0.000  -0.004
  104        0.009   0.120   0.000   0.130
  105        0.009   0.120   0.000   0.130
  106       -0.000  -0.004  -0.000  -0.004
  107        0.003   0.037   0.000   0.041
  108        0.003   0.037   0.000   0.041
--------------------------------------------------
tot           0.18    2.19    8.85   11.22
 

 total amount of memory used by VASP MPI-rank0   149694. kBytes
=======================================================================

   base      :      30000. kBytes
   nonlr-proj:      40081. kBytes
   fftplans  :       9349. kBytes
   grid      :      57131. kBytes
   one-center:       1679. kBytes
   wavefun   :      11454. kBytes
 
  
  
 General timing and accounting informations for this job:
 ========================================================
  
                  Total CPU time used (sec):     5019.512
                            User time (sec):     4998.410
                          System time (sec):       21.102
                         Elapsed time (sec):     5038.625
  
                   Maximum memory used (kb):      218028.
                   Average memory used (kb):           0.
  
                          Minor page faults:        43263
                          Major page faults:           46
                 Voluntary context switches:         1433
