 vasp.5.4.4.18Apr17-6-g9f103f2a35 (build May 12 2020 05:39:39) gamma-only       
  
 MD_VERSION_INFO: Compiled 2020-05-12T12:39:39-UTC in devlin.sd.materialsdesign.
 com:/home/medea2/data/build/wwolf/vasp-gpu5.4.4/13047/x86_64/src/src/build/gam 
 from svn 13047
 
 This VASP executable licensed from Materials Design, Inc.
 
 executed on                        Lin64 date 2023.04.02  21:05:36
 running on   16 total cores
 distrk:  each k-point on   16 cores,    1 groups
 distr:  one band on NCORES_PER_BAND=   1 cores,   16 groups


--------------------------------------------------------------------------------------------------------


 INCAR:
 POTCAR:    PAW_PBE Ta_pv 07Sep2000               
 POTCAR:    PAW_PBE Ni 02Aug2007                  
 POTCAR:    PAW_PBE Li_sv 10Sep2004               
 POTCAR:    PAW_PBE O 08Apr2002                   

 ----------------------------------------------------------------------------- 
|                                                                             |
|           W    W    AA    RRRRR   N    N  II  N    N   GGGG   !!!           |
|           W    W   A  A   R    R  NN   N  II  NN   N  G    G  !!!           |
|           W    W  A    A  R    R  N N  N  II  N N  N  G       !!!           |
|           W WW W  AAAAAA  RRRRR   N  N N  II  N  N N  G  GGG   !            |
|           WW  WW  A    A  R   R   N   NN  II  N   NN  G    G                |
|           W    W  A    A  R    R  N    N  II  N    N   GGGG   !!!           |
|                                                                             |
|      For optimal performance we recommend to set                            |
|        NCORE= 4 - approx SQRT( number of cores)                             |
|      NCORE specifies how many cores store one orbital (NPAR=cpu/NCORE).     |
|      This setting can  greatly improve the performance of VASP for DFT.     |
|      The default,   NCORE=1            might be grossly inefficient         |
|      on modern multi-core architectures or massively parallel machines.     |
|      Do your own testing !!!!                                               |
|      Unfortunately you need to use the default for GW and RPA calculations. |
|      (for HF NCORE is supported but not extensively tested yet)             |
|                                                                             |
 ----------------------------------------------------------------------------- 

 POTCAR:    PAW_PBE Ta_pv 07Sep2000               
  local pseudopotential read in
  partial core-charges read in
  partial kinetic energy density read in
  atomic valenz-charges read in
  non local Contribution for L=           1  read in
    real space projection operators read in
  non local Contribution for L=           1  read in
    real space projection operators read in
  non local Contribution for L=           2  read in
    real space projection operators read in
  non local Contribution for L=           2  read in
    real space projection operators read in
  non local Contribution for L=           0  read in
    real space projection operators read in
  non local Contribution for L=           0  read in
    real space projection operators read in
    PAW grid and wavefunctions read in
 
   number of l-projection  operators is LMAX  =           6
   number of lm-projection operators is LMMAX =          18
 
 POTCAR:    PAW_PBE Ni 02Aug2007                  
  local pseudopotential read in
  partial core-charges read in
  partial kinetic energy density read in
  atomic valenz-charges read in
  non local Contribution for L=           2  read in
    real space projection operators read in
  non local Contribution for L=           2  read in
    real space projection operators read in
  non local Contribution for L=           0  read in
    real space projection operators read in
  non local Contribution for L=           0  read in
    real space projection operators read in
  non local Contribution for L=           1  read in
    real space projection operators read in
  non local Contribution for L=           1  read in
    real space projection operators read in
    PAW grid and wavefunctions read in
 
   number of l-projection  operators is LMAX  =           6
   number of lm-projection operators is LMMAX =          18
 
 POTCAR:    PAW_PBE Li_sv 10Sep2004               
  local pseudopotential read in
  atomic valenz-charges read in
  non local Contribution for L=           0  read in
    real space projection operators read in
  non local Contribution for L=           0  read in
    real space projection operators read in
  non local Contribution for L=           1  read in
    real space projection operators read in
    PAW grid and wavefunctions read in
 
   number of l-projection  operators is LMAX  =           3
   number of lm-projection operators is LMMAX =           5
 
 POTCAR:    PAW_PBE O 08Apr2002                   
  local pseudopotential read in
  partial core-charges read in
  partial kinetic energy density read in
  kinetic energy density of atom read in
  atomic valenz-charges read in
  non local Contribution for L=           0  read in
    real space projection operators read in
  non local Contribution for L=           0  read in
    real space projection operators read in
  non local Contribution for L=           1  read in
    real space projection operators read in
  non local Contribution for L=           1  read in
    real space projection operators read in
    PAW grid and wavefunctions read in
 
   number of l-projection  operators is LMAX  =           4
   number of lm-projection operators is LMMAX =           8
 
 Optimization of the real space projectors (new method)

 maximal supplied QI-value         = 15.12
 optimisation between [QCUT,QGAM] = [ 11.34, 22.83] = [ 36.00,145.93] Ry 
 Optimized for a Real-space Cutoff    1.61 Angstroem

   l    n(q)    QCUT    max X(q) W(low)/X(q) W(high)/X(q)  e(spline) 
   1     11    11.338     4.092    0.40E-05    0.64E-05    0.47E-07
   1     11    11.338     4.834    0.13E-04    0.44E-04    0.21E-06
   2     10    11.338    62.294    0.15E-03    0.31E-03    0.77E-06
   2     10    11.338    50.966    0.15E-03    0.31E-03    0.77E-06
   0     11    11.338   103.792    0.33E-04    0.19E-04    0.90E-07
   0     11    11.338    56.335    0.26E-04    0.17E-04    0.79E-07
 Optimization of the real space projectors (new method)

 maximal supplied QI-value         = 16.25
 optimisation between [QCUT,QGAM] = [ 11.38, 22.75] = [ 36.24,144.96] Ry 
 Optimized for a Real-space Cutoff    1.47 Angstroem

   l    n(q)    QCUT    max X(q) W(low)/X(q) W(high)/X(q)  e(spline) 
   2      9    11.376    60.317    0.17E-03    0.16E-04    0.16E-06
   2      9    11.376    55.921    0.17E-03    0.16E-04    0.17E-06
   0     10    11.376    51.690    0.45E-04    0.60E-04    0.21E-06
   0     10    11.376    30.015    0.37E-04    0.55E-04    0.19E-06
   1     10    11.376    18.849    0.83E-04    0.11E-03    0.92E-07
   1     10    11.376    14.624    0.69E-04    0.92E-04    0.82E-07
 Optimization of the real space projectors (new method)

 maximal supplied QI-value         = 22.11
 optimisation between [QCUT,QGAM] = [ 11.28, 22.77] = [ 35.61,145.23] Ry 
 Optimized for a Real-space Cutoff    1.10 Angstroem

   l    n(q)    QCUT    max X(q) W(low)/X(q) W(high)/X(q)  e(spline) 
   0      7    11.276    10.506    0.54E-04    0.58E-04    0.16E-07
   0      7    11.276     8.367    0.11E-03    0.14E-03    0.35E-07
   1      7    11.276     8.983    0.23E-03    0.43E-03    0.86E-07
 Optimization of the real space projectors (new method)

 maximal supplied QI-value         = 24.76
 optimisation between [QCUT,QGAM] = [ 11.39, 22.77] = [ 36.31,145.25] Ry 
 Optimized for a Real-space Cutoff    1.10 Angstroem

   l    n(q)    QCUT    max X(q) W(low)/X(q) W(high)/X(q)  e(spline) 
   0      7    11.387    20.381    0.22E-03    0.48E-03    0.18E-06
   0      7    11.387    15.268    0.22E-03    0.52E-03    0.19E-06
   1      7    11.387     5.964    0.22E-03    0.73E-03    0.24E-06
   1      7    11.387     5.382    0.19E-03    0.60E-03    0.21E-06

 ----------------------------------------------------------------------------- 
|                                                                             |
|  ADVICE TO THIS USER RUNNING 'VASP/VAMP'   (HEAR YOUR MASTER'S VOICE ...):  |
|                                                                             |
|      You enforced a specific xc-type in the INCAR file,                     |
|      a different type was found on the POTCAR file                          |
|          I HOPE YOU KNOW, WHAT YOU ARE  DOING                               |
|                                                                             |
 ----------------------------------------------------------------------------- 

  PAW_PBE Ta_pv 07Sep2000               :
 energy of atom  1       EATOM=-1047.1984
 kinetic energy error for atom=    0.0019 (will be added to EATOM!!)
  PAW_PBE Ni 02Aug2007                  :
 energy of atom  2       EATOM=-1077.6739
 kinetic energy error for atom=    0.0030 (will be added to EATOM!!)
  PAW_PBE Li_sv 10Sep2004               :
 energy of atom  3       EATOM= -202.7858
 kinetic energy error for atom=    0.0143 (will be added to EATOM!!)
  PAW_PBE O 08Apr2002                   :
 energy of atom  4       EATOM= -432.3788
 kinetic energy error for atom=    0.0224 (will be added to EATOM!!)
 
 
 POSCAR: ce20054_1                               
  positions in direct lattice
  No initial velocities read in
 exchange correlation table for  LEXCH =       14
   RHO(1)=    0.500       N(1)  =     2000
   RHO(2)=  100.500       N(2)  =     4000
 


--------------------------------------------------------------------------------------------------------


 ion  position               nearest neighbor table
   1  0.993  0.998  0.013-  72 2.12 105 2.12  60 2.14 108 2.15  57 2.17  93 2.19   9 2.74  12 2.77
                             7 2.85   4 2.87  29 2.98  17 3.04  26 3.04  53 3.10
   2  0.880  0.334  0.238-  71 2.11  74 2.11  80 2.14  56 2.16  77 2.18  59 2.19  10 2.74  13 2.77
                             8 2.85   5 2.87  18 3.05  27 3.05  36 3.06  39 3.07  30 3.07  37 3.08
   3  0.110  0.666  0.109-  58 1.94  64 1.96  94 1.98  55 2.03  79 2.05  61 2.05  20 2.90  22 2.98
                            21 3.01  47 3.02  32 3.04  40 3.04  29 3.06   6 3.09  19 3.10  11 3.12
   4  0.327  0.997  0.014-  66 2.12  99 2.13  60 2.14  96 2.16  63 2.17  93 2.19  14 2.74  12 2.76
                             7 2.85   1 2.87  23 3.03  17 3.04  32 3.05  47 3.07  50 3.10
   5  0.215  0.333  0.238-  65 2.11  86 2.11  80 2.14  62 2.15  83 2.19  59 2.19  15 2.74  13 2.76
                             8 2.85   2 2.87  43 3.04  18 3.05  24 3.05  33 3.06  30 3.06  42 3.06
   6  0.486  0.665  0.073-  67 1.94 100 1.98  70 2.02  61 2.04  64 2.16  85 2.22  25 2.58  20 2.61
                            22 2.76  50 3.00  35 3.06  31 3.06   3 3.09  34 3.10  16 3.12
   7  0.661  0.999  0.011- 102 2.06  99 2.10 105 2.10  66 2.16  72 2.17  69 2.20   9 2.76  14 2.77
                             1 2.85   4 2.85  35 3.00  23 3.01  26 3.01  53 3.01  50 3.06
   8  0.549  0.334  0.235-  68 2.06  71 2.10  65 2.10  74 2.16  86 2.16  89 2.22  10 2.76  15 2.77
                             2 2.85   5 2.85  45 2.99  27 3.02  24 3.03  36 3.03  33 3.03  34 3.04
   9  0.675  0.000  0.318-  78 2.11  57 2.11  69 2.14  75 2.15  72 2.19  90 2.19   1 2.74   7 2.76
                            12 2.85  14 2.87  29 3.04  17 3.05  23 3.05  39 3.06  45 3.06  36 3.06
  10  0.563  0.336  0.542-  77 2.12  98 2.13  89 2.14  95 2.16  74 2.17  92 2.19   2 2.74   8 2.76
                            13 2.85  15 2.87  24 3.03  18 3.04  37 3.05  46 3.07  49 3.10
  11  0.782  0.669  0.482-  82 1.94  97 1.98  79 2.02  76 2.04  73 2.16  58 2.22  25 2.58  21 2.61
                            22 2.76  49 3.00  40 3.06  38 3.06  16 3.09  41 3.10   3 3.12
  12  0.007  0.999  0.320-  81 2.06  84 2.10  78 2.10  63 2.16  57 2.16  60 2.22   4 2.76   1 2.77
                            14 2.85   9 2.85  30 2.99  26 3.02  23 3.03  42 3.03  39 3.03  41 3.04
  13  0.895  0.335  0.544- 101 2.06  98 2.10 104 2.10  77 2.16  83 2.17  80 2.20   5 2.76   2 2.77
                            15 2.85  10 2.85  40 3.00  24 3.01  27 3.01  52 3.01  49 3.06
  14  0.340  1.000  0.318-  84 2.11  63 2.11  69 2.14  87 2.16  66 2.18  90 2.19   4 2.74   7 2.77
                            12 2.85   9 2.87  17 3.05  26 3.05  42 3.06  33 3.07  45 3.07  32 3.08
  15  0.228  0.336  0.542-  83 2.12 104 2.12  89 2.14 107 2.15  86 2.17  92 2.19   5 2.74   8 2.77
                            13 2.85  10 2.87  43 2.98  18 3.04  27 3.04  52 3.10
  16  0.441  0.667  0.446-  85 1.94  73 1.96  91 1.98  88 2.03  70 2.05  76 2.05  21 2.90  22 2.98
                            20 3.01  46 3.02  37 3.04  35 3.04  43 3.06  11 3.09  19 3.10   6 3.12
  17  0.334  1.000  0.666-  87 2.02  75 2.03 108 2.03  96 2.05  93 2.07  90 2.09  23 2.87  26 2.87
                             1 3.04   4 3.04   9 3.05  14 3.05  38 3.06  47 3.07  44 3.07  45 3.07
  18  0.222  0.334  0.889-  56 2.02  62 2.03 107 2.03  95 2.05  92 2.07  59 2.09  24 2.87  27 2.87
                            15 3.04  10 3.04   5 3.05   2 3.05  31 3.06  46 3.07  28 3.07  30 3.07
  19  0.070  0.667  0.778- 103 1.94 106 1.94  55 2.03  88 2.03  91 2.18  94 2.18  25 2.52  20 2.73
                            21 2.73  53 2.97  52 2.97  44 3.09  28 3.09   3 3.10  16 3.10  22 3.28
  20  0.776  0.672  0.100-  67 1.93  58 2.15 106 2.25  55 2.25  73 2.29  70 2.34   6 2.61  19 2.73
                            25 2.85   3 2.90  16 3.01
  21  0.098  0.662  0.456-  82 1.93  85 2.15 103 2.25  88 2.25  64 2.29  79 2.34  11 2.61  19 2.73
                            25 2.85  16 2.90   3 3.01
  22  0.453  0.667  0.778-  97 2.07 100 2.07  91 2.16  94 2.16  61 2.36  76 2.36  25 2.76   6 2.76
                            11 2.76   3 2.98  16 2.98  19 3.28
  23  0.668  0.999  0.667- 102 2.03  81 2.04  75 2.07  96 2.10  99 2.13  78 2.13  26 2.83  17 2.87
                             7 3.01  12 3.03   4 3.03   9 3.05
  24  0.557  0.334  0.888- 101 2.03  68 2.04  62 2.07  95 2.10  98 2.13  65 2.13  27 2.83  18 2.87
                            13 3.01   8 3.03  10 3.03   5 3.05
  25  0.775  0.667  0.778-  97 2.13 100 2.13 103 2.18 106 2.18  67 2.34  82 2.34  19 2.52   6 2.58
                            11 2.58  22 2.76  20 2.85  21 2.85
  26  0.998  1.000  0.666-  81 2.03 102 2.04  87 2.08 108 2.08 105 2.14  84 2.16  23 2.83  41 2.83
                            17 2.87   7 3.01  12 3.02   1 3.04  14 3.05
  27  0.887  0.334  0.889-  68 2.03 101 2.04  56 2.08 107 2.08 104 2.14  71 2.16  24 2.83  34 2.83
                            18 2.87  13 3.01   8 3.02  15 3.04   2 3.05
  28  0.987  0.497  0.997- 106 1.95  71 2.00  59 2.11 107 2.19  94 2.21  18 3.07   2 3.09  19 3.09

  29  0.883  0.831  0.221-  79 1.91  72 1.95  60 2.04  73 2.20  78 2.21   1 2.98   9 3.04   3 3.06
                            12 3.08
  30  0.106  0.168  0.121-  80 2.00  57 2.00  63 2.00  56 2.14  62 2.14  12 2.99   5 3.06   2 3.07
                            18 3.07
  31  0.347  0.497  0.996- 100 1.99  65 2.03  59 2.10  64 2.15  95 2.17  18 3.06   6 3.06   5 3.09

  32  0.219  0.828  0.229-  61 1.96  66 2.05  60 2.06  79 2.16  84 2.16  85 2.18   3 3.04   4 3.05
                            12 3.08  14 3.08
  33  0.450  0.172  0.108-  69 2.03  86 2.07  68 2.07  63 2.08  62 2.12  99 2.23   8 3.03   5 3.06
                            14 3.07
  34  0.683  0.488  0.981-  71 2.03 106 2.04 101 2.09  65 2.11 100 2.16  27 2.83   8 3.04   6 3.10

  35  0.561  0.830  0.216-  67 1.91  72 2.00  66 2.02  85 2.18  73 2.25   7 3.00  16 3.04   6 3.06
                             9 3.08  14 3.09
  36  0.775  0.172  0.108-  69 2.04  68 2.07  74 2.08  57 2.08  56 2.13 105 2.22   8 3.03   2 3.06
                             9 3.06
  37  0.670  0.505  0.327-  76 1.96  77 2.05  89 2.06  70 2.16  71 2.16  58 2.18  16 3.04  10 3.05
                             8 3.08   2 3.08
  38  0.566  0.837  0.559-  97 1.99  78 2.03  90 2.10  73 2.15  96 2.17  17 3.06  11 3.06   9 3.09

  39  0.781  0.161  0.447-  80 2.03  57 2.07  81 2.07  74 2.08  75 2.12  98 2.23  12 3.03   9 3.06
                             2 3.07
  40  0.999  0.503  0.339-  82 1.91  83 2.00  77 2.02  58 2.18  64 2.25  13 3.00   3 3.04  11 3.06
                             5 3.08   2 3.09
  41  0.886  0.845  0.575-  84 2.03 103 2.04 102 2.09  78 2.11  97 2.16  26 2.83  12 3.04  11 3.10

  42  0.105  0.161  0.447-  80 2.04  81 2.07  63 2.08  86 2.08  87 2.13 104 2.22  12 3.03  14 3.06
                             5 3.06
  43  0.327  0.502  0.334-  70 1.91  83 1.95  89 2.04  64 2.20  65 2.21  15 2.98   5 3.04  16 3.06
                             8 3.08
  44  0.206  0.837  0.558- 103 1.95  84 2.00  90 2.11 108 2.19  91 2.21  17 3.07  14 3.09  19 3.09

  45  0.449  0.165  0.435-  69 2.00  86 2.00  74 2.00  87 2.14  75 2.14   8 2.99   9 3.06  14 3.07
                            17 3.07
  46  0.340  0.502  0.668-  88 1.94  89 2.05  95 2.06 107 2.18  76 2.20  16 3.02  10 3.07  18 3.07

  47  0.231  0.831  0.888-  55 1.94  60 2.05  96 2.06 108 2.18  61 2.20   3 3.02   4 3.07  17 3.07

  48  0.463  0.167  0.778-  98 2.02  99 2.02  92 2.18  93 2.18  62 2.27  75 2.27
  49  0.667  0.498  0.679- 100 2.04 101 2.05  95 2.12  77 2.13  82 2.16  76 2.27  11 3.00  13 3.06
                            10 3.10
  50  0.569  0.835  0.876-  97 2.04 102 2.05  96 2.12  66 2.13  67 2.16  61 2.27   6 3.00   7 3.06
                             4 3.10
  51  0.778  0.167  0.778- 104 2.11 105 2.11  98 2.12  99 2.12
  52  0.989  0.499  0.667-  82 2.02  83 2.05 101 2.06 106 2.07 107 2.20  88 2.26  19 2.97  13 3.01
                            15 3.10
  53  0.878  0.835  0.889-  67 2.02  72 2.05 102 2.06 103 2.07 108 2.20  55 2.26  19 2.97   7 3.01
                             1 3.10
  54  0.092  0.167  0.778- 104 2.01 105 2.01  92 2.19  93 2.19  56 2.28  87 2.28
  55  0.036  0.747  0.971-  47 1.94   3 2.03  19 2.03  20 2.25  53 2.26
  56  0.000  0.257  0.006-  18 2.02  27 2.08  36 2.13  30 2.14   2 2.16  54 2.28
  57  0.888  0.092  0.220-  30 2.00  39 2.07  36 2.08   9 2.11  12 2.16   1 2.17
  58  0.889  0.599  0.233-   3 1.94  20 2.15  37 2.18  40 2.18  11 2.22
  59  0.117  0.417  0.099-  18 2.09  31 2.10  28 2.11   2 2.19   5 2.19
  60  0.113  0.904  0.107-  29 2.04  47 2.05  32 2.06   4 2.14   1 2.14  12 2.22
  61  0.324  0.749  0.034-  32 1.96   6 2.04   3 2.05  47 2.20  50 2.27  22 2.36
  62  0.328  0.257  0.006-  18 2.03  24 2.07  33 2.12  30 2.14   5 2.15  48 2.27
  63  0.226  0.091  0.220-  30 2.00  42 2.08  33 2.08  14 2.11  12 2.16   4 2.17
  64  0.238  0.592  0.195-   3 1.96  31 2.15   6 2.16  43 2.20  40 2.25  21 2.29
  65  0.445  0.414  0.111-  31 2.03   8 2.10  34 2.11   5 2.11  24 2.13  43 2.21
  66  0.443  0.906  0.111-  35 2.02  32 2.05   4 2.12  50 2.13   7 2.16  14 2.18
  67  0.663  0.756  0.020-  35 1.91  20 1.93   6 1.94  53 2.02  50 2.16  25 2.34
  68  0.659  0.261  0.015-  27 2.03  24 2.04   8 2.06  36 2.07  33 2.07
  69  0.555  0.093  0.222-  45 2.00  33 2.03  36 2.04   9 2.14  14 2.14   7 2.20
  70  0.518  0.585  0.242-  43 1.91   6 2.02  16 2.05  37 2.16  20 2.34
  71  0.776  0.416  0.114-  28 2.00  34 2.03   8 2.10   2 2.11  37 2.16  27 2.16
  72  0.781  0.905  0.110-  29 1.95  35 2.00  53 2.05   1 2.12   7 2.17   9 2.19
  73  0.655  0.741  0.360-  16 1.96  38 2.15  11 2.16  29 2.20  35 2.25  20 2.29
  74  0.668  0.242  0.336-  45 2.00  36 2.08  39 2.08   2 2.11   8 2.16  10 2.17
  75  0.556  0.076  0.549-  17 2.03  23 2.07  39 2.12  45 2.14   9 2.15  48 2.27
  76  0.580  0.585  0.522-  37 1.96  11 2.04  16 2.05  46 2.20  49 2.27  22 2.36
  77  0.776  0.428  0.445-  40 2.02  37 2.05  10 2.12  49 2.13  13 2.16   2 2.18
  78  0.778  0.919  0.445-  38 2.03  12 2.10  41 2.11   9 2.11  23 2.13  29 2.21
  79  0.983  0.748  0.314-  29 1.91  11 2.02   3 2.05  32 2.16  21 2.34
  80  0.000  0.241  0.333-  30 2.00  39 2.03  42 2.04   5 2.14   2 2.14  13 2.20
  81  0.896  0.072  0.541-  26 2.03  23 2.04  12 2.06  42 2.07  39 2.07
  82  0.905  0.577  0.536-  40 1.91  21 1.93  11 1.94  52 2.02  49 2.16  25 2.34
  83  0.113  0.428  0.445-  43 1.95  40 2.00  52 2.05  15 2.12  13 2.17   5 2.19
  84  0.112  0.918  0.441-  44 2.00  41 2.03  12 2.10  14 2.11  32 2.16  26 2.16
  85  0.345  0.734  0.322-  16 1.94  21 2.15  32 2.18  35 2.18   6 2.22
  86  0.330  0.242  0.335-  45 2.00  33 2.07  42 2.08   5 2.11   8 2.16  15 2.17
  87  0.229  0.076  0.549-  17 2.02  26 2.08  42 2.13  45 2.14  14 2.16  54 2.28
  88  0.229  0.586  0.584-  46 1.94  16 2.03  19 2.03  21 2.25  52 2.26
  89  0.442  0.429  0.449-  43 2.04  46 2.05  37 2.06  10 2.14  15 2.14   8 2.22
  90  0.438  0.916  0.457-  17 2.09  38 2.10  44 2.11  14 2.19   9 2.19
  91  0.323  0.738  0.658-  16 1.98  22 2.16  19 2.18  44 2.21
  92  0.327  0.252  0.680-  18 2.07  48 2.18  54 2.19  15 2.19  10 2.19
  93  0.229  0.081  0.876-  17 2.07  48 2.18  54 2.19   1 2.19   4 2.19
  94  0.203  0.595  0.898-   3 1.98  22 2.16  19 2.18  28 2.21
  95  0.442  0.413  0.773-  18 2.05  46 2.06  24 2.10  49 2.12  10 2.16  31 2.17
  96  0.438  0.920  0.782-  17 2.05  47 2.06  23 2.10  50 2.12   4 2.16  38 2.17
  97  0.664  0.755  0.668-  11 1.98  38 1.99  50 2.04  22 2.07  25 2.13  41 2.16
  98  0.667  0.254  0.667-  48 2.02  13 2.10  51 2.12  10 2.13  24 2.13  39 2.23
  99  0.556  0.080  0.889-  48 2.02   7 2.10  51 2.12   4 2.13  23 2.13  33 2.23
 100  0.554  0.578  0.888-   6 1.98  31 1.99  49 2.04  22 2.07  25 2.13  34 2.16
 101  0.783  0.408  0.766-  24 2.03  27 2.04  49 2.05  52 2.06  13 2.06  34 2.09
 102  0.771  0.925  0.790-  23 2.03  26 2.04  50 2.05  53 2.06   7 2.06  41 2.09
 103  0.999  0.759  0.670-  19 1.94  44 1.95  41 2.04  53 2.07  25 2.18  21 2.25
 104  1.000  0.253  0.666-  54 2.01  13 2.10  51 2.11  15 2.12  27 2.14  42 2.22
 105  0.888  0.080  0.890-  54 2.01   7 2.10  51 2.11   1 2.12  26 2.14  36 2.22
 106  0.891  0.575  0.886-  19 1.94  28 1.95  34 2.04  52 2.07  25 2.18  20 2.25
 107  0.116  0.411  0.774-  18 2.03  27 2.08  15 2.15  46 2.18  28 2.19  52 2.20
 108  0.112  0.922  0.782-  17 2.03  26 2.08   1 2.15  47 2.18  44 2.19  53 2.20
 
  LATTYP: Found a base centered monoclinic cell.
 ALAT       =    15.4284824821
 B/A-ratio  =     0.5550956144
 C/A-ratio  =     1.4250842209
 COS(beta)  =    -0.6263641421
  
  Lattice vectors:
  
 A1 = (   4.2821414816,   0.0805443922,   7.7138207476)
 A2 = (  -4.2821414816,   0.0805443922,   7.7138207476)
 A3 = (   0.0000000000, -15.5037630743, -15.5902702899)


Analysis of symmetry for initial positions (statically):
=====================================================================
 Subroutine PRICEL returns:
 Original cell was already a primitive cell.
 

 Routine SETGRP: Setting up the symmetry group for a 
 base centered monoclinic supercell.


 Subroutine GETGRP returns: Found  2 space group operations
 (whereof  1 operations were pure point group operations)
 out of a pool of  4 trial point group operations.


The static configuration has the point symmetry C_1 .
 The point group associated with its full space group is C_2 .


Analysis of symmetry for dynamics (positions and initial velocities):
=====================================================================
 Subroutine PRICEL returns:
 Original cell was already a primitive cell.
 

 Routine SETGRP: Setting up the symmetry group for a 
 base centered monoclinic supercell.


 Subroutine GETGRP returns: Found  2 space group operations
 (whereof  1 operations were pure point group operations)
 out of a pool of  4 trial point group operations.


The dynamic configuration has the point symmetry C_1 .
 The point group associated with its full space group is C_2 .


Analysis of structural, dynamic, and magnetic symmetry:
=====================================================================
 Subroutine PRICEL returns:
 Original cell was already a primitive cell.
 

 Routine SETGRP: Setting up the symmetry group for a 
 base centered monoclinic supercell.


 Subroutine GETGRP returns: Found  2 space group operations
 (whereof  1 operations were pure point group operations)
 out of a pool of  4 trial point group operations.


The magnetic configuration has the point symmetry C_1 .
 The point group associated with its full space group is C_2 .


 Subroutine INISYM returns: Found  2 space group operations
 (whereof  1 operations are pure point group operations),
 and found     1 'primitive' translations

 
 
 KPOINTS: Automatic mesh                          

Automatic generation of k-mesh.
Space group operators:
 irot       det(A)        alpha          n_x          n_y          n_z        tau_x        tau_y        tau_z
    1     1.000000     0.000000     1.000000     0.000000     0.000000     0.000000     0.000000     0.000000
    2     1.000000   180.000000     1.000000     0.000000     0.000000     0.222222    -0.666667    -0.444444
 
 Subroutine IBZKPT returns following result:
 ===========================================
 
 Found      1 irreducible k-points:
 
 Following reciprocal coordinates:
            Coordinates               Weight
  0.000000  0.000000  0.000000      1.000000
 
 Following cartesian coordinates:
            Coordinates               Weight
  0.000000  0.000000  0.000000      1.000000
 


--------------------------------------------------------------------------------------------------------




 Dimension of arrays:
   k-points           NKPTS =      1   k-points in BZ     NKDIM =      1   number of bands    NBANDS=    432
   number of dos      NEDOS =    301   number of ions     NIONS =    108
   non local maximal  LDIM  =      6   non local SUM 2l+1 LMDIM =     18
   total plane-waves  NPLWV = 458752
   max r-space proj   IRMAX =   7979   max aug-charges    IRDMAX=  25626
   dimension x,y,z NGX =    64 NGY =  112 NGZ =   64
   dimension x,y,z NGXF=   128 NGYF=  224 NGZF=  128
   support grid    NGXF=   128 NGYF=  224 NGZF=  128
   ions per type =              19   8  27  54
   NGX,Y,Z   is equivalent  to a cutoff of  12.42, 12.14, 12.06 a.u.
   NGXF,Y,Z  is equivalent  to a cutoff of  24.85, 24.27, 24.12 a.u.

 SYSTEM =  unknown system                          
 POSCAR =  ce20054_1                               

 Startparameter for this run:
   NWRITE =      1    write-flag & timer
   PREC   = accura    normal or accurate (medium, high low for compatibility)
   ISTART =      0    job   : 0-new  1-cont  2-samecut
   ICHARG =      2    charge: 1-file 2-atom 10-const
   ISPIN  =      2    spin polarized calculation?
   LNONCOLLINEAR =      F non collinear calculations
   LSORBIT =      F    spin-orbit coupling
   INIWAV =      1    electr: 0-lowe 1-rand  2-diag
   LASPH  =      F    aspherical Exc in radial PAW
   METAGGA=      F    non-selfconsistent MetaGGA calc.

 Electronic Relaxation 1
   ENCUT  =  500.0 eV  36.75 Ry    6.06 a.u.  15.61 27.97 16.09*2*pi/ulx,y,z
   ENINI  =  500.0     initial cutoff
   ENAUG  =  628.9 eV  augmentation charge cutoff
   NELM   =     80;   NELMIN=  2; NELMDL= -5     # of ELM steps 
   EDIFF  = 0.1E-04   stopping-criterion for ELM
   LREAL  =      T    real-space projection
   NLSPLINE    = F    spline interpolate recip. space projectors
   LCOMPAT=      F    compatible to vasp.4.4
   GGA_COMPAT  = T    GGA compatible to vasp.4.4-vasp.4.6
   LMAXPAW     = -100 max onsite density
   LMAXMIX     =    2 max onsite mixed and CHGCAR
   VOSKOWN=      1    Vosko Wilk Nusair interpolation
   ROPT   =   -0.00025  -0.00025  -0.00025  -0.00025
 Ionic relaxation
   EDIFFG = -.2E-01   stopping-criterion for IOM
   NSW    =     20    number of steps for IOM
   NBLOCK =      1;   KBLOCK =     20    inner block; outer block 
   IBRION =      1    ionic relax: 0-MD 1-quasi-New 2-CG
   NFREE  =      0    steps in history (QN), initial steepest desc. (CG)
   ISIF   =      3    stress and relaxation
   IWAVPR =     11    prediction:  0-non 1-charg 2-wave 3-comb
   ISYM   =      2    0-nonsym 1-usesym 2-fastsym
   LCORR  =      T    Harris-Foulkes like correction to forces

   POTIM  = 0.5000    time-step for ionic-motion
   TEIN   =    0.0    initial temperature
   TEBEG  =    0.0;   TEEND  =   0.0 temperature during run
   SMASS  =  -3.00    Nose mass-parameter (am)
   estimated Nose-frequenzy (Omega)   =  0.10E-29 period in steps =****** mass=  -0.168E-26a.u.
   SCALEE = 1.0000    scale energy and forces
   NPACO  =    256;   APACO  = 16.0  distance and # of slots for P.C.
   PSTRESS=    0.0 pullay stress

  Mass of Ions in am
   POMASS = 180.95 58.69  7.01 16.00
  Ionic Valenz
   ZVAL   =  11.00 10.00  3.00  6.00
  Atomic Wigner-Seitz radii
   RWIGS  =   1.34  1.15  1.23  0.73
  virtual crystal weights 
   VCA    =   1.00  1.00  1.00  1.00
   NELECT =     694.0000    total number of electrons
   NUPDOWN=      -1.0000    fix difference up-down

 DOS related values:
   EMIN   =  10.00;   EMAX   =-10.00  energy-range for DOS
   EFERMI =   0.00
   ISMEAR =     0;   SIGMA  =   0.05  broadening in eV -4-tet -1-fermi 0-gaus

 Electronic relaxation 2 (details)
   IALGO  =     38    algorithm
   LDIAG  =      T    sub-space diagonalisation (order eigenvalues)
   LSUBROT=      F    optimize rotation matrix (better conditioning)
   TURBO    =      0    0=normal 1=particle mesh
   IRESTART =      0    0=no restart 2=restart with 2 vectors
   NREBOOT  =      0    no. of reboots
   NMIN     =      0    reboot dimension
   EREF     =   0.00    reference energy to select bands
   IMIX   =      4    mixing-type and parameters
     AMIX     =   0.40;   BMIX     =  1.00
     AMIX_MAG =   1.60;   BMIX_MAG =  1.00
     AMIN     =   0.10
     WC   =   100.;   INIMIX=   1;  MIXPRE=   1;  MAXMIX= -45

 Intra band minimization:
   WEIMIN = 0.0010     energy-eigenvalue tresh-hold
   EBREAK =  0.58E-08  absolut break condition
   DEPER  =   0.30     relativ break condition  

   TIME   =   0.40     timestep for ELM

  volume/ion in A,a.u.               =       9.38        63.33
  Fermi-wavevector in a.u.,A,eV,Ry     =   1.442968  2.726815 28.329475  2.082158
  Thomas-Fermi vector in A             =   2.561429
 
 Write flags
   LWAVE        =      F    write WAVECAR
   LDOWNSAMPLE  =      F    k-point downsampling of WAVECAR
   LCHARG       =      T    write CHGCAR
   LVTOT        =      F    write LOCPOT, total local potential
   LVHAR        =      F    write LOCPOT, Hartree potential only
   LELF         =      F    write electronic localiz. function (ELF)
   LORBIT       =      0    0 simple, 1 ext, 2 COOP (PROOUT), +10 PAW based schemes


 Dipole corrections
   LMONO  =      F    monopole corrections only (constant potential shift)
   LDIPOL =      F    correct potential (dipole corrections)
   IDIPOL =      0    1-x, 2-y, 3-z, 4-all directions 
   EPSILON=  1.0000000 bulk dielectric constant

 Exchange correlation treatment:
   GGA     =    PS    GGA type
   LEXCH   =    14    internal setting for exchange type
   VOSKOWN=      1    Vosko Wilk Nusair interpolation
   LHFCALC =     F    Hartree Fock is set to
   LHFONE  =     F    Hartree Fock one center treatment
   AEXX    =    0.0000 exact exchange contribution

 Linear response parameters
   LEPSILON=     F    determine dielectric tensor
   LRPA    =     F    only Hartree local field effects (RPA)
   LNABLA  =     F    use nabla operator in PAW spheres
   LVEL    =     F    velocity operator in full k-point grid
   LINTERFAST=   F  fast interpolation
   KINTER  =     0    interpolate to denser k-point grid
   CSHIFT  =0.1000    complex shift for real part using Kramers Kronig
   OMEGAMAX=  -1.0    maximum frequency
   DEG_THRESHOLD= 0.2000000E-02 threshold for treating states as degnerate
   RTIME   =   -0.100 relaxation time in fs
  (WPLASMAI=    0.000 imaginary part of plasma frequency in eV, 0.658/RTIME)
   DFIELD  = 0.0000000 0.0000000 0.0000000 field for delta impulse in time
 
 Orbital magnetization related:
   ORBITALMAG=     F  switch on orbital magnetization
   LCHIMAG   =     F  perturbation theory with respect to B field
   DQ        =  0.001000  dq finite difference perturbation B field
   LLRAUG    =     F  two centre corrections for induced B field



--------------------------------------------------------------------------------------------------------


 quasi-Newton-method for relaxation of ions
 charge density and potential will be updated during run
 spin polarized calculation
 Variant of blocked Davidson
 Davidson routine will perform the subspace rotation
 perform sub-space diagonalisation
    after iterative eigenvector-optimisation
 modified Broyden-mixing scheme, WC =      100.0
 initial mixing is a Kerker type mixing with AMIX =  0.4000 and BMIX =      1.0000
 Hartree-type preconditioning will be used
 using additional bands           85
 real space projection scheme for non local part
 use partial core corrections
 calculate Harris-corrections to forces 
   (improved forces if not selfconsistent)
 use gradient corrections 
 use of overlap-Matrix (Vanderbilt PP)
 Gauss-broadening in eV      SIGMA  =   0.05


--------------------------------------------------------------------------------------------------------


  energy-cutoff  :      500.00
  volume of cell :     1013.48
      direct lattice vectors                 reciprocal lattice vectors
     8.564282963  0.000000000  0.000000000     0.116764007  0.000687139 -0.064825896
     0.000000000 15.342674290  0.162628795     0.000000000  0.065184900 -0.000680633
     4.282141482  0.080544392  7.713820748     0.000000000 -0.001374279  0.129651793

  length of vectors
     8.564282963 15.343536180  8.823052397     0.133554118  0.065188453  0.129659076


 
 k-points in units of 2pi/SCALE and weight: Automatic mesh                          
   0.00000000  0.00000000  0.00000000       1.000
 
 k-points in reciprocal lattice and weights: Automatic mesh                          
   0.00000000  0.00000000  0.00000000       1.000
 
 position of ions in fractional coordinates (direct lattice) 
   0.99276307  0.99758064  0.01330529
   0.88035246  0.33360843  0.23790321
   0.10950016  0.66616482  0.10911688
   0.32719682  0.99709106  0.01369019
   0.21509170  0.33314443  0.23776427
   0.48648451  0.66470355  0.07349635
   0.66117355  0.99860035  0.01129894
   0.54929911  0.33439518  0.23537480
   0.67507821  0.00018890  0.31779128
   0.56310923  0.33624227  0.54186537
   0.78220308  0.66862979  0.48205920
   0.00689612  0.99893815  0.32018075
   0.89469470  0.33473298  0.54425662
   0.34047790  0.99972490  0.31765234
   0.22829058  0.33575269  0.54225027
   0.44083927  0.66716852  0.44643867
   0.33352315  0.99974997  0.66627087
   0.22201623  0.33358336  0.88928469
   0.07004135  0.66666667  0.77777778
   0.77628261  0.67172781  0.09983282
   0.09833766  0.66160553  0.45572273
   0.45314746  0.66666667  0.77777778
   0.66777129  0.99942777  0.66707407
   0.55706758  0.33390556  0.88848149
   0.77523359  0.66666667  0.77777778
   0.99812207  0.99953670  0.66629922
   0.88664351  0.33379663  0.88925634
   0.98667347  0.49656397  0.99713275
   0.88308996  0.83135331  0.22125548
   0.10626169  0.16806729  0.12082204
   0.34709079  0.49673697  0.99644007
   0.21865037  0.82821419  0.22898786
   0.45024292  0.17200947  0.10849905
   0.68282465  0.48808128  0.98098395
   0.56108372  0.83029764  0.21608822
   0.77490217  0.17198810  0.10824842
   0.66986046  0.50511914  0.32656769
   0.56575308  0.83659636  0.55911549
   0.78096419  0.16132387  0.44705650
   0.99939416  0.50303569  0.33946733
   0.88603081  0.84525205  0.57457161
   0.10537282  0.16134524  0.44730713
   0.32656768  0.50198002  0.33430007
   0.20602844  0.83676936  0.55842281
   0.44930597  0.16526605  0.43473351
   0.34044555  0.50240528  0.66784163
   0.23050940  0.83092805  0.88771393
   0.46321126  0.16666667  0.77777778
   0.66694562  0.49835553  0.67939625
   0.56856409  0.83497780  0.87615931
   0.77818835  0.16666667  0.77777778
   0.98856661  0.49870743  0.66674656
   0.87753539  0.83462590  0.88880900
   0.09212161  0.16666667  0.77777778
   0.03558225  0.74709751  0.97146955
   0.00028063  0.25729697  0.00612386
   0.88811220  0.09164921  0.22010696
   0.88897572  0.59899110  0.23339542
   0.11701859  0.41730700  0.09898341
   0.11301346  0.90415783  0.10678170
   0.32426490  0.74861560  0.03354158
   0.32762212  0.25725961  0.00610733
   0.22558945  0.09136959  0.21973509
   0.23798791  0.59224908  0.19526808
   0.44467711  0.41391033  0.11071328
   0.44313989  0.90551210  0.11071367
   0.66273622  0.75593562  0.02002610
   0.65949228  0.26126444  0.01469951
   0.55549716  0.09274743  0.22235475
   0.51846979  0.58523667  0.24192927
   0.77588438  0.41560827  0.11436906
   0.78090475  0.90527034  0.11036401
   0.65547823  0.74108425  0.36028747
   0.66754677  0.24196374  0.33582046
   0.55595167  0.07607372  0.54944823
   0.58002871  0.58471773  0.52201398
   0.77607579  0.42782124  0.44484188
   0.77761261  0.91942301  0.44484227
   0.98262128  0.74809666  0.31362628
   0.00007413  0.24058590  0.33320080
   0.89641400  0.07206889  0.54085605
   0.90498453  0.57739771  0.53552946
   0.11349099  0.42806300  0.44519154
   0.11247568  0.91772507  0.44118649
   0.34459337  0.73434223  0.32216013
   0.33044138  0.24168412  0.33544859
   0.22862671  0.07603636  0.54943170
   0.22927401  0.58623582  0.58408601
   0.44201739  0.42917551  0.44877385
   0.43822424  0.91602634  0.45657214
   0.32334364  0.73832053  0.65780088
   0.32721570  0.25186996  0.67959820
   0.22903612  0.08146337  0.87595736
   0.20336674  0.59501280  0.89775468
   0.44229553  0.41348379  0.77342845
   0.43794620  0.91984955  0.78212711
   0.66430168  0.75490294  0.66788783
   0.66724048  0.25364769  0.66673514
   0.55619784  0.07968564  0.88882042
   0.55441173  0.57843039  0.88766773
   0.78323438  0.40797774  0.76564936
   0.77110596  0.92535560  0.78990620
   0.99921709  0.75872490  0.66995324
   0.99992101  0.25305442  0.66603906
   0.88818230  0.08027891  0.88951650
   0.89139255  0.57460843  0.88560232
   0.11635912  0.41106867  0.77364805
   0.11222939  0.92226467  0.78190751
 
 position of ions in cartesian coordinates  (Angst):
   8.55927898 15.30662650  0.26486996
   8.55832278  5.13760725  1.88939705
   1.40504427 10.22953861  0.95004563
   2.86082948 15.29914604  0.26775939
   2.86024643  5.13047706  1.88824984
   4.48111277 10.20424979  0.67503761
   5.71086103 15.32210998  0.24955917
   5.71226120  5.14947445  1.87002130
   7.14238804  0.02849454  2.45141569
   7.14297096  5.20249985  4.23453501
   8.76325421 10.29739625  3.82725672
   1.43011959 15.35217144  2.63227302
   9.99300243  5.17953590  4.25273523
   4.27618134 15.36403863  2.61289727
   4.27713750  5.19501938  4.23742444
   5.68718580 10.27210743  3.55224869
   5.70945276 15.39250254  5.30208219
   5.70945268  5.18968774  6.91403295
   3.93040844 10.29109522  6.10805757
   7.07580219 10.31414197  0.87933476
   2.79366075 10.18750407  3.62295956
   7.21143757 10.29109522  6.10805757
   8.57548783 15.38762383  5.30822554
   8.57548783  5.19456645  6.90788961
   9.96987432 10.29109522  6.10805757
  11.40138737 15.38923269  5.30226620
  11.40138737  5.19295758  6.91384895
  12.72001430  7.69893271  7.77245889
   8.51047957 12.77300394  1.84192710
   1.42743225  2.58833323  0.95933214
   7.23948110  7.70153120  7.76714382
   2.85314205 12.72546425  1.90106278
   4.32061605  2.64782426  0.86491592
  10.04861558  7.56748486  7.64651042
   5.73060007 12.75639095  1.80189610
   7.10001650  2.64747620  0.86297913
   7.13528358  7.77618164  2.60123154
   7.23948110 12.88065908  4.44897132
   8.60275749  2.51114749  3.47474961
  10.01274151  7.74525494  2.70039822
  10.04861550 13.01470542  4.56960473
   2.81787506  2.51149555  3.47668640
   4.22833822  7.72864194  2.66036722
   4.15573134 12.88325757  4.44365625
   5.70957386  2.57063852  3.38033339
   5.77546437  7.76203147  5.23331619
   5.77546437 12.82015881  6.98279896
   7.29762680  2.61975807  6.02674318
   8.62118188  7.70082814  5.32178785
   8.62118188 12.88136214  6.89432730
   9.99517972  2.61975807  6.02674318
  11.32146728  7.70520836  5.22426764
  11.32146728 12.87698192  6.99184751
   4.11951003  2.61975807  6.02674318
   4.46470652 11.54072018  7.61524154
   0.02862663  3.94811685  0.08908225
   8.54857333  1.42387236  1.71277044
   8.61287182  9.20892404  1.89778363
   1.42604128  6.41057794  0.83140642
   1.42513360 13.88079976  0.97073699
   2.92072615 11.48846691  0.38048019
   2.83200099  3.94754232  0.08894867
   2.87294863  1.41955229  1.70985642
   2.87436135  9.10241248  1.60257972
   4.28243053  6.35940871  0.92133613
   4.26926701 13.90189458  1.00128775
   5.76161511 11.59968699  0.27741464
   5.71102388  4.00967917  0.15587851
   5.70958936  1.44090304  1.73028809
   5.47629735  8.99858166  1.96137536
   7.13463787  6.38575411  0.94981230
   7.16048355 13.89815717  0.99855121
   7.15650296 11.39923340  2.89971460
   7.15509015  3.73941931  2.62980910
   7.11414247  1.21142928  4.25071693
   7.20286772  9.01317898  4.12181421
   8.55140853  6.59975146  3.50100658
   8.56457197 14.14223733  3.58095819
   9.75843879 11.50306423  2.54091896
   1.42744784  3.71806856  2.60937744
   9.99316528  1.14929243  4.18378710
  10.04375651  8.90195890  4.22487975
   2.87834211  6.60348887  3.50374311
   2.85249652 14.11589193  3.55248202
   4.33073038 11.29272184  2.60451069
   4.26643180  3.73509924  2.62689509
   4.31076811  1.21085475  4.25058335
   4.46470643  9.04147010  4.60087361
   5.70727512  6.62084628  3.53155733
   5.70818289 14.09106810  3.67088791
   5.58600286 11.38079359  5.19423025
   5.71250349  3.91909658  5.28326000
   5.71250349  1.32041941  6.77022635
   5.58600286  9.20139669  7.02188489
   7.09987412  6.40624244  6.03333279
   7.09987412 14.17594799  6.18278235
   8.54925774 11.63602455  5.27473596
   8.56949048  3.94533567  5.18432577
   8.56949048  1.29418032  6.86916058
   8.54925774  8.94616573  6.94137919
   9.98645974  6.32113834  5.97243085
   9.98645974 14.26105209  6.24368430
  11.42641246 11.69482999  5.29128972
  11.41567996  3.93617725  5.17885986
  11.41568004  1.30333873  6.87462650
  11.42641246  8.88736029  6.92482543
   4.30940284  6.36920573  6.03463398
   4.30940284 14.21298471  6.18148117
 


--------------------------------------------------------------------------------------------------------


 use serial FFT for orbitals x direction half grid
 k-point  1 :   0.0000 0.0000 0.0000  plane waves:   12843

 maximum and minimum number of plane-waves per node :     12843    12843

 maximum number of plane-waves:     12843
 maximum index in each direction: 
   IXMAX=   15   IYMAX=   27   IZMAX=   16
   IXMIN=    0   IYMIN=  -27   IZMIN=  -14

 The following grids will avoid any aliasing or wrap around errors in the Hartre
 e energy
  - symmetry arguments have not been applied
  - exchange correlation energies might require even more grid points
  - we recommend to set PREC=Normal or Accurate and rely on VASP defaults
 NGX is ok and might be reduce to    64
 NGY is ok and might be reduce to   112
 NGZ is ok and might be reduce to    64

 serial   3D FFT for wavefunctions
 parallel 3D FFT for charge:
    minimum data exchange during FFTs selected (reduces bandwidth)


 total amount of memory used by VASP MPI-rank0   154909. kBytes
=======================================================================

   base      :      30000. kBytes
   nonlr-proj:      42736. kBytes
   fftplans  :       9702. kBytes
   grid      :      59236. kBytes
   one-center:       1679. kBytes
   wavefun   :      11556. kBytes
 
     INWAV:  cpu time    0.0000: real time    0.0000
 Broyden mixing: mesh for mixing (old mesh)
   NGX = 31   NGY = 55   NGZ = 33
  (NGX  =128   NGY  =224   NGZ  =128)
  gives a total of  56265 points

 initial charge density was supplied:
 charge density of overlapping atoms calculated
 number of electron     694.0000000 magnetization      20.0000000
 keeping initial charge density in first step


--------------------------------------------------------------------------------------------------------


 Maximum index for non-local projection operator         7704
 Maximum index for augmentation-charges         1593 (set IRDMAX)


--------------------------------------------------------------------------------------------------------


 First call to EWALD:  gamma=   0.176
 Maximum number of real-space cells 4x 2x 3
 Maximum number of reciprocal cells 2x 4x 2

    FEWALD:  cpu time    0.0052: real time    0.0052


--------------------------------------- Iteration      1(   1)  ---------------------------------------


    POTLOK:  cpu time    0.3032: real time    0.3062
    SETDIJ:  cpu time    0.0397: real time    0.0398
     EDDAV:  cpu time    6.0249: real time    6.0392
    --------------------------------------------
      LOOP:  cpu time    6.3684: real time    6.3859

 eigenvalue-minimisations  :  1728
 total energy-change (2. order) : 0.1130362E+05  (-0.3669891E+05)
 number of electron     694.0000000 magnetization      20.0000000
 augmentation part      694.0000000 magnetization      20.0000000

 Free energy of the ion-electron system (eV)
  ---------------------------------------------------
  alpha Z        PSCENC =      3989.19746905
  Ewald energy   TEWEN  =    -45060.09597622
  -Hartree energ DENC   =    -12476.86899309
  -exchange      EXHF   =         0.00000000
  -V(xc)+E(xc)   XCENC  =      2597.78781066
  PAW double counting   =     44128.81421208   -44844.36722058
  entropy T*S    EENTRO =        -0.00000024
  eigenvalues    EBANDS =      5760.50694458
  atomic energy  EATOM  =     57208.64425145
  Solvation  Ediel_sol  =         0.00000000
  ---------------------------------------------------
  free energy    TOTEN  =     11303.61849768 eV

  energy without entropy =    11303.61849792  energy(sigma->0) =    11303.61849780


--------------------------------------------------------------------------------------------------------




--------------------------------------- Iteration      1(   2)  ---------------------------------------


     EDDAV:  cpu time    6.4079: real time    6.4231
    --------------------------------------------
      LOOP:  cpu time    6.4077: real time    6.4229

 eigenvalue-minimisations  :  1824
 total energy-change (2. order) :-0.1013127E+05  (-0.9498080E+04)
 number of electron     694.0000000 magnetization      20.0000000
 augmentation part      694.0000000 magnetization      20.0000000

 Free energy of the ion-electron system (eV)
  ---------------------------------------------------
  alpha Z        PSCENC =      3989.19746905
  Ewald energy   TEWEN  =    -45060.09597622
  -Hartree energ DENC   =    -12476.86899309
  -exchange      EXHF   =         0.00000000
  -V(xc)+E(xc)   XCENC  =      2597.78781066
  PAW double counting   =     44128.81421208   -44844.36722058
  entropy T*S    EENTRO =        -0.01795442
  eigenvalues    EBANDS =     -4370.74997950
  atomic energy  EATOM  =     57208.64425145
  Solvation  Ediel_sol  =         0.00000000
  ---------------------------------------------------
  free energy    TOTEN  =      1172.34361942 eV

  energy without entropy =     1172.36157384  energy(sigma->0) =     1172.35259663


--------------------------------------------------------------------------------------------------------




--------------------------------------- Iteration      1(   3)  ---------------------------------------


     EDDAV:  cpu time    6.8929: real time    6.9092
    --------------------------------------------
      LOOP:  cpu time    6.8929: real time    6.9092

 eigenvalue-minimisations  :  2032
 total energy-change (2. order) :-0.1910297E+04  (-0.1773091E+04)
 number of electron     694.0000000 magnetization      20.0000000
 augmentation part      694.0000000 magnetization      20.0000000

 Free energy of the ion-electron system (eV)
  ---------------------------------------------------
  alpha Z        PSCENC =      3989.19746905
  Ewald energy   TEWEN  =    -45060.09597622
  -Hartree energ DENC   =    -12476.86899309
  -exchange      EXHF   =         0.00000000
  -V(xc)+E(xc)   XCENC  =      2597.78781066
  PAW double counting   =     44128.81421208   -44844.36722058
  entropy T*S    EENTRO =        -0.02798774
  eigenvalues    EBANDS =     -6281.03680924
  atomic energy  EATOM  =     57208.64425145
  Solvation  Ediel_sol  =         0.00000000
  ---------------------------------------------------
  free energy    TOTEN  =      -737.95324364 eV

  energy without entropy =     -737.92525590  energy(sigma->0) =     -737.93924977


--------------------------------------------------------------------------------------------------------




--------------------------------------- Iteration      1(   4)  ---------------------------------------


     EDDAV:  cpu time    7.5437: real time    7.5615
    --------------------------------------------
      LOOP:  cpu time    7.5437: real time    7.5615

 eigenvalue-minimisations  :  2288
 total energy-change (2. order) :-0.2192793E+03  (-0.2132018E+03)
 number of electron     694.0000000 magnetization      20.0000000
 augmentation part      694.0000000 magnetization      20.0000000

 Free energy of the ion-electron system (eV)
  ---------------------------------------------------
  alpha Z        PSCENC =      3989.19746905
  Ewald energy   TEWEN  =    -45060.09597622
  -Hartree energ DENC   =    -12476.86899309
  -exchange      EXHF   =         0.00000000
  -V(xc)+E(xc)   XCENC  =      2597.78781066
  PAW double counting   =     44128.81421208   -44844.36722058
  entropy T*S    EENTRO =        -0.05915749
  eigenvalues    EBANDS =     -6500.28497130
  atomic energy  EATOM  =     57208.64425145
  Solvation  Ediel_sol  =         0.00000000
  ---------------------------------------------------
  free energy    TOTEN  =      -957.23257545 eV

  energy without entropy =     -957.17341795  energy(sigma->0) =     -957.20299670


--------------------------------------------------------------------------------------------------------




--------------------------------------- Iteration      1(   5)  ---------------------------------------


     EDDAV:  cpu time    9.8583: real time    9.8816
    CHARGE:  cpu time    0.4754: real time    0.4766
    MIXING:  cpu time    0.0052: real time    0.0053
    --------------------------------------------
      LOOP:  cpu time   10.3386: real time   10.3631

 eigenvalue-minimisations  :  3264
 total energy-change (2. order) :-0.2027425E+02  (-0.2001704E+02)
 number of electron     694.0000008 magnetization      19.6207853
 augmentation part      170.2091702 magnetization      16.3788734

 Broyden mixing:
  rms(total) = 0.13779E+02    rms(broyden)= 0.13778E+02
  rms(prec ) = 0.14676E+02
  weight for this iteration     100.00

 Free energy of the ion-electron system (eV)
  ---------------------------------------------------
  alpha Z        PSCENC =      3989.19746905
  Ewald energy   TEWEN  =    -45060.09597622
  -Hartree energ DENC   =    -12476.86899309
  -exchange      EXHF   =         0.00000000
  -V(xc)+E(xc)   XCENC  =      2597.78781066
  PAW double counting   =     44128.81421208   -44844.36722058
  entropy T*S    EENTRO =        -0.06215226
  eigenvalues    EBANDS =     -6520.55622610
  atomic energy  EATOM  =     57208.64425145
  Solvation  Ediel_sol  =         0.00000000
  ---------------------------------------------------
  free energy    TOTEN  =      -977.50682502 eV

  energy without entropy =     -977.44467276  energy(sigma->0) =     -977.47574889


--------------------------------------------------------------------------------------------------------




--------------------------------------- Iteration      1(   6)  ---------------------------------------


    POTLOK:  cpu time    0.2686: real time    0.2692
    SETDIJ:  cpu time    0.0413: real time    0.0414
     EDDAV:  cpu time    7.6164: real time    7.6345
    CHARGE:  cpu time    0.4655: real time    0.4666
    MIXING:  cpu time    0.0061: real time    0.0061
    --------------------------------------------
      LOOP:  cpu time    8.3979: real time    8.4178

 eigenvalue-minimisations  :  2512
 total energy-change (2. order) :-0.7239477E+01  (-0.1207532E+03)
 number of electron     694.0000001 magnetization      17.6674740
 augmentation part      187.2346155 magnetization      18.6326114

 Broyden mixing:
  rms(total) = 0.16279E+02    rms(broyden)= 0.16278E+02
  rms(prec ) = 0.16904E+02
  weight for this iteration     100.00

 eigenvalues of (default mixing * dielectric matrix)
  average eigenvalue GAMMA=   0.3339
  0.3339

 Free energy of the ion-electron system (eV)
  ---------------------------------------------------
  alpha Z        PSCENC =      3989.19746905
  Ewald energy   TEWEN  =    -45060.09597622
  -Hartree energ DENC   =    -12485.47656500
  -exchange      EXHF   =         0.00000000
  -V(xc)+E(xc)   XCENC  =      2631.66455090
  PAW double counting   =     57792.47175919   -58443.18975405
  entropy T*S    EENTRO =        -0.05500507
  eigenvalues    EBANDS =     -6617.90703186
  atomic energy  EATOM  =     57208.64425145
  Solvation  Ediel_sol  =         0.00000000
  ---------------------------------------------------
  free energy    TOTEN  =      -984.74630160 eV

  energy without entropy =     -984.69129654  energy(sigma->0) =     -984.71879907


--------------------------------------------------------------------------------------------------------




--------------------------------------- Iteration      1(   7)  ---------------------------------------


    POTLOK:  cpu time    0.2734: real time    0.2741
    SETDIJ:  cpu time    0.0414: real time    0.0415
     EDDAV:  cpu time    7.9934: real time    8.0125
    CHARGE:  cpu time    0.4678: real time    0.4689
    MIXING:  cpu time    0.0061: real time    0.0061
    --------------------------------------------
      LOOP:  cpu time    8.7821: real time    8.8031

 eigenvalue-minimisations  :  2448
 total energy-change (2. order) : 0.1183212E+03  (-0.3325051E+02)
 number of electron     694.0000004 magnetization      15.1012651
 augmentation part      180.2881043 magnetization      12.4294585

 Broyden mixing:
  rms(total) = 0.63519E+01    rms(broyden)= 0.63517E+01
  rms(prec ) = 0.67848E+01
  weight for this iteration     100.00

 eigenvalues of (default mixing * dielectric matrix)
  average eigenvalue GAMMA=   0.7454
  0.9370  0.5539

 Free energy of the ion-electron system (eV)
  ---------------------------------------------------
  alpha Z        PSCENC =      3989.19746905
  Ewald energy   TEWEN  =    -45060.09597622
  -Hartree energ DENC   =    -12626.74861606
  -exchange      EXHF   =         0.00000000
  -V(xc)+E(xc)   XCENC  =      2627.98902184
  PAW double counting   =     62501.47250508   -63258.58071015
  entropy T*S    EENTRO =        -0.04379411
  eigenvalues    EBANDS =     -6248.25925250
  atomic energy  EATOM  =     57208.64425145
  Solvation  Ediel_sol  =         0.00000000
  ---------------------------------------------------
  free energy    TOTEN  =      -866.42510162 eV

  energy without entropy =     -866.38130751  energy(sigma->0) =     -866.40320457


--------------------------------------------------------------------------------------------------------




--------------------------------------- Iteration      1(   8)  ---------------------------------------


    POTLOK:  cpu time    0.2741: real time    0.2747
    SETDIJ:  cpu time    0.0413: real time    0.0414
     EDDAV:  cpu time    7.5826: real time    7.6006
    CHARGE:  cpu time    0.4723: real time    0.4734
    MIXING:  cpu time    0.0070: real time    0.0070
    --------------------------------------------
      LOOP:  cpu time    8.3773: real time    8.3972

 eigenvalue-minimisations  :  2288
 total energy-change (2. order) :-0.8550878E+02  (-0.3528429E+02)
 number of electron     694.0000028 magnetization      14.0534155
 augmentation part      151.2499141 magnetization       9.3216391

 Broyden mixing:
  rms(total) = 0.13679E+02    rms(broyden)= 0.13679E+02
  rms(prec ) = 0.17320E+02
  weight for this iteration     100.00

 eigenvalues of (default mixing * dielectric matrix)
  average eigenvalue GAMMA=   0.6548
  1.3015  0.3793  0.2836

 Free energy of the ion-electron system (eV)
  ---------------------------------------------------
  alpha Z        PSCENC =      3989.19746905
  Ewald energy   TEWEN  =    -45060.09597622
  -Hartree energ DENC   =    -12654.57430193
  -exchange      EXHF   =         0.00000000
  -V(xc)+E(xc)   XCENC  =      2621.45873673
  PAW double counting   =     70935.53954172   -71771.62275312
  entropy T*S    EENTRO =        -0.08429620
  eigenvalues    EBANDS =     -6220.39655344
  atomic energy  EATOM  =     57208.64425145
  Solvation  Ediel_sol  =         0.00000000
  ---------------------------------------------------
  free energy    TOTEN  =      -951.93388197 eV

  energy without entropy =     -951.84958577  energy(sigma->0) =     -951.89173387


--------------------------------------------------------------------------------------------------------




--------------------------------------- Iteration      1(   9)  ---------------------------------------


    POTLOK:  cpu time    0.2726: real time    0.2733
    SETDIJ:  cpu time    0.0410: real time    0.0411
     EDDAV:  cpu time    7.6568: real time    7.6749
    CHARGE:  cpu time    0.4681: real time    0.4692
    MIXING:  cpu time    0.0077: real time    0.0077
    --------------------------------------------
      LOOP:  cpu time    8.4462: real time    8.4662

 eigenvalue-minimisations  :  2336
 total energy-change (2. order) : 0.6213824E+02  (-0.1291104E+02)
 number of electron     693.9999997 magnetization      13.2223603
 augmentation part      171.9135920 magnetization      10.3304115

 Broyden mixing:
  rms(total) = 0.97168E+01    rms(broyden)= 0.97162E+01
  rms(prec ) = 0.12295E+02
  weight for this iteration     100.00

 eigenvalues of (default mixing * dielectric matrix)
  average eigenvalue GAMMA=   0.5942
  1.4797  0.3843  0.3843  0.1285

 Free energy of the ion-electron system (eV)
  ---------------------------------------------------
  alpha Z        PSCENC =      3989.19746905
  Ewald energy   TEWEN  =    -45060.09597622
  -Hartree energ DENC   =    -12485.34978129
  -exchange      EXHF   =         0.00000000
  -V(xc)+E(xc)   XCENC  =      2613.20660821
  PAW double counting   =     74432.55010589   -75236.88495960
  entropy T*S    EENTRO =        -0.05977252
  eigenvalues    EBANDS =     -6351.00359177
  atomic energy  EATOM  =     57208.64425145
  Solvation  Ediel_sol  =         0.00000000
  ---------------------------------------------------
  free energy    TOTEN  =      -889.79564679 eV

  energy without entropy =     -889.73587428  energy(sigma->0) =     -889.76576053


--------------------------------------------------------------------------------------------------------




--------------------------------------- Iteration      1(  10)  ---------------------------------------


    POTLOK:  cpu time    0.2726: real time    0.2733
    SETDIJ:  cpu time    0.0413: real time    0.0414
     EDDAV:  cpu time    7.5313: real time    7.5491
    CHARGE:  cpu time    0.4631: real time    0.4642
    MIXING:  cpu time    0.0071: real time    0.0071
    --------------------------------------------
      LOOP:  cpu time    8.3154: real time    8.3351

 eigenvalue-minimisations  :  2288
 total energy-change (2. order) : 0.1407575E+02  (-0.4875697E+01)
 number of electron     694.0000005 magnetization      11.2370286
 augmentation part      179.0834275 magnetization      10.0588243

 Broyden mixing:
  rms(total) = 0.51905E+01    rms(broyden)= 0.51898E+01
  rms(prec ) = 0.59920E+01
  weight for this iteration     100.00

 eigenvalues of (default mixing * dielectric matrix)
  average eigenvalue GAMMA=   0.5943
  1.7339  0.4526  0.4526  0.2220  0.1104

 Free energy of the ion-electron system (eV)
  ---------------------------------------------------
  alpha Z        PSCENC =      3989.19746905
  Ewald energy   TEWEN  =    -45060.09597622
  -Hartree energ DENC   =    -12431.12028689
  -exchange      EXHF   =         0.00000000
  -V(xc)+E(xc)   XCENC  =      2611.11967333
  PAW double counting   =     76455.81425378   -77249.54612719
  entropy T*S    EENTRO =        -0.03854638
  eigenvalues    EBANDS =     -6399.69460826
  atomic energy  EATOM  =     57208.64425145
  Solvation  Ediel_sol  =         0.00000000
  ---------------------------------------------------
  free energy    TOTEN  =      -875.71989734 eV

  energy without entropy =     -875.68135096  energy(sigma->0) =     -875.70062415


--------------------------------------------------------------------------------------------------------




--------------------------------------- Iteration      1(  11)  ---------------------------------------


    POTLOK:  cpu time    0.2711: real time    0.2717
    SETDIJ:  cpu time    0.0415: real time    0.0416
     EDDAV:  cpu time    7.7709: real time    7.7893
    CHARGE:  cpu time    0.4646: real time    0.4657
    MIXING:  cpu time    0.0083: real time    0.0084
    --------------------------------------------
      LOOP:  cpu time    8.5564: real time    8.5767

 eigenvalue-minimisations  :  2368
 total energy-change (2. order) :-0.1666400E+01  (-0.3565770E+02)
 number of electron     694.0000005 magnetization       9.4996805
 augmentation part      180.2220251 magnetization       8.8620253

 Broyden mixing:
  rms(total) = 0.47015E+01    rms(broyden)= 0.47003E+01
  rms(prec ) = 0.54014E+01
  weight for this iteration     100.00

 eigenvalues of (default mixing * dielectric matrix)
  average eigenvalue GAMMA=   0.5819
  1.9338  0.5153  0.3817  0.3232  0.2219  0.1153

 Free energy of the ion-electron system (eV)
  ---------------------------------------------------
  alpha Z        PSCENC =      3989.19746905
  Ewald energy   TEWEN  =    -45060.09597622
  -Hartree energ DENC   =    -12431.59286325
  -exchange      EXHF   =         0.00000000
  -V(xc)+E(xc)   XCENC  =      2612.07531144
  PAW double counting   =     80198.79422530   -81002.26224828
  entropy T*S    EENTRO =        -0.04279082
  eigenvalues    EBANDS =     -6392.10367572
  atomic energy  EATOM  =     57208.64425145
  Solvation  Ediel_sol  =         0.00000000
  ---------------------------------------------------
  free energy    TOTEN  =      -877.38629705 eV

  energy without entropy =     -877.34350624  energy(sigma->0) =     -877.36490165


--------------------------------------------------------------------------------------------------------




--------------------------------------- Iteration      1(  12)  ---------------------------------------


    POTLOK:  cpu time    0.2694: real time    0.2700
    SETDIJ:  cpu time    0.0419: real time    0.0420
     EDDAV:  cpu time    7.0730: real time    7.0898
    CHARGE:  cpu time    0.4661: real time    0.4672
    MIXING:  cpu time    0.0074: real time    0.0075
    --------------------------------------------
      LOOP:  cpu time    7.8578: real time    7.8764

 eigenvalue-minimisations  :  2112
 total energy-change (2. order) : 0.1890177E+02  (-0.4851662E+01)
 number of electron     694.0000005 magnetization       8.4106388
 augmentation part      180.1815975 magnetization       7.9037258

 Broyden mixing:
  rms(total) = 0.31115E+01    rms(broyden)= 0.31112E+01
  rms(prec ) = 0.38035E+01
  weight for this iteration     100.00

 eigenvalues of (default mixing * dielectric matrix)
  average eigenvalue GAMMA=   0.6102
  2.0547  0.5942  0.5942  0.3598  0.3598  0.1928  0.1155

 Free energy of the ion-electron system (eV)
  ---------------------------------------------------
  alpha Z        PSCENC =      3989.19746905
  Ewald energy   TEWEN  =    -45060.09597622
  -Hartree energ DENC   =    -12467.19431209
  -exchange      EXHF   =         0.00000000
  -V(xc)+E(xc)   XCENC  =      2614.43043583
  PAW double counting   =     82553.64558219   -83371.72444853
  entropy T*S    EENTRO =        -0.03855416
  eigenvalues    EBANDS =     -6325.34897639
  atomic energy  EATOM  =     57208.64425145
  Solvation  Ediel_sol  =         0.00000000
  ---------------------------------------------------
  free energy    TOTEN  =      -858.48452888 eV

  energy without entropy =     -858.44597472  energy(sigma->0) =     -858.46525180


--------------------------------------------------------------------------------------------------------




--------------------------------------- Iteration      1(  13)  ---------------------------------------


    POTLOK:  cpu time    0.2715: real time    0.2721
    SETDIJ:  cpu time    0.0416: real time    0.0417
     EDDAV:  cpu time    7.8646: real time    7.8833
    CHARGE:  cpu time    0.4663: real time    0.4674
    MIXING:  cpu time    0.0077: real time    0.0077
    --------------------------------------------
      LOOP:  cpu time    8.6517: real time    8.6722

 eigenvalue-minimisations  :  2400
 total energy-change (2. order) :-0.5525069E+00  (-0.4202989E+01)
 number of electron     694.0000005 magnetization       7.3515489
 augmentation part      176.7532526 magnetization       6.7470618

 Broyden mixing:
  rms(total) = 0.39349E+01    rms(broyden)= 0.39336E+01
  rms(prec ) = 0.47207E+01
  weight for this iteration     100.00

 eigenvalues of (default mixing * dielectric matrix)
  average eigenvalue GAMMA=   0.5920
  2.1112  0.7316  0.7316  0.3573  0.3573  0.1162  0.1713  0.1592

 Free energy of the ion-electron system (eV)
  ---------------------------------------------------
  alpha Z        PSCENC =      3989.19746905
  Ewald energy   TEWEN  =    -45060.09597622
  -Hartree energ DENC   =    -12485.00049628
  -exchange      EXHF   =         0.00000000
  -V(xc)+E(xc)   XCENC  =      2615.47367328
  PAW double counting   =     83245.09182354   -84066.27541770
  entropy T*S    EENTRO =        -0.05431030
  eigenvalues    EBANDS =     -6306.01805263
  atomic energy  EATOM  =     57208.64425145
  Solvation  Ediel_sol  =         0.00000000
  ---------------------------------------------------
  free energy    TOTEN  =      -859.03703581 eV

  energy without entropy =     -858.98272551  energy(sigma->0) =     -859.00988066


--------------------------------------------------------------------------------------------------------




--------------------------------------- Iteration      1(  14)  ---------------------------------------


    POTLOK:  cpu time    0.2705: real time    0.2712
    SETDIJ:  cpu time    0.0409: real time    0.0410
     EDDAV:  cpu time    7.8954: real time    7.9142
    CHARGE:  cpu time    0.4639: real time    0.4650
    MIXING:  cpu time    0.0085: real time    0.0085
    --------------------------------------------
      LOOP:  cpu time    8.6792: real time    8.6998

 eigenvalue-minimisations  :  2416
 total energy-change (2. order) : 0.1048222E+01  (-0.8514917E+01)
 number of electron     694.0000004 magnetization       6.4978343
 augmentation part      176.5972096 magnetization       5.1872042

 Broyden mixing:
  rms(total) = 0.39571E+01    rms(broyden)= 0.39565E+01
  rms(prec ) = 0.48097E+01
  weight for this iteration     100.00

 eigenvalues of (default mixing * dielectric matrix)
  average eigenvalue GAMMA=   0.5760
  2.1765  0.7990  0.7990  0.3217  0.3217  0.2593  0.2593  0.1175  0.1305

 Free energy of the ion-electron system (eV)
  ---------------------------------------------------
  alpha Z        PSCENC =      3989.19746905
  Ewald energy   TEWEN  =    -45060.09597622
  -Hartree energ DENC   =    -12498.16499511
  -exchange      EXHF   =         0.00000000
  -V(xc)+E(xc)   XCENC  =      2615.95176777
  PAW double counting   =     83638.16518235   -84461.72140010
  entropy T*S    EENTRO =        -0.06394786
  eigenvalues    EBANDS =     -6289.90116522
  atomic energy  EATOM  =     57208.64425145
  Solvation  Ediel_sol  =         0.00000000
  ---------------------------------------------------
  free energy    TOTEN  =      -857.98881389 eV

  energy without entropy =     -857.92486603  energy(sigma->0) =     -857.95683996


--------------------------------------------------------------------------------------------------------




--------------------------------------- Iteration      1(  15)  ---------------------------------------


    POTLOK:  cpu time    0.2726: real time    0.2732
    SETDIJ:  cpu time    0.0409: real time    0.0410
     EDDAV:  cpu time    8.0722: real time    8.0913
    CHARGE:  cpu time    0.4106: real time    0.4116
    MIXING:  cpu time    0.0085: real time    0.0085
    --------------------------------------------
      LOOP:  cpu time    8.8048: real time    8.8256

 eigenvalue-minimisations  :  2480
 total energy-change (2. order) : 0.5181534E+01  (-0.5138304E+01)
 number of electron     694.0000006 magnetization       6.4272035
 augmentation part      177.8085227 magnetization       5.4444262

 Broyden mixing:
  rms(total) = 0.28909E+01    rms(broyden)= 0.28891E+01
  rms(prec ) = 0.34581E+01
  weight for this iteration     100.00

 eigenvalues of (default mixing * dielectric matrix)
  average eigenvalue GAMMA=   0.5236
  2.1691  0.7985  0.7985  0.3289  0.3289  0.2537  0.2537  0.1189  0.1297  0.0560

 Free energy of the ion-electron system (eV)
  ---------------------------------------------------
  alpha Z        PSCENC =      3989.19746905
  Ewald energy   TEWEN  =    -45060.09597622
  -Hartree energ DENC   =    -12498.20255472
  -exchange      EXHF   =         0.00000000
  -V(xc)+E(xc)   XCENC  =      2615.81610280
  PAW double counting   =     83892.19017681   -84713.70326300
  entropy T*S    EENTRO =        -0.04661455
  eigenvalues    EBANDS =     -6286.60687130
  atomic energy  EATOM  =     57208.64425145
  Solvation  Ediel_sol  =         0.00000000
  ---------------------------------------------------
  free energy    TOTEN  =      -852.80727969 eV

  energy without entropy =     -852.76066513  energy(sigma->0) =     -852.78397241


--------------------------------------------------------------------------------------------------------




--------------------------------------- Iteration      1(  16)  ---------------------------------------


    POTLOK:  cpu time    0.2747: real time    0.2753
    SETDIJ:  cpu time    0.0410: real time    0.0411
     EDDAV:  cpu time    8.0656: real time    8.0847
    CHARGE:  cpu time    0.4456: real time    0.4466
    MIXING:  cpu time    0.0093: real time    0.0093
    --------------------------------------------
      LOOP:  cpu time    8.8362: real time    8.8571

 eigenvalue-minimisations  :  2464
 total energy-change (2. order) : 0.1236721E+01  (-0.8014441E+00)
 number of electron     694.0000005 magnetization       6.3650962
 augmentation part      178.1567624 magnetization       4.8652858

 Broyden mixing:
  rms(total) = 0.19888E+01    rms(broyden)= 0.19883E+01
  rms(prec ) = 0.24388E+01
  weight for this iteration     100.00

 eigenvalues of (default mixing * dielectric matrix)
  average eigenvalue GAMMA=   0.4985
  2.1656  0.7925  0.7925  0.3328  0.3328  0.2496  0.2496  0.1592  0.1592  0.1163
  0.1329

 Free energy of the ion-electron system (eV)
  ---------------------------------------------------
  alpha Z        PSCENC =      3989.19746905
  Ewald energy   TEWEN  =    -45060.09597622
  -Hartree energ DENC   =    -12498.65931522
  -exchange      EXHF   =         0.00000000
  -V(xc)+E(xc)   XCENC  =      2615.71875465
  PAW double counting   =     83878.39021936   -84699.45461102
  entropy T*S    EENTRO =        -0.09121923
  eigenvalues    EBANDS =     -6285.22013125
  atomic energy  EATOM  =     57208.64425145
  Solvation  Ediel_sol  =         0.00000000
  ---------------------------------------------------
  free energy    TOTEN  =      -851.57055843 eV

  energy without entropy =     -851.47933920  energy(sigma->0) =     -851.52494882


--------------------------------------------------------------------------------------------------------




--------------------------------------- Iteration      1(  17)  ---------------------------------------


    POTLOK:  cpu time    0.2646: real time    0.2652
    SETDIJ:  cpu time    0.0394: real time    0.0395
     EDDAV:  cpu time    7.9436: real time    7.9624
    CHARGE:  cpu time    0.4547: real time    0.4558
    MIXING:  cpu time    0.0097: real time    0.0097
    --------------------------------------------
      LOOP:  cpu time    8.7120: real time    8.7326

 eigenvalue-minimisations  :  2528
 total energy-change (2. order) : 0.1315078E+00  (-0.5338419E+00)
 number of electron     694.0000006 magnetization       6.2194360
 augmentation part      177.9493957 magnetization       5.3162201

 Broyden mixing:
  rms(total) = 0.25359E+01    rms(broyden)= 0.25355E+01
  rms(prec ) = 0.30604E+01
  weight for this iteration     100.00

 eigenvalues of (default mixing * dielectric matrix)
  average eigenvalue GAMMA=   0.4976
  2.1714  0.7881  0.7881  0.3545  0.3545  0.3184  0.3184  0.2615  0.2615  0.1304
  0.1212  0.1031

 Free energy of the ion-electron system (eV)
  ---------------------------------------------------
  alpha Z        PSCENC =      3989.19746905
  Ewald energy   TEWEN  =    -45060.09597622
  -Hartree energ DENC   =    -12500.03481648
  -exchange      EXHF   =         0.00000000
  -V(xc)+E(xc)   XCENC  =      2615.70615942
  PAW double counting   =     83850.48694315   -84670.76252289
  entropy T*S    EENTRO =        -0.05134096
  eigenvalues    EBANDS =     -6284.52921719
  atomic energy  EATOM  =     57208.64425145
  Solvation  Ediel_sol  =         0.00000000
  ---------------------------------------------------
  free energy    TOTEN  =      -851.43905068 eV

  energy without entropy =     -851.38770971  energy(sigma->0) =     -851.41338019


--------------------------------------------------------------------------------------------------------




--------------------------------------- Iteration      1(  18)  ---------------------------------------


    POTLOK:  cpu time    0.2616: real time    0.2623
    SETDIJ:  cpu time    0.0407: real time    0.0408
     EDDAV:  cpu time    7.4745: real time    7.4923
    CHARGE:  cpu time    0.4745: real time    0.4756
    MIXING:  cpu time    0.0099: real time    0.0099
    --------------------------------------------
      LOOP:  cpu time    8.2613: real time    8.2808

 eigenvalue-minimisations  :  2448
 total energy-change (2. order) : 0.5660383E+00  (-0.2178619E+00)
 number of electron     694.0000005 magnetization       6.1707130
 augmentation part      177.9955008 magnetization       4.9887504

 Broyden mixing:
  rms(total) = 0.20977E+01    rms(broyden)= 0.20975E+01
  rms(prec ) = 0.25321E+01
  weight for this iteration     100.00

 eigenvalues of (default mixing * dielectric matrix)
  average eigenvalue GAMMA=   0.4982
  2.1557  0.7911  0.7911  0.5048  0.5048  0.2218  0.3034  0.3034  0.2837  0.2559
  0.1284  0.1250  0.1077

 Free energy of the ion-electron system (eV)
  ---------------------------------------------------
  alpha Z        PSCENC =      3989.19746905
  Ewald energy   TEWEN  =    -45060.09597622
  -Hartree energ DENC   =    -12502.73240775
  -exchange      EXHF   =         0.00000000
  -V(xc)+E(xc)   XCENC  =      2615.78392696
  PAW double counting   =     83832.78920421   -84652.54788036
  entropy T*S    EENTRO =        -0.08183399
  eigenvalues    EBANDS =     -6281.82976570
  atomic energy  EATOM  =     57208.64425145
  Solvation  Ediel_sol  =         0.00000000
  ---------------------------------------------------
  free energy    TOTEN  =      -850.87301235 eV

  energy without entropy =     -850.79117836  energy(sigma->0) =     -850.83209536


--------------------------------------------------------------------------------------------------------




--------------------------------------- Iteration      1(  19)  ---------------------------------------


    POTLOK:  cpu time    0.2760: real time    0.2767
    SETDIJ:  cpu time    0.0414: real time    0.0415
     EDDAV:  cpu time    8.0073: real time    8.0262
    CHARGE:  cpu time    0.4685: real time    0.4697
    MIXING:  cpu time    0.0095: real time    0.0095
    --------------------------------------------
      LOOP:  cpu time    8.8027: real time    8.8235

 eigenvalue-minimisations  :  2464
 total energy-change (2. order) : 0.4573178E-01  (-0.6720759E-01)
 number of electron     694.0000006 magnetization       6.2623408
 augmentation part      177.7781403 magnetization       5.5690193

 Broyden mixing:
  rms(total) = 0.23393E+01    rms(broyden)= 0.23393E+01
  rms(prec ) = 0.28045E+01
  weight for this iteration     100.00

 eigenvalues of (default mixing * dielectric matrix)
  average eigenvalue GAMMA=   0.4894
  2.1537  0.7690  0.7690  0.5199  0.5199  0.3044  0.3044  0.3012  0.3012  0.3059
  0.2390  0.1275  0.1275  0.1092

 Free energy of the ion-electron system (eV)
  ---------------------------------------------------
  alpha Z        PSCENC =      3989.19746905
  Ewald energy   TEWEN  =    -45060.09597622
  -Hartree energ DENC   =    -12504.03562821
  -exchange      EXHF   =         0.00000000
  -V(xc)+E(xc)   XCENC  =      2615.79644289
  PAW double counting   =     83804.98831013   -84624.32863394
  entropy T*S    EENTRO =        -0.06835617
  eigenvalues    EBANDS =     -6280.92515954
  atomic energy  EATOM  =     57208.64425145
  Solvation  Ediel_sol  =         0.00000000
  ---------------------------------------------------
  free energy    TOTEN  =      -850.82728057 eV

  energy without entropy =     -850.75892440  energy(sigma->0) =     -850.79310249


--------------------------------------------------------------------------------------------------------




--------------------------------------- Iteration      1(  20)  ---------------------------------------


    POTLOK:  cpu time    0.2717: real time    0.2724
    SETDIJ:  cpu time    0.0412: real time    0.0413
     EDDAV:  cpu time    7.9854: real time    8.0043
    CHARGE:  cpu time    0.4706: real time    0.4717
    MIXING:  cpu time    0.0104: real time    0.0104
    --------------------------------------------
      LOOP:  cpu time    8.7793: real time    8.8001

 eigenvalue-minimisations  :  2448
 total energy-change (2. order) : 0.1554418E-01  (-0.3395180E-01)
 number of electron     694.0000005 magnetization       6.1441237
 augmentation part      177.8213756 magnetization       5.1544831

 Broyden mixing:
  rms(total) = 0.22081E+01    rms(broyden)= 0.22081E+01
  rms(prec ) = 0.26342E+01
  weight for this iteration     100.00

 eigenvalues of (default mixing * dielectric matrix)
  average eigenvalue GAMMA=   0.4931
  2.1497  0.7704  0.7704  0.5215  0.5215  0.3519  0.3984  0.3984  0.2988  0.2988
  0.3183  0.2327  0.1278  0.1278  0.1096

 Free energy of the ion-electron system (eV)
  ---------------------------------------------------
  alpha Z        PSCENC =      3989.19746905
  Ewald energy   TEWEN  =    -45060.09597622
  -Hartree energ DENC   =    -12503.72599199
  -exchange      EXHF   =         0.00000000
  -V(xc)+E(xc)   XCENC  =      2615.77567651
  PAW double counting   =     83799.06561920   -84618.56572468
  entropy T*S    EENTRO =        -0.07896775
  eigenvalues    EBANDS =     -6281.02809195
  atomic energy  EATOM  =     57208.64425145
  Solvation  Ediel_sol  =         0.00000000
  ---------------------------------------------------
  free energy    TOTEN  =      -850.81173639 eV

  energy without entropy =     -850.73276864  energy(sigma->0) =     -850.77225252


--------------------------------------------------------------------------------------------------------




--------------------------------------- Iteration      1(  21)  ---------------------------------------


[...]
      3.93369     10.30911      6.16281         0.078152      0.000000     -0.000000
      7.13571     10.37370      0.70574         0.204604      0.355565     -0.789518
      2.86080     10.14734      3.86457         0.204604     -0.355565      0.789518
      7.24846     10.30911      6.16281        -0.164412      0.000000     -0.000000
      8.56385     15.41470      5.36768        -0.003089      0.002176     -0.010101
      8.56385      5.20353      6.95793        -0.003089     -0.002176      0.010101
      9.92180     10.30911      6.16281         0.081527      0.000000     -0.000000
     11.37925     15.41664      5.36461         0.003187      0.006097     -0.000412
     11.37925      5.20158      6.96101         0.003187     -0.006097      0.000412
     12.70297      7.72481      7.81152        -0.022219      0.033647     -0.040473
      8.49682     12.78595      1.88818        -0.009542     -0.046671      0.018279
      1.42650      2.60112      0.97944         0.001657      0.025668      0.039321
      7.22377      7.73233      7.83591        -0.004305      0.095382      0.038905
      2.84295     12.72478      1.95612         0.007225     -0.117988      0.019391
      4.31082      2.65656      0.87980        -0.006857      0.020335      0.019541
     10.03236      7.58157      7.68278         0.019299      0.008583     -0.078978
      5.71452     12.75663      1.86022        -0.003189     -0.071060      0.063489
      7.09225      2.65661      0.87893         0.008032      0.021199      0.014816
      7.11786      7.79626      2.61419         0.007225      0.117988     -0.019391
      7.22377     12.88590      4.48971        -0.004305     -0.095382     -0.038905
      8.58573      2.51419      3.49416        -0.006857     -0.020335     -0.019541
      9.98943      7.76441      2.71009        -0.003189      0.071060     -0.063489
     10.03236     13.03666      4.64284         0.019299     -0.008583      0.078978
      2.81734      2.51414      3.49502         0.008032     -0.021199     -0.014816
      4.22191      7.73509      2.68213        -0.009542      0.046671     -0.018279
      4.15315     12.89341      4.51410        -0.022219     -0.033647      0.040473
      5.70141      2.56963      3.39451         0.001657     -0.025668     -0.039321
      5.77269      7.76943      5.26201         0.025493      0.006121     -0.056465
      5.77269     12.84880      7.06361         0.025493     -0.006121      0.056465
      7.27556      2.63397      6.06463        -0.019660      0.000000     -0.000000
      8.60199      7.71830      5.33901         0.004565      0.030109     -0.070638
      8.60199     12.89993      6.98661         0.004565     -0.030109      0.070638
      9.97839      2.63397      6.06463         0.001881      0.000000     -0.000000
     11.31895      7.71924      5.26297         0.019990     -0.010267     -0.021003
     11.31895     12.89899      7.06265         0.019990      0.010267      0.021003
      4.12444      2.63397      6.06463         0.021528      0.000000     -0.000000
      4.42861     11.59135      7.70038        -0.074298      0.160433      0.037879
      0.02974      3.95140      0.11298        -0.007706      0.007479      0.037232
      8.53431      1.42539      1.71985         0.001895      0.021617     -0.031369
      8.58352      9.20538      1.93471         0.031738     -0.137204      0.108931
      1.42362      6.40860      0.83698        -0.000852     -0.038306     -0.046256
      1.42403     13.89130      0.99978         0.003940      0.023835      0.028688
      2.90319     11.47291      0.39081        -0.034955     -0.025501     -0.055782
      2.82632      3.95032      0.11408         0.001003      0.004788      0.043168
      2.87013      1.42118      1.71789        -0.001237      0.025412     -0.031232
      2.84440      9.11376      1.60147        -0.025869      0.039930     -0.126931
      4.27282      6.35610      0.94179        -0.000017     -0.008505     -0.042376
      4.26068     13.92050      1.04150        -0.007045      0.026253      0.032286
      5.70910     11.62814      0.31606        -0.103695      0.132084      0.052365
      5.70038      4.02198      0.17711        -0.002926      0.017557      0.028947
      5.70150      1.45469      1.74262         0.001078      0.010270     -0.030171
      5.48650      9.02907      2.00767         0.048873      0.100573      0.079572
      7.13000      6.37733      0.96229         0.003612     -0.031937     -0.052185
      7.14573     13.91471      1.03799        -0.002889      0.014572      0.035105
      7.11931     11.40728      2.96884        -0.025869     -0.039930      0.126931
      7.14503      3.74957      2.65606        -0.001237     -0.025412      0.031232
      7.10123      1.22044      4.25987         0.001003     -0.004788     -0.043168
      7.17810      9.04813      4.17950        -0.034955      0.025501      0.055782
      8.53559      6.60054      3.52881        -0.007045     -0.026253     -0.032286
      8.54773     14.16494      3.62852        -0.000017      0.008505      0.042376
      9.76141     11.49197      2.56264         0.048873     -0.100573     -0.079572
      1.42659      3.71606      2.63134         0.001078     -0.010270      0.030171
      9.97529      1.14878      4.19685        -0.002926     -0.017557     -0.028947
      9.98401      8.89290      4.25425        -0.103695     -0.132084     -0.052365
      2.87082      6.60633      3.53232        -0.002889     -0.014572     -0.035105
      2.85509     14.14371      3.60802         0.003612      0.031937      0.052185
      4.30861     11.31566      2.63560         0.031738      0.137204     -0.108931
      4.25940      3.74537      2.65410         0.001895     -0.021617      0.031369
      4.30464      1.21935      4.26098        -0.007706     -0.007479     -0.037232
      4.42861      9.02687      4.62524        -0.074298     -0.160433     -0.037879
      5.69894      6.62974      3.57053         0.003940     -0.023835     -0.028688
      5.69853     14.11244      3.73333        -0.000852      0.038306      0.046256
      5.58490     11.36908      5.26308         0.064473     -0.031551      0.111936
      5.70416      3.93418      5.33643        -0.001159      0.005203      0.051013
      5.70416      1.33375      6.79283        -0.001159     -0.005203     -0.051013
      5.58490      9.24914      7.06254         0.064473      0.031551     -0.111936
      7.09102      6.41116      6.06827         0.017794     -0.041946     -0.027202
      7.09102     14.20707      6.25735         0.017794      0.041946      0.027202
      8.56385     11.62747      5.29932         0.076792     -0.147581      0.034737
      8.55111      3.95959      5.22662        -0.004337     -0.004066      0.052787
      8.55111      1.30835      6.90264        -0.004337      0.004066     -0.052787
      8.56385      8.99076      7.02630         0.076792      0.147581     -0.034737
      9.96846      6.32039      6.00627        -0.001844     -0.062796     -0.020615
      9.96846     14.29784      6.31935        -0.001844      0.062796      0.020615
     11.39115     11.74445      5.40815        -0.075496      0.155076      0.199247
     11.39949      3.95080      5.22321         0.004380     -0.004750      0.052730
     11.39949      1.31714      6.90606         0.004380      0.004750     -0.052730
     11.39115      8.87378      6.91747        -0.075496     -0.155076     -0.199247
      4.30615      6.37219      6.07099         0.000814     -0.047158     -0.033931
      4.30615     14.24604      6.25463         0.000814      0.047158      0.033931
 -----------------------------------------------------------------------------------
    total drift:                               -0.006283     -0.001669      0.001078


--------------------------------------------------------------------------------------------------------



  FREE ENERGIE OF THE ION-ELECTRON SYSTEM (eV)
  ---------------------------------------------------
  free  energy   TOTEN  =      -850.7554274880 eV

  energy  without entropy=     -850.7151204824  energy(sigma->0) =     -850.73527399
 
 d Force = 0.3187986E-01[ 0.304E-01, 0.333E-01]  d Energy = 0.3288186E-01-0.100E-02
 d Force =-0.3995009E+01[-0.408E+01,-0.391E+01]  d Ewald  =-0.6982908E+01 0.299E+01


--------------------------------------------------------------------------------------------------------


    POTLOK:  cpu time    0.2440: real time    0.2446


--------------------------------------------------------------------------------------------------------


 Quasi-Newton relaxation of ions (Broydens 2nd method)
  g(Force)  = 0.118E+00   g(Stress)= 0.374E-02

 retain information from N=  2 steps
 eigenvalues of (default step * inverse Hessian matrix)
  average eigenvalue of G=   0.5392
 eigenvalue spectrum of G is  0.9726  0.1057


--------------------------------------------------------------------------------------------------------


     LOOP+:  cpu time   73.9996: real time   74.3081
    4ORBIT:  cpu time    0.0000: real time    0.0000

volume of typ            1:    18.8 %

volume of typ            2:     5.0 %

volume of typ            3:    20.7 %

volume of typ            4:     8.6 %
 
total charge     
 
# of ion       s       p       d       tot
------------------------------------------
    1        0.227   6.074   2.237   8.538
    2        0.227   6.074   2.241   8.542
    3        0.288   6.186   1.965   8.438
    4        0.227   6.073   2.239   8.538
    5        0.226   6.073   2.245   8.544
    6        0.270   6.145   2.020   8.436
    7        0.237   6.086   2.179   8.502
    8        0.238   6.088   2.176   8.502
    9        0.226   6.073   2.245   8.544
   10        0.227   6.073   2.239   8.538
   11        0.270   6.145   2.020   8.436
   12        0.238   6.088   2.176   8.502
   13        0.237   6.086   2.179   8.502
   14        0.227   6.074   2.241   8.542
   15        0.227   6.074   2.237   8.538
   16        0.288   6.186   1.965   8.438
   17        0.270   6.150   1.961   8.382
   18        0.270   6.150   1.961   8.382
   19        0.272   6.146   2.065   8.484
   20        0.192   0.202   8.144   8.538
   21        0.192   0.202   8.144   8.538
   22        0.182   0.187   8.088   8.457
   23        0.204   0.227   7.945   8.375
   24        0.204   0.227   7.945   8.375
   25        0.202   0.204   8.110   8.516
   26        0.202   0.225   7.948   8.375
   27        0.202   0.225   7.948   8.375
   28        2.078   0.259   0.101   2.438
   29        2.090   0.294   0.120   2.505
   30        2.087   0.292   0.122   2.501
   31        2.078   0.260   0.102   2.440
   32        2.081   0.272   0.110   2.463
   33        2.082   0.274   0.111   2.468
   34        2.077   0.256   0.099   2.432
   35        2.088   0.296   0.121   2.505
   36        2.082   0.273   0.111   2.467
   37        2.081   0.272   0.110   2.463
   38        2.078   0.260   0.102   2.440
   39        2.082   0.274   0.111   2.468
   40        2.088   0.296   0.121   2.505
   41        2.077   0.256   0.099   2.432
   42        2.082   0.273   0.111   2.467
   43        2.090   0.294   0.120   2.505
   44        2.078   0.259   0.101   2.438
   45        2.087   0.292   0.122   2.501
   46        2.081   0.273   0.109   2.463
   47        2.081   0.273   0.109   2.463
   48        2.073   0.239   0.092   2.404
   49        2.073   0.249   0.096   2.418
   50        2.073   0.249   0.096   2.418
   51        2.064   0.212   0.079   2.355
   52        2.084   0.280   0.112   2.476
   53        2.084   0.280   0.112   2.476
   54        2.073   0.240   0.093   2.405
   55        1.250   2.856   0.007   4.112
   56        1.246   2.841   0.005   4.093
   57        1.245   2.844   0.007   4.096
   58        1.250   2.839   0.005   4.095
   59        1.244   2.840   0.006   4.090
   60        1.244   2.841   0.006   4.091
   61        1.251   2.855   0.005   4.111
   62        1.246   2.842   0.005   4.093
   63        1.245   2.844   0.007   4.095
   64        1.251   2.848   0.005   4.103
   65        1.244   2.836   0.005   4.085
   66        1.246   2.840   0.007   4.092
   67        1.251   2.843   0.007   4.101
   68        1.243   2.829   0.005   4.076
   69        1.243   2.848   0.006   4.097
   70        1.251   2.859   0.005   4.115
   71        1.243   2.840   0.005   4.088
   72        1.243   2.848   0.006   4.098
   73        1.251   2.848   0.005   4.103
   74        1.245   2.844   0.007   4.095
   75        1.246   2.842   0.005   4.093
   76        1.251   2.855   0.005   4.111
   77        1.246   2.840   0.007   4.092
   78        1.244   2.836   0.005   4.085
   79        1.251   2.859   0.005   4.115
   80        1.243   2.848   0.006   4.097
   81        1.243   2.829   0.005   4.076
   82        1.251   2.843   0.007   4.101
   83        1.243   2.848   0.006   4.098
   84        1.243   2.840   0.005   4.088
   85        1.250   2.839   0.005   4.095
   86        1.245   2.844   0.007   4.096
   87        1.246   2.841   0.005   4.093
   88        1.250   2.856   0.007   4.112
   89        1.244   2.841   0.006   4.091
   90        1.244   2.840   0.006   4.090
   91        1.248   2.842   0.005   4.095
   92        1.246   2.838   0.006   4.089
   93        1.246   2.838   0.006   4.089
   94        1.248   2.842   0.005   4.095
   95        1.245   2.842   0.005   4.092
   96        1.245   2.842   0.005   4.092
   97        1.248   2.827   0.006   4.081
   98        1.243   2.835   0.005   4.083
   99        1.243   2.835   0.005   4.083
  100        1.248   2.827   0.006   4.081
  101        1.241   2.836   0.005   4.082
  102        1.241   2.836   0.005   4.082
  103        1.252   2.829   0.005   4.086
  104        1.243   2.835   0.005   4.083
  105        1.243   2.835   0.005   4.083
  106        1.252   2.829   0.005   4.086
  107        1.247   2.840   0.006   4.092
  108        1.247   2.840   0.006   4.092
--------------------------------------------------
tot         129.74  278.43  108.05  516.22
 
magnetization (x)
 
# of ion       s       p       d       tot
------------------------------------------
    1        0.000   0.000   0.017   0.017
    2        0.000   0.000   0.018   0.018
    3        0.000   0.000   0.012   0.013
    4        0.000  -0.000   0.017   0.017
    5       -0.000   0.000   0.017   0.017
    6       -0.001  -0.001  -0.015  -0.017
    7       -0.000  -0.000   0.003   0.003
    8       -0.000  -0.000   0.004   0.004
    9       -0.000   0.000   0.017   0.017
   10        0.000  -0.000   0.017   0.017
   11       -0.001  -0.001  -0.015  -0.017
   12       -0.000  -0.000   0.004   0.004
   13       -0.000  -0.000   0.003   0.003
   14        0.000   0.000   0.018   0.018
   15        0.000   0.000   0.017   0.017
   16        0.000   0.000   0.012   0.013
   17       -0.000  -0.001  -0.009  -0.010
   18       -0.000  -0.001  -0.009  -0.010
   19        0.000   0.000   0.015   0.016
   20       -0.001  -0.001  -0.323  -0.325
   21       -0.001  -0.001  -0.323  -0.325
   22       -0.000   0.001   0.860   0.861
   23        0.001   0.001   1.432   1.434
   24        0.001   0.001   1.432   1.434
   25       -0.001   0.000   0.655   0.654
   26        0.002   0.001   1.426   1.428
   27        0.002   0.001   1.426   1.428
   28        0.001   0.002   0.001   0.004
   29        0.001   0.002   0.000   0.003
   30        0.002   0.003   0.001   0.006
   31        0.000   0.001   0.000   0.002
   32        0.001   0.001   0.000   0.003
   33        0.002   0.004   0.001   0.006
   34        0.000   0.000  -0.000   0.000
   35       -0.000  -0.001  -0.000  -0.001
   36        0.002   0.004   0.001   0.007
   37        0.001   0.001   0.000   0.003
   38        0.000   0.001   0.000   0.002
   39        0.002   0.004   0.001   0.006
   40       -0.000  -0.001  -0.000  -0.001
   41        0.000   0.000  -0.000   0.000
   42        0.002   0.004   0.001   0.007
   43        0.001   0.002   0.000   0.003
   44        0.001   0.002   0.001   0.004
   45        0.002   0.003   0.001   0.006
   46        0.002   0.003   0.001   0.006
   47        0.002   0.003   0.001   0.006
   48       -0.000  -0.000  -0.000  -0.001
   49        0.001   0.002   0.000   0.003
   50        0.001   0.002   0.000   0.003
   51       -0.000  -0.001  -0.000  -0.002
   52        0.001   0.002   0.001   0.003
   53        0.001   0.002   0.001   0.003
   54       -0.000  -0.000  -0.000  -0.001
   55        0.000  -0.002   0.000  -0.002
   56        0.004   0.043   0.000   0.047
   57        0.000   0.002   0.000   0.002
   58       -0.001  -0.011  -0.000  -0.012
   59       -0.000   0.000   0.000   0.000
   60       -0.000   0.001   0.000   0.001
   61       -0.000  -0.000  -0.000  -0.001
   62        0.004   0.042   0.000   0.046
   63        0.000   0.002   0.000   0.002
   64       -0.000  -0.004   0.000  -0.005
   65        0.004   0.058   0.000   0.063
   66        0.000   0.001   0.000   0.002
   67       -0.001  -0.015  -0.000  -0.016
   68        0.009   0.117   0.000   0.126
   69        0.000   0.002   0.000   0.002
   70        0.000  -0.003   0.000  -0.003
   71        0.004   0.055   0.000   0.059
   72        0.000   0.001   0.000   0.001
   73       -0.000  -0.004   0.000  -0.005
   74        0.000   0.002   0.000   0.002
   75        0.004   0.042   0.000   0.046
   76       -0.000  -0.000  -0.000  -0.001
   77        0.000   0.001   0.000   0.002
   78        0.004   0.058   0.000   0.063
   79        0.000  -0.003   0.000  -0.003
   80        0.000   0.002   0.000   0.002
   81        0.009   0.117   0.000   0.126
   82       -0.001  -0.015  -0.000  -0.016
   83        0.000   0.001   0.000   0.001
   84        0.004   0.055   0.000   0.059
   85       -0.001  -0.011  -0.000  -0.012
   86        0.000   0.002   0.000   0.002
   87        0.004   0.043   0.000   0.047
   88        0.000  -0.002   0.000  -0.002
   89       -0.000   0.001   0.000   0.001
   90       -0.000   0.000   0.000   0.000
   91        0.004   0.025   0.000   0.029
   92        0.000   0.000   0.000   0.000
   93        0.000   0.000   0.000   0.000
   94        0.004   0.025   0.000   0.029
   95        0.004   0.044   0.000   0.048
   96        0.004   0.044   0.000   0.048
   97        0.005   0.054   0.000   0.060
   98        0.004   0.058   0.000   0.062
   99        0.004   0.058   0.000   0.062
  100        0.005   0.054   0.000   0.060
  101        0.009   0.113   0.000   0.122
  102        0.009   0.113   0.000   0.122
  103        0.001   0.018   0.000   0.019
  104        0.004   0.057   0.000   0.061
  105        0.004   0.057   0.000   0.061
  106        0.001   0.018   0.000   0.019
  107        0.004   0.043   0.000   0.047
  108        0.004   0.043   0.000   0.047
--------------------------------------------------
tot           0.14    1.45    6.74    8.34
 

 total amount of memory used by VASP MPI-rank0   154909. kBytes
=======================================================================

   base      :      30000. kBytes
   nonlr-proj:      42736. kBytes
   fftplans  :       9702. kBytes
   grid      :      59236. kBytes
   one-center:       1679. kBytes
   wavefun   :      11556. kBytes
 
  
  
 General timing and accounting informations for this job:
 ========================================================
  
                  Total CPU time used (sec):     3210.688
                            User time (sec):     3197.117
                          System time (sec):       13.571
                         Elapsed time (sec):     3224.242
  
                   Maximum memory used (kb):      219372.
                   Average memory used (kb):           0.
  
                          Minor page faults:        40312
                          Major page faults:            9
                 Voluntary context switches:         1329
