 vasp.5.4.4.18Apr17-6-g9f103f2a35 (build May 12 2020 05:39:39) gamma-only       
  
 MD_VERSION_INFO: Compiled 2020-05-12T12:39:39-UTC in devlin.sd.materialsdesign.
 com:/home/medea2/data/build/wwolf/vasp-gpu5.4.4/13047/x86_64/src/src/build/gam 
 from svn 13047
 
 This VASP executable licensed from Materials Design, Inc.
 
 executed on                        Lin64 date 2023.04.02  20:17:55
 running on   16 total cores
 distrk:  each k-point on   16 cores,    1 groups
 distr:  one band on NCORES_PER_BAND=   1 cores,   16 groups


--------------------------------------------------------------------------------------------------------


 INCAR:
 POTCAR:    PAW_PBE Ta_pv 07Sep2000               
 POTCAR:    PAW_PBE Ni 02Aug2007                  
 POTCAR:    PAW_PBE Li_sv 10Sep2004               
 POTCAR:    PAW_PBE O 08Apr2002                   

 ----------------------------------------------------------------------------- 
|                                                                             |
|           W    W    AA    RRRRR   N    N  II  N    N   GGGG   !!!           |
|           W    W   A  A   R    R  NN   N  II  NN   N  G    G  !!!           |
|           W    W  A    A  R    R  N N  N  II  N N  N  G       !!!           |
|           W WW W  AAAAAA  RRRRR   N  N N  II  N  N N  G  GGG   !            |
|           WW  WW  A    A  R   R   N   NN  II  N   NN  G    G                |
|           W    W  A    A  R    R  N    N  II  N    N   GGGG   !!!           |
|                                                                             |
|      For optimal performance we recommend to set                            |
|        NCORE= 4 - approx SQRT( number of cores)                             |
|      NCORE specifies how many cores store one orbital (NPAR=cpu/NCORE).     |
|      This setting can  greatly improve the performance of VASP for DFT.     |
|      The default,   NCORE=1            might be grossly inefficient         |
|      on modern multi-core architectures or massively parallel machines.     |
|      Do your own testing !!!!                                               |
|      Unfortunately you need to use the default for GW and RPA calculations. |
|      (for HF NCORE is supported but not extensively tested yet)             |
|                                                                             |
 ----------------------------------------------------------------------------- 

 POTCAR:    PAW_PBE Ta_pv 07Sep2000               
  local pseudopotential read in
  partial core-charges read in
  partial kinetic energy density read in
  atomic valenz-charges read in
  non local Contribution for L=           1  read in
    real space projection operators read in
  non local Contribution for L=           1  read in
    real space projection operators read in
  non local Contribution for L=           2  read in
    real space projection operators read in
  non local Contribution for L=           2  read in
    real space projection operators read in
  non local Contribution for L=           0  read in
    real space projection operators read in
  non local Contribution for L=           0  read in
    real space projection operators read in
    PAW grid and wavefunctions read in
 
   number of l-projection  operators is LMAX  =           6
   number of lm-projection operators is LMMAX =          18
 
 POTCAR:    PAW_PBE Ni 02Aug2007                  
  local pseudopotential read in
  partial core-charges read in
  partial kinetic energy density read in
  atomic valenz-charges read in
  non local Contribution for L=           2  read in
    real space projection operators read in
  non local Contribution for L=           2  read in
    real space projection operators read in
  non local Contribution for L=           0  read in
    real space projection operators read in
  non local Contribution for L=           0  read in
    real space projection operators read in
  non local Contribution for L=           1  read in
    real space projection operators read in
  non local Contribution for L=           1  read in
    real space projection operators read in
    PAW grid and wavefunctions read in
 
   number of l-projection  operators is LMAX  =           6
   number of lm-projection operators is LMMAX =          18
 
 POTCAR:    PAW_PBE Li_sv 10Sep2004               
  local pseudopotential read in
  atomic valenz-charges read in
  non local Contribution for L=           0  read in
    real space projection operators read in
  non local Contribution for L=           0  read in
    real space projection operators read in
  non local Contribution for L=           1  read in
    real space projection operators read in
    PAW grid and wavefunctions read in
 
   number of l-projection  operators is LMAX  =           3
   number of lm-projection operators is LMMAX =           5
 
 POTCAR:    PAW_PBE O 08Apr2002                   
  local pseudopotential read in
  partial core-charges read in
  partial kinetic energy density read in
  kinetic energy density of atom read in
  atomic valenz-charges read in
  non local Contribution for L=           0  read in
    real space projection operators read in
  non local Contribution for L=           0  read in
    real space projection operators read in
  non local Contribution for L=           1  read in
    real space projection operators read in
  non local Contribution for L=           1  read in
    real space projection operators read in
    PAW grid and wavefunctions read in
 
   number of l-projection  operators is LMAX  =           4
   number of lm-projection operators is LMMAX =           8
 
 Optimization of the real space projectors (new method)

 maximal supplied QI-value         = 15.12
 optimisation between [QCUT,QGAM] = [ 11.34, 22.83] = [ 36.00,145.93] Ry 
 Optimized for a Real-space Cutoff    1.61 Angstroem

   l    n(q)    QCUT    max X(q) W(low)/X(q) W(high)/X(q)  e(spline) 
   1     11    11.338     4.092    0.40E-05    0.64E-05    0.47E-07
   1     11    11.338     4.834    0.13E-04    0.44E-04    0.21E-06
   2     10    11.338    62.294    0.15E-03    0.31E-03    0.77E-06
   2     10    11.338    50.966    0.15E-03    0.31E-03    0.77E-06
   0     11    11.338   103.792    0.33E-04    0.19E-04    0.90E-07
   0     11    11.338    56.335    0.26E-04    0.17E-04    0.79E-07
 Optimization of the real space projectors (new method)

 maximal supplied QI-value         = 16.25
 optimisation between [QCUT,QGAM] = [ 11.38, 22.75] = [ 36.24,144.96] Ry 
 Optimized for a Real-space Cutoff    1.47 Angstroem

   l    n(q)    QCUT    max X(q) W(low)/X(q) W(high)/X(q)  e(spline) 
   2      9    11.376    60.317    0.17E-03    0.16E-04    0.16E-06
   2      9    11.376    55.921    0.17E-03    0.16E-04    0.17E-06
   0     10    11.376    51.690    0.45E-04    0.60E-04    0.21E-06
   0     10    11.376    30.015    0.37E-04    0.55E-04    0.19E-06
   1     10    11.376    18.849    0.83E-04    0.11E-03    0.92E-07
   1     10    11.376    14.624    0.69E-04    0.92E-04    0.82E-07
 Optimization of the real space projectors (new method)

 maximal supplied QI-value         = 22.11
 optimisation between [QCUT,QGAM] = [ 11.28, 22.77] = [ 35.61,145.23] Ry 
 Optimized for a Real-space Cutoff    1.10 Angstroem

   l    n(q)    QCUT    max X(q) W(low)/X(q) W(high)/X(q)  e(spline) 
   0      7    11.276    10.506    0.54E-04    0.58E-04    0.16E-07
   0      7    11.276     8.367    0.11E-03    0.14E-03    0.35E-07
   1      7    11.276     8.983    0.23E-03    0.43E-03    0.86E-07
 Optimization of the real space projectors (new method)

 maximal supplied QI-value         = 24.76
 optimisation between [QCUT,QGAM] = [ 11.39, 22.77] = [ 36.31,145.25] Ry 
 Optimized for a Real-space Cutoff    1.10 Angstroem

   l    n(q)    QCUT    max X(q) W(low)/X(q) W(high)/X(q)  e(spline) 
   0      7    11.387    20.381    0.22E-03    0.48E-03    0.18E-06
   0      7    11.387    15.268    0.22E-03    0.52E-03    0.19E-06
   1      7    11.387     5.964    0.22E-03    0.73E-03    0.24E-06
   1      7    11.387     5.382    0.19E-03    0.60E-03    0.21E-06

 ----------------------------------------------------------------------------- 
|                                                                             |
|  ADVICE TO THIS USER RUNNING 'VASP/VAMP'   (HEAR YOUR MASTER'S VOICE ...):  |
|                                                                             |
|      You enforced a specific xc-type in the INCAR file,                     |
|      a different type was found on the POTCAR file                          |
|          I HOPE YOU KNOW, WHAT YOU ARE  DOING                               |
|                                                                             |
 ----------------------------------------------------------------------------- 

  PAW_PBE Ta_pv 07Sep2000               :
 energy of atom  1       EATOM=-1047.1984
 kinetic energy error for atom=    0.0019 (will be added to EATOM!!)
  PAW_PBE Ni 02Aug2007                  :
 energy of atom  2       EATOM=-1077.6739
 kinetic energy error for atom=    0.0030 (will be added to EATOM!!)
  PAW_PBE Li_sv 10Sep2004               :
 energy of atom  3       EATOM= -202.7858
 kinetic energy error for atom=    0.0143 (will be added to EATOM!!)
  PAW_PBE O 08Apr2002                   :
 energy of atom  4       EATOM= -432.3788
 kinetic energy error for atom=    0.0224 (will be added to EATOM!!)
 
 
 POSCAR: ce94855_1                               
  positions in direct lattice
  No initial velocities read in
 exchange correlation table for  LEXCH =       14
   RHO(1)=    0.500       N(1)  =     2000
   RHO(2)=  100.500       N(2)  =     4000
 


--------------------------------------------------------------------------------------------------------


 ion  position               nearest neighbor table
   1  0.990  0.000  0.004-  93 2.11 108 2.12 105 2.16  72 2.16  60 2.18  57 2.18   7 2.77  16 2.84
                             9 2.92  10 2.94   4 2.95  54 3.00  36 3.03  24 3.03  53 3.05  47 3.06
   2  0.848  0.334  0.255-  74 1.94  77 1.96  80 2.01  71 2.02  56 2.19  59 2.20  19 2.60  18 2.70
                            21 2.90  39 3.01  36 3.04  40 3.07  37 3.07  17 3.10   5 3.13
   3  0.112  0.668  0.127-  58 2.09  79 2.09  61 2.09  94 2.14  55 2.14  64 2.15  11 2.70   6 2.77
                            20 2.82  29 2.96  40 2.99  13 3.01   8 3.03  32 3.04  31 3.05  28 3.10
   4  0.325  0.002  0.010-  66 2.05  96 2.06  93 2.07  99 2.11  60 2.12  63 2.14  10 2.70  22 2.83
                             1 2.95  32 2.99  33 2.99  26 3.01  24 3.01   7 3.03  48 3.04  50 3.04
   5  0.219  0.330  0.226-  59 1.96  83 1.98  65 1.99  62 2.00  86 2.06  80 2.06  21 2.86  18 2.94
                            30 2.97  33 3.04  31 3.06  42 3.08  14 3.10  12 3.12   2 3.13  25 3.26
   6  0.439  0.667  0.107-  70 2.11  85 2.12  64 2.16  61 2.16  67 2.18 100 2.18   3 2.77  11 2.84
                            13 2.92  15 2.94   8 2.95  43 3.00  31 3.03  23 3.03  32 3.05  35 3.06
   7  0.683  0.999  0.984-  99 2.09 102 2.09  72 2.09  69 2.14  66 2.14 105 2.15  16 2.70   1 2.77
                            26 2.82  50 2.96  51 2.99   9 3.01   4 3.03  53 3.04  36 3.05  33 3.10
   8  0.779  0.665  0.101-  55 2.05  73 2.06  70 2.07  58 2.11  67 2.12 106 2.14  15 2.70  27 2.83
                             6 2.95  53 2.99  28 2.99  20 3.01  23 3.01   3 3.03  37 3.04  29 3.04
   9  0.660  0.999  0.337-  90 1.95  75 1.98  78 2.03  69 2.03  57 2.14  72 2.15  24 2.86   1 2.92
                            45 2.93  22 2.98  26 3.00   7 3.01  38 3.01  35 3.04  39 3.05  36 3.10
  10  0.023  0.002  0.320-  84 2.05  63 2.07  57 2.10  78 2.12  81 2.13  60 2.13  22 2.66   4 2.70
                            42 2.89   1 2.94  32 2.94  16 3.06   9 3.10  30 3.10  26 3.11
  11  0.118  0.668  0.430-  88 2.03  85 2.05  82 2.10  79 2.12  64 2.15 103 2.15   3 2.70   6 2.84
                            20 2.87  23 2.93  43 2.97  27 2.98  32 2.99  52 3.01  40 3.03  15 3.06
  12  0.265  0.333  0.556-  92 1.97  89 1.97  86 2.07 107 2.07 104 2.17  83 2.17  25 2.47  18 2.47
                            19 2.57  45 2.97  46 2.97  17 3.12   5 3.12  21 3.18
  13  0.441  0.667  0.774-  91 1.95  76 1.98  97 2.03  94 2.03 100 2.14  61 2.15  23 2.86   6 2.92
                            46 2.93  27 2.98  20 3.00   3 3.01  38 3.01  47 3.04  49 3.05  31 3.10
  14  0.548  0.332  0.856-  95 1.94  98 1.96 101 2.01  62 2.02  65 2.19  68 2.20  19 2.60  25 2.70
                            21 2.90  49 3.01  31 3.04  51 3.07  48 3.07   5 3.10  17 3.13
  15  0.787  0.665  0.791- 103 2.05 106 2.07 100 2.10  97 2.12  82 2.13  67 2.13  27 2.66   8 2.70
                            52 2.89   6 2.94  53 2.94  11 3.06  13 3.10  34 3.10  20 3.11
  16  0.993  0.999  0.681-  87 2.03 108 2.05  81 2.10 102 2.12 105 2.15  84 2.15   7 2.70   1 2.84
                            26 2.87  24 2.93  54 2.97  22 2.98  53 2.99  42 3.01  51 3.03  10 3.06
  17  0.890  0.337  0.885-  68 1.96 104 1.98  56 1.99  71 2.00 107 2.06 101 2.06  21 2.86  25 2.94
                            34 2.97  28 3.04  36 3.06  52 3.08   2 3.10  12 3.12  14 3.13  18 3.26
  18  0.534  0.327  0.267-  74 1.91  89 2.06  86 2.16  65 2.31  68 2.42  12 2.47  19 2.67   2 2.70
                             5 2.94  17 3.26
  19  0.559  0.333  0.556-  98 2.14  77 2.14  92 2.24  89 2.24  74 2.33  95 2.33  12 2.57  14 2.60
                             2 2.60  25 2.67  18 2.67  21 2.99
  20  0.786  0.665  0.439-  73 2.03  82 2.08  58 2.09  97 2.13  79 2.18  76 2.19   3 2.82  11 2.87
                            23 2.95  13 3.00   8 3.01  15 3.11
  21  0.901  0.333  0.556- 104 2.04  83 2.04  98 2.14  77 2.14  80 2.33 101 2.33  17 2.86   5 2.86
                            14 2.90   2 2.90  19 2.99  12 3.18
  22  0.320  0.994  0.334-  84 2.00  66 2.05  87 2.08  69 2.20  90 2.28  63 2.35  10 2.66  32 2.83
                             4 2.83  24 2.98  16 2.98   9 2.98   7 3.14
  23  0.444  0.669  0.448-  73 2.06  76 2.07  91 2.07  88 2.08  85 2.09  70 2.14  13 2.86  11 2.93
                            20 2.95  27 2.98   8 3.01   6 3.03
  24  0.336  0.998  0.663-  96 2.06  75 2.07  90 2.07  87 2.08 108 2.09  93 2.14   9 2.86  16 2.93
                            26 2.95  22 2.98   4 3.01   1 3.03
  25  0.245  0.340  0.844-  95 1.91  92 2.06 107 2.16  56 2.31  59 2.42  12 2.47  19 2.67  14 2.70
                            17 2.94   5 3.26
  26  0.669  0.002  0.672-  96 2.03  81 2.08  99 2.09  78 2.13 102 2.18  75 2.19   7 2.82  16 2.87
                            24 2.95   9 3.00   4 3.01  10 3.11
  27  0.098  0.673  0.777- 103 2.00  55 2.05  88 2.08  94 2.20  91 2.28 106 2.35  15 2.66  53 2.83
                             8 2.83  23 2.98  11 2.98  13 2.98   3 3.14
  28  0.007  0.504  0.989-  71 1.94 106 1.98  94 2.09  58 2.13 107 2.24   8 2.99  17 3.04   3 3.10

  29  0.888  0.827  0.227-  79 1.96  73 2.08  60 2.11  55 2.13  72 2.19  78 2.22   3 2.96   8 3.04

  30  0.117  0.173  0.096-  63 1.96  80 1.97  93 2.12  56 2.17  62 2.17  57 2.22   5 2.97   4 3.04
                            10 3.10
  31  0.328  0.498  0.004-  95 1.93  64 2.03  65 2.13  94 2.16 100 2.20  59 2.23   6 3.03  14 3.04
                             3 3.05   5 3.06  13 3.10
  32  0.226  0.837  0.227-  79 2.07  60 2.10  85 2.10  66 2.11  84 2.11  61 2.18  22 2.83  10 2.94
                            11 2.99   4 2.99   3 3.04   6 3.05
  33  0.441  0.163  0.122-  62 1.94  63 1.98  69 2.09  99 2.13  86 2.24   4 2.99   5 3.04   7 3.10

  34  0.658  0.494  0.015- 106 1.96 101 1.97  70 2.12  65 2.17  71 2.17 100 2.22  17 2.97   8 3.04
                            15 3.10
  35  0.547  0.832  0.231-  85 2.04  72 2.05  67 2.10  90 2.12  66 2.18  73 2.20   9 3.04   6 3.06
                             8 3.09
  36  0.776  0.168  0.107-  74 1.93 105 2.03  56 2.13  69 2.16  57 2.20  68 2.23   1 3.03   2 3.04
                             7 3.05  17 3.06   9 3.10
  37  0.648  0.510  0.356-  89 2.00  76 2.02  70 2.10  58 2.18  77 2.22   8 3.04   2 3.07
  38  0.554  0.833  0.556-  91 1.96  90 1.96  97 2.26  78 2.26  73 2.28  96 2.28  13 3.01   9 3.01

  39  0.767  0.164  0.459-  98 2.04  75 2.06  57 2.11  81 2.12  74 2.22  80 2.25   2 3.01   9 3.05

  40  0.987  0.502  0.341-  77 1.99  58 2.09  64 2.09  82 2.13  59 2.17   3 2.99  11 3.03   2 3.07

  41  0.882  0.833  0.556-  79 2.06 102 2.06 103 2.12  84 2.12  97 2.17  78 2.17  11 3.09  16 3.09

  42  0.112  0.159  0.445-  86 1.94  63 2.02  81 2.03  87 2.07  10 2.89  16 3.01   5 3.08
  43  0.340  0.507  0.341-  89 1.97  64 2.02  70 2.03  88 2.12  83 2.23  11 2.97   6 3.00
  44  0.238  0.833  0.556-  91 2.12  90 2.12  85 2.16 108 2.16 103 2.23  84 2.23
  45  0.443  0.159  0.445-  75 1.99  92 2.08  69 2.15  74 2.15  87 2.16  86 2.21   9 2.93  12 2.97

  46  0.332  0.507  0.667-  76 1.99  89 2.08  94 2.15  95 2.15  88 2.16 107 2.21  13 2.93  12 2.97

  47  0.222  0.835  0.881- 108 2.04  61 2.05  60 2.10  91 2.12  55 2.18  96 2.20  13 3.04   1 3.06
                             4 3.09
  48  0.448  0.156  0.755-  92 2.00  75 2.02  93 2.10  99 2.18  98 2.22   4 3.04  14 3.07
  49  0.671  0.503  0.652-  77 2.04  76 2.06 100 2.11  82 2.12  95 2.22 101 2.25  14 3.01  13 3.05

  50  0.560  0.840  0.884- 102 1.96  96 2.08  67 2.11  66 2.13  61 2.19  97 2.22   7 2.96   4 3.04

  51  0.772  0.165  0.771-  98 1.99  99 2.09 105 2.09  81 2.13  68 2.17   7 2.99  16 3.03  14 3.07

  52  0.002  0.508  0.666- 107 1.94 106 2.02  82 2.03  88 2.07  15 2.89  11 3.01  17 3.08
  53  0.898  0.830  0.884- 102 2.07  67 2.10 108 2.10  55 2.11 103 2.11  72 2.18  27 2.83  15 2.94
                            16 2.99   8 2.99   7 3.04   1 3.05
  54  0.126  0.160  0.770-  92 1.97 105 2.02  93 2.03  87 2.12 104 2.23  16 2.97   1 3.00
  55  0.998  0.744  0.003-  27 2.05   8 2.05  53 2.11  29 2.13   3 2.14  47 2.18
  56  0.985  0.263  0.007-  17 1.99  36 2.13  30 2.17   2 2.19  25 2.31
  57  0.886  0.084  0.234-  10 2.10  39 2.11   9 2.14   1 2.18  36 2.20  30 2.22
  58  0.893  0.585  0.216-   3 2.09  40 2.09  20 2.09   8 2.11  28 2.13  37 2.18
  59  0.102  0.405  0.133-   5 1.96  40 2.17   2 2.20  31 2.23  25 2.42
  60  0.111  0.911  0.109-  32 2.10  47 2.10  29 2.11   4 2.12  10 2.13   1 2.18
  61  0.325  0.755  0.995-  47 2.05   3 2.09  13 2.15   6 2.16  32 2.18  50 2.19
  62  0.354  0.250  0.021-  33 1.94   5 2.00  14 2.02  30 2.17
  63  0.214  0.099  0.211-  30 1.96  33 1.98  42 2.02  10 2.07   4 2.14  22 2.35
  64  0.225  0.572  0.224-  43 2.02  31 2.03  40 2.09   3 2.15  11 2.15   6 2.16
  65  0.437  0.404  0.104-   5 1.99  31 2.13  34 2.17  14 2.19  18 2.31
  66  0.446  0.922  0.108-  22 2.05   4 2.05  32 2.11  50 2.13   7 2.14  35 2.18
  67  0.664  0.756  0.002-  53 2.10  35 2.10  50 2.11   8 2.12  15 2.13   6 2.18
  68  0.679  0.262  0.978-  17 1.96  51 2.17  14 2.20  36 2.23  18 2.42
  69  0.559  0.076  0.217-   9 2.03  33 2.09   7 2.14  45 2.15  36 2.16  22 2.20
  70  0.555  0.587  0.220-  43 2.03   8 2.07  37 2.10   6 2.11  34 2.12  23 2.14
  71  0.820  0.416  0.090-  28 1.94  17 2.00   2 2.02  34 2.17
  72  0.765  0.912  0.116-  35 2.05   7 2.09   9 2.15   1 2.16  53 2.18  29 2.19
  73  0.677  0.739  0.325-  20 2.03   8 2.06  23 2.06  29 2.08  35 2.20  38 2.28
  74  0.671  0.243  0.310-  18 1.91  36 1.93   2 1.94  45 2.15  39 2.22  19 2.33
  75  0.556  0.079  0.540-   9 1.98  45 1.99  48 2.02  39 2.06  24 2.07  26 2.19
  76  0.540  0.588  0.571-  13 1.98  46 1.99  37 2.02  49 2.06  23 2.07  20 2.19
  77  0.784  0.418  0.446-   2 1.96  40 1.99  49 2.04  19 2.14  21 2.14  37 2.22
  78  0.785  0.928  0.437-   9 2.03  10 2.12  26 2.13  41 2.17  29 2.22  38 2.26
  79  0.003  0.759  0.332-  29 1.96  41 2.06  32 2.07   3 2.09  11 2.12  20 2.18
  80  0.001  0.252  0.300-  30 1.97   2 2.01   5 2.06  39 2.25  21 2.33
  81  0.896  0.079  0.551-  42 2.03  26 2.08  16 2.10  39 2.12  51 2.13  10 2.13
  82  0.892  0.588  0.560-  52 2.03  20 2.08  11 2.10  49 2.12  40 2.13  15 2.13
  83  0.131  0.403  0.439-   5 1.98  21 2.04  12 2.17  43 2.23
  84  0.104  0.919  0.450-  22 2.00  10 2.05  32 2.11  41 2.12  16 2.15  44 2.23
  85  0.335  0.748  0.331-  35 2.04  11 2.05  23 2.09  32 2.10   6 2.12  44 2.16
  86  0.298  0.247  0.360-  42 1.94   5 2.06  12 2.07  18 2.16  45 2.21  33 2.24
  87  0.215  0.073  0.555-  16 2.03  42 2.07  22 2.08  24 2.08  54 2.12  45 2.16
  88  0.214  0.594  0.557-  11 2.03  52 2.07  27 2.08  23 2.08  43 2.12  46 2.16
  89  0.442  0.428  0.445-  43 1.97  12 1.97  37 2.00  18 2.06  46 2.08  19 2.24
  90  0.463  0.916  0.448-   9 1.95  38 1.96  24 2.07  35 2.12  44 2.12  22 2.28
  91  0.355  0.750  0.663-  13 1.95  38 1.96  23 2.07  47 2.12  44 2.12  27 2.28
  92  0.332  0.239  0.666-  54 1.97  12 1.97  48 2.00  25 2.06  45 2.08  19 2.24
  93  0.219  0.079  0.891-  54 2.03   4 2.07  48 2.10   1 2.11  30 2.12  24 2.14
  94  0.221  0.590  0.894-  13 2.03  28 2.09   3 2.14  46 2.15  31 2.16  27 2.20
  95  0.426  0.423  0.801-  25 1.91  31 1.93  14 1.94  46 2.15  49 2.22  19 2.33
  96  0.446  0.928  0.786-  26 2.03   4 2.06  24 2.06  50 2.08  47 2.20  38 2.28
  97  0.667  0.739  0.674-  13 2.03  15 2.12  20 2.13  41 2.17  50 2.22  38 2.26
  98  0.675  0.248  0.665-  14 1.96  51 1.99  39 2.04  19 2.14  21 2.14  48 2.22
  99  0.553  0.081  0.895-   7 2.09  51 2.09  26 2.09   4 2.11  33 2.13  48 2.18
 100  0.565  0.583  0.877-  15 2.10  49 2.11  13 2.14   6 2.18  31 2.20  34 2.22
 101  0.746  0.415  0.811-  34 1.97  14 2.01  17 2.06  49 2.25  21 2.33
 102  0.779  0.908  0.780-  50 1.96  41 2.06  53 2.07   7 2.09  16 2.12  26 2.18
 103  0.998  0.748  0.661-  27 2.00  15 2.05  53 2.11  41 2.12  11 2.15  44 2.23
 104  0.015  0.264  0.672-  17 1.98  21 2.04  12 2.17  54 2.23
 105  0.893  0.094  0.887-  54 2.02  36 2.03  51 2.09   7 2.15  16 2.15   1 2.16
 106  0.869  0.568  0.900-  34 1.96  28 1.98  52 2.02  15 2.07   8 2.14  27 2.35
 107  0.102  0.419  0.751-  52 1.94  17 2.06  12 2.07  25 2.16  46 2.21  28 2.24
 108  0.111  0.918  0.780-  47 2.04  16 2.05  24 2.09  53 2.10   1 2.12  44 2.16
 
  LATTYP: Found a base centered monoclinic cell.
 ALAT       =    15.3102984182
 B/A-ratio  =     0.5707813297
 C/A-ratio  =     1.4105236825
 COS(beta)  =    -0.6191521606
  
  Lattice vectors:
  
 A1 = (   4.3694161955,   0.0213369281,   7.6551194732)
 A2 = (  -4.3694162945,   0.0213369281,   7.6551194732)
 A3 = (   0.0000000990, -15.1868342115, -15.3534149271)


Analysis of symmetry for initial positions (statically):
=====================================================================
 Subroutine PRICEL returns:
 Original cell was already a primitive cell.
 

 Routine SETGRP: Setting up the symmetry group for a 
 base centered monoclinic supercell.


 Subroutine GETGRP returns: Found  2 space group operations
 (whereof  1 operations were pure point group operations)
 out of a pool of  4 trial point group operations.


The static configuration has the point symmetry C_1 .
 The point group associated with its full space group is C_2 .


Analysis of symmetry for dynamics (positions and initial velocities):
=====================================================================
 Subroutine PRICEL returns:
 Original cell was already a primitive cell.
 

 Routine SETGRP: Setting up the symmetry group for a 
 base centered monoclinic supercell.


 Subroutine GETGRP returns: Found  2 space group operations
 (whereof  1 operations were pure point group operations)
 out of a pool of  4 trial point group operations.


The dynamic configuration has the point symmetry C_1 .
 The point group associated with its full space group is C_2 .


Analysis of structural, dynamic, and magnetic symmetry:
=====================================================================
 Subroutine PRICEL returns:
 Original cell was already a primitive cell.
 

 Routine SETGRP: Setting up the symmetry group for a 
 base centered monoclinic supercell.


 Subroutine GETGRP returns: Found  2 space group operations
 (whereof  1 operations were pure point group operations)
 out of a pool of  4 trial point group operations.


The magnetic configuration has the point symmetry C_1 .
 The point group associated with its full space group is C_2 .


 Subroutine INISYM returns: Found  2 space group operations
 (whereof  1 operations are pure point group operations),
 and found     1 'primitive' translations

 
 
 KPOINTS: Automatic mesh                          

Automatic generation of k-mesh.
Space group operators:
 irot       det(A)        alpha          n_x          n_y          n_z        tau_x        tau_y        tau_z
    1     1.000000     0.000000     1.000000     0.000000     0.000000     0.000000     0.000000     0.000000
    2     1.000000   180.000000     1.000000    -0.000000     0.000000    -0.555556    -0.333333     1.111111
 
 Subroutine IBZKPT returns following result:
 ===========================================
 
 Found      1 irreducible k-points:
 
 Following reciprocal coordinates:
            Coordinates               Weight
  0.000000  0.000000  0.000000      1.000000
 
 Following cartesian coordinates:
            Coordinates               Weight
  0.000000  0.000000  0.000000      1.000000
 


--------------------------------------------------------------------------------------------------------




 Dimension of arrays:
   k-points           NKPTS =      1   k-points in BZ     NKDIM =      1   number of bands    NBANDS=    432
   number of dos      NEDOS =    301   number of ions     NIONS =    108
   non local maximal  LDIM  =      6   non local SUM 2l+1 LMDIM =     18
   total plane-waves  NPLWV = 458752
   max r-space proj   IRMAX =   7982   max aug-charges    IRDMAX=  25636
   dimension x,y,z NGX =    64 NGY =  112 NGZ =   64
   dimension x,y,z NGXF=   128 NGYF=  224 NGZF=  128
   support grid    NGXF=   128 NGYF=  224 NGZF=  128
   ions per type =              17  10  27  54
   NGX,Y,Z   is equivalent  to a cutoff of  12.18, 12.29, 12.07 a.u.
   NGXF,Y,Z  is equivalent  to a cutoff of  24.35, 24.59, 24.14 a.u.

 SYSTEM =  unknown system                          
 POSCAR =  ce94855_1                               

 Startparameter for this run:
   NWRITE =      1    write-flag & timer
   PREC   = accura    normal or accurate (medium, high low for compatibility)
   ISTART =      0    job   : 0-new  1-cont  2-samecut
   ICHARG =      2    charge: 1-file 2-atom 10-const
   ISPIN  =      2    spin polarized calculation?
   LNONCOLLINEAR =      F non collinear calculations
   LSORBIT =      F    spin-orbit coupling
   INIWAV =      1    electr: 0-lowe 1-rand  2-diag
   LASPH  =      F    aspherical Exc in radial PAW
   METAGGA=      F    non-selfconsistent MetaGGA calc.

 Electronic Relaxation 1
   ENCUT  =  500.0 eV  36.75 Ry    6.06 a.u.  15.93 27.61 16.07*2*pi/ulx,y,z
   ENINI  =  500.0     initial cutoff
   ENAUG  =  628.9 eV  augmentation charge cutoff
   NELM   =     80;   NELMIN=  2; NELMDL= -5     # of ELM steps 
   EDIFF  = 0.1E-04   stopping-criterion for ELM
   LREAL  =      T    real-space projection
   NLSPLINE    = F    spline interpolate recip. space projectors
   LCOMPAT=      F    compatible to vasp.4.4
   GGA_COMPAT  = T    GGA compatible to vasp.4.4-vasp.4.6
   LMAXPAW     = -100 max onsite density
   LMAXMIX     =    2 max onsite mixed and CHGCAR
   VOSKOWN=      1    Vosko Wilk Nusair interpolation
   ROPT   =   -0.00025  -0.00025  -0.00025  -0.00025
 Ionic relaxation
   EDIFFG = -.2E-01   stopping-criterion for IOM
   NSW    =     20    number of steps for IOM
   NBLOCK =      1;   KBLOCK =     20    inner block; outer block 
   IBRION =      1    ionic relax: 0-MD 1-quasi-New 2-CG
   NFREE  =      0    steps in history (QN), initial steepest desc. (CG)
   ISIF   =      3    stress and relaxation
   IWAVPR =     11    prediction:  0-non 1-charg 2-wave 3-comb
   ISYM   =      2    0-nonsym 1-usesym 2-fastsym
   LCORR  =      T    Harris-Foulkes like correction to forces

   POTIM  = 0.5000    time-step for ionic-motion
   TEIN   =    0.0    initial temperature
   TEBEG  =    0.0;   TEEND  =   0.0 temperature during run
   SMASS  =  -3.00    Nose mass-parameter (am)
   estimated Nose-frequenzy (Omega)   =  0.10E-29 period in steps =****** mass=  -0.175E-26a.u.
   SCALEE = 1.0000    scale energy and forces
   NPACO  =    256;   APACO  = 16.0  distance and # of slots for P.C.
   PSTRESS=    0.0 pullay stress

  Mass of Ions in am
   POMASS = 180.95 58.69  7.01 16.00
  Ionic Valenz
   ZVAL   =  11.00 10.00  3.00  6.00
  Atomic Wigner-Seitz radii
   RWIGS  =   1.34  1.15  1.23  0.73
  virtual crystal weights 
   VCA    =   1.00  1.00  1.00  1.00
   NELECT =     692.0000    total number of electrons
   NUPDOWN=      -1.0000    fix difference up-down

 DOS related values:
   EMIN   =  10.00;   EMAX   =-10.00  energy-range for DOS
   EFERMI =   0.00
   ISMEAR =     0;   SIGMA  =   0.05  broadening in eV -4-tet -1-fermi 0-gaus

 Electronic relaxation 2 (details)
   IALGO  =     38    algorithm
   LDIAG  =      T    sub-space diagonalisation (order eigenvalues)
   LSUBROT=      F    optimize rotation matrix (better conditioning)
   TURBO    =      0    0=normal 1=particle mesh
   IRESTART =      0    0=no restart 2=restart with 2 vectors
   NREBOOT  =      0    no. of reboots
   NMIN     =      0    reboot dimension
   EREF     =   0.00    reference energy to select bands
   IMIX   =      4    mixing-type and parameters
     AMIX     =   0.40;   BMIX     =  1.00
     AMIX_MAG =   1.60;   BMIX_MAG =  1.00
     AMIN     =   0.10
     WC   =   100.;   INIMIX=   1;  MIXPRE=   1;  MAXMIX= -45

 Intra band minimization:
   WEIMIN = 0.0010     energy-eigenvalue tresh-hold
   EBREAK =  0.58E-08  absolut break condition
   DEPER  =   0.30     relativ break condition  

   TIME   =   0.40     timestep for ELM

  volume/ion in A,a.u.               =       9.38        63.30
  Fermi-wavevector in a.u.,A,eV,Ry     =   1.441765  2.724541 28.282245  2.078686
  Thomas-Fermi vector in A             =   2.560361
 
 Write flags
   LWAVE        =      F    write WAVECAR
   LDOWNSAMPLE  =      F    k-point downsampling of WAVECAR
   LCHARG       =      T    write CHGCAR
   LVTOT        =      F    write LOCPOT, total local potential
   LVHAR        =      F    write LOCPOT, Hartree potential only
   LELF         =      F    write electronic localiz. function (ELF)
   LORBIT       =      0    0 simple, 1 ext, 2 COOP (PROOUT), +10 PAW based schemes


 Dipole corrections
   LMONO  =      F    monopole corrections only (constant potential shift)
   LDIPOL =      F    correct potential (dipole corrections)
   IDIPOL =      0    1-x, 2-y, 3-z, 4-all directions 
   EPSILON=  1.0000000 bulk dielectric constant

 Exchange correlation treatment:
   GGA     =    PS    GGA type
   LEXCH   =    14    internal setting for exchange type
   VOSKOWN=      1    Vosko Wilk Nusair interpolation
   LHFCALC =     F    Hartree Fock is set to
   LHFONE  =     F    Hartree Fock one center treatment
   AEXX    =    0.0000 exact exchange contribution

 Linear response parameters
   LEPSILON=     F    determine dielectric tensor
   LRPA    =     F    only Hartree local field effects (RPA)
   LNABLA  =     F    use nabla operator in PAW spheres
   LVEL    =     F    velocity operator in full k-point grid
   LINTERFAST=   F  fast interpolation
   KINTER  =     0    interpolate to denser k-point grid
   CSHIFT  =0.1000    complex shift for real part using Kramers Kronig
   OMEGAMAX=  -1.0    maximum frequency
   DEG_THRESHOLD= 0.2000000E-02 threshold for treating states as degnerate
   RTIME   =   -0.100 relaxation time in fs
  (WPLASMAI=    0.000 imaginary part of plasma frequency in eV, 0.658/RTIME)
   DFIELD  = 0.0000000 0.0000000 0.0000000 field for delta impulse in time
 
 Orbital magnetization related:
   ORBITALMAG=     F  switch on orbital magnetization
   LCHIMAG   =     F  perturbation theory with respect to B field
   DQ        =  0.001000  dq finite difference perturbation B field
   LLRAUG    =     F  two centre corrections for induced B field



--------------------------------------------------------------------------------------------------------


 quasi-Newton-method for relaxation of ions
 charge density and potential will be updated during run
 spin polarized calculation
 Variant of blocked Davidson
 Davidson routine will perform the subspace rotation
 perform sub-space diagonalisation
    after iterative eigenvector-optimisation
 modified Broyden-mixing scheme, WC =      100.0
 initial mixing is a Kerker type mixing with AMIX =  0.4000 and BMIX =      1.0000
 Hartree-type preconditioning will be used
 using additional bands           86
 real space projection scheme for non local part
 use partial core corrections
 calculate Harris-corrections to forces 
   (improved forces if not selfconsistent)
 use gradient corrections 
 use of overlap-Matrix (Vanderbilt PP)
 Gauss-broadening in eV      SIGMA  =   0.05


--------------------------------------------------------------------------------------------------------


  energy-cutoff  :      500.00
  volume of cell :     1013.09
      direct lattice vectors                 reciprocal lattice vectors
     8.738832490  0.000000000  0.000000000     0.114431762  0.000186217 -0.065316285
     0.000000000 15.144160355  0.043175981     0.000000000  0.066032578 -0.000184051
     4.369416195  0.021336928  7.655119473     0.000000000 -0.000372433  0.130632572

  length of vectors
     8.738832490 15.144221903  8.814369365     0.131760692  0.066032834  0.130633103


 
 k-points in units of 2pi/SCALE and weight: Automatic mesh                          
   0.00000000  0.00000000  0.00000000       1.000
 
 k-points in reciprocal lattice and weights: Automatic mesh                          
   0.00000000  0.00000000  0.00000000       1.000
 
 position of ions in fractional coordinates (direct lattice) 
   0.99031671  0.00007722  0.00398786
   0.84811591  0.33428025  0.25531256
   0.11202828  0.66772167  0.12669648
   0.32472658  0.00174688  0.01007104
   0.21942839  0.33000103  0.22607138
   0.43874902  0.66658945  0.10712325
   0.68316922  0.99894500  0.98441463
   0.77924207  0.66491979  0.10104007
   0.65953842  0.99918046  0.33678584
   0.02262080  0.00192517  0.32002388
   0.11776813  0.66779412  0.43038526
   0.26471486  0.33333333  0.55555556
   0.44076870  0.66748621  0.77432527
   0.54787291  0.33238641  0.85579855
   0.78708912  0.66474150  0.79108723
   0.99259783  0.99887255  0.68072585
   0.88994421  0.33666563  0.88503973
   0.53352970  0.32650217  0.26680520
   0.55914639  0.33333333  0.55555556
   0.78563315  0.66454064  0.43888261
   0.90093895  0.33333333  0.55555556
   0.32010445  0.99414974  0.33361877
   0.44382578  0.66868542  0.44822713
   0.33649735  0.99798125  0.66288398
   0.24477934  0.34016449  0.84430591
   0.66896020  0.00212603  0.67222850
   0.09816766  0.67251693  0.77749234
   0.00697239  0.50390433  0.98919003
   0.88827677  0.82709614  0.22691450
   0.11722613  0.17312260  0.09595889
   0.32804817  0.49820491  0.00389094
   0.22649194  0.83702158  0.22721930
   0.44060687  0.16276234  0.12192108
   0.65762947  0.49354407  0.01515222
   0.54716890  0.83165940  0.23056123
   0.77638357  0.16846176  0.10722017
   0.64773436  0.51042350  0.35614713
   0.55427142  0.83333333  0.55555556
   0.76716454  0.16379632  0.45903799
   0.98712946  0.50196343  0.34052228
   0.88196135  0.83333333  0.55555556
   0.11175465  0.15883225  0.44542952
   0.34046631  0.50709671  0.34106378
   0.23843051  0.83333333  0.55555556
   0.44290816  0.15925403  0.44451842
   0.33187102  0.50741264  0.66659269
   0.22217457  0.83500726  0.88054988
   0.44832593  0.15624317  0.75496398
   0.67064697  0.50287035  0.65207312
   0.55963571  0.83957052  0.88419661
   0.77209620  0.16470324  0.77058883
   0.00162861  0.50783442  0.66568159
   0.89815569  0.82964508  0.88389181
   0.12597453  0.15956996  0.77004733
   0.99828713  0.74444330  0.00312437
   0.98505537  0.26307953  0.00719149
   0.88574798  0.08389676  0.23438321
   0.89263415  0.58525035  0.21605871
   0.10168440  0.40469743  0.13320641
   0.11084588  0.91104599  0.10892355
   0.32528604  0.75450478  0.99538400
   0.35394052  0.25029154  0.02112610
   0.21405686  0.09892271  0.21092981
   0.22453017  0.57235218  0.22396014
   0.43669130  0.40358714  0.10391962
   0.44585595  0.92222337  0.10798674
   0.66421389  0.75562068  0.00218756
   0.67933526  0.26196924  0.97790470
   0.55939617  0.07621398  0.21747331
   0.55486720  0.58737110  0.21999821
   0.81951107  0.41637513  0.08998501
   0.76511449  0.91216189  0.11572711
   0.67672722  0.73911389  0.32498307
   0.67121475  0.24322337  0.31022960
   0.55564256  0.07892187  0.54030727
   0.54039427  0.58774479  0.57080385
   0.78442463  0.41847543  0.44603006
   0.78499986  0.92769019  0.43741020
   0.00324553  0.75853800  0.33158457
   0.00102828  0.25163923  0.30041632
   0.89643241  0.07909430  0.55148047
   0.89235733  0.58757236  0.55963065
   0.13115061  0.40312669  0.43913692
   0.10388789  0.91867390  0.44989775
   0.33531156  0.74831713  0.33120018
   0.29771867  0.24721089  0.36017659
   0.21489655  0.07312624  0.55455622
   0.21389721  0.59354042  0.55655490
   0.44196163  0.42777042  0.44545254
   0.46318744  0.91635980  0.44764774
   0.35527962  0.75030687  0.66346337
   0.33185860  0.23889625  0.66565857
   0.21930986  0.07929556  0.89111290
   0.22131392  0.59045268  0.89363780
   0.42588879  0.42344330  0.80088151
   0.44615473  0.92755278  0.78612804
   0.66685450  0.73897648  0.67370091
   0.67489913  0.24819124  0.66508105
   0.55313730  0.08141631  0.89505240
   0.56457562  0.58276990  0.87672790
   0.74588905  0.41502744  0.81069479
   0.77927455  0.90812867  0.77952654
   0.99823007  0.74799277  0.66121336
   0.01473198  0.26353998  0.67197419
   0.89293476  0.09431448  0.88715097
   0.86943112  0.56774395  0.90018130
   0.10233970  0.41945578  0.75093452
   0.11095618  0.91834954  0.77991093
 
 position of ions in cartesian coordinates  (Angst):
   8.67163646  0.00125452  0.03053088
   8.52710970  5.06784130  1.96888103
   1.53258602 10.11478736  0.99870623
   2.88173575  0.02666992  0.07717044
   2.90534789  5.00241218  1.74485154
   4.30222025 10.09722320  0.84882193
  10.27141860 15.14918765  7.57894203
   7.25115204 10.07180781  0.80218237
   7.23515328 15.13893509  2.62127644
   1.59599691  0.03598341  2.44990416
   2.90968829 10.12236434  3.32348325
   4.74075228  5.05990725  4.26723618
   7.23515321 10.12503992  5.95637182
   8.52710963  5.05197321  6.56559125
  10.33482933 10.08383124  6.08456813
  11.64852072 15.14161067  5.25416501
  11.64418031  5.11740232  6.78962074
   5.82820964  4.95029402  2.05652273
   7.31374010  5.05990725  4.26723618
   8.78317728 10.07327442  3.38839101
  10.30060803  5.05990725  4.26723618
   4.25505842 15.06268148  2.59681493
   5.83701003 10.13624302  3.46010338
   5.83700997 15.12773199  5.11754488
   5.82820957  5.16952048  6.47794955
   8.78317723  0.04654023  5.14608127
   4.25505836 10.20129353  5.98083333
   4.38311349  7.65231425  7.59412442
   8.75398579 12.53051823  1.77276829
   1.44370384  2.62384388  0.74205151
   2.88375914  7.54497807  0.05129610
   2.97209081 12.68083719  1.77553012
   4.38311357  2.46750040  0.94034786
   5.81312013  7.47463384  0.13730130
   5.78903533 12.59970278  1.80088147
   7.25317551  2.55349966  0.82805671
   7.21659711  7.73753442  2.74838687
   7.27113855 12.63198743  4.28882417
   8.70985044  2.49035220  3.52106272
  10.11424256  7.60908038  2.62841150
  10.13476596 12.63198743  4.28882417
   2.92287212  2.41488516  3.41667393
   4.46552766  7.68683115  2.63277838
   4.51105775 12.63198743  4.28882417
   5.81278620  2.42125323  3.40971756
   5.81278615  7.69856143  5.12475472
   5.78903526 12.66427207  6.77676679
   7.21659704  2.38228023  5.78608542
   8.70985038  7.62946246  5.01340956
   8.75398571 12.73345662  6.80487997
  10.11424267  2.51073428  5.90606078
   2.92287207  7.70492949  5.11779835
  11.71092331 12.58313767  6.80211815
   4.46552759  2.43298351  5.90169390
   8.73751568 11.27403538  0.05605950
   8.63965648  3.98427203  0.06641043
   8.76452102  1.27554700  1.79785380
   8.74463074  8.86773518  1.67922400
   1.47063718  6.13164499  1.03718419
   1.44459590 13.79935066  0.87315809
   7.19186719 11.44757981  7.65235993
   3.18533564  3.79090598  0.17252940
   2.79224717  1.50260198  1.61896398
   2.94070661  8.67257182  1.73915350
   4.27024019  6.11420569  0.81294238
   4.36809947 13.96860270  0.86646929
   5.81401228 11.44328742  0.04937070
  10.20946968  3.98816966  7.49728809
   5.83870083  1.15883695  1.66807478
   5.81015526  8.89993621  1.70947290
   7.55475192  6.30757174  0.70682341
   7.19186727 13.81639519  0.92528834
   7.33379211 11.20019341  2.51969619
   7.22115550  3.69003306  2.38534606
   7.21649459  1.20673395  4.13952423
   7.21649459  8.91308055  4.39494813
   8.80384641  6.34697593  3.43248149
   8.77120949 14.05842199  3.38848127
   1.47719313 11.49449610  2.57107012
   1.32162990  3.81727481  2.31058759
  10.24342037  1.20958366  4.22506386
  10.24342045  8.91023084  4.30940850
   3.06487518  6.11438507  3.37905098
   2.87364938 13.92214429  3.48368567
   4.37738299 11.33970141  2.56768627
   4.17547501  3.75148642  2.76786840
   4.30103188  1.11926803  4.24835142
   4.30103188  9.00054647  4.28612094
   5.80859619  6.48772842  3.42846182
   6.00367673 13.88705118  3.46636166
   6.00367668 11.37692383  5.11128660
   5.80859605  3.63208623  5.10601046
   5.81015527  1.21987829  6.82499938
   5.83870075  8.96097755  6.86639750
   7.22115544  6.42978159  6.14912622
   7.33379204 14.06378160  6.05795207
   8.77120944 11.20555302  5.18916699
   8.80384636  3.77283872  5.10199080
   8.74463066  1.25207932  6.85524829
   8.76452086  8.84426750  6.73661848
  10.06046241  6.30253984  6.22388469
  10.21602564 13.76947890  6.00657814
  11.61248173 11.34183072  5.09396259
   3.06487521  4.00542958  5.15542130
  11.67953911  1.44724269  6.79531879
  11.53107967  8.61721252  6.91550830
   4.17547495  6.36832823  5.76660388
   4.37738292 13.92427360  6.00996199
 


--------------------------------------------------------------------------------------------------------


 use serial FFT for orbitals x direction half grid
 k-point  1 :   0.0000 0.0000 0.0000  plane waves:   12833

 maximum and minimum number of plane-waves per node :     12833    12833

 maximum number of plane-waves:     12833
 maximum index in each direction: 
   IXMAX=   15   IYMAX=   27   IZMAX=   16
   IXMIN=    0   IYMIN=  -27   IZMIN=  -13

 The following grids will avoid any aliasing or wrap around errors in the Hartre
 e energy
  - symmetry arguments have not been applied
  - exchange correlation energies might require even more grid points
  - we recommend to set PREC=Normal or Accurate and rely on VASP defaults
 NGX is ok and might be reduce to    64
 NGY is ok and might be reduce to   112
 NGZ is ok and might be reduce to    60

 serial   3D FFT for wavefunctions
 parallel 3D FFT for charge:
    minimum data exchange during FFTs selected (reduces bandwidth)


 total amount of memory used by VASP MPI-rank0   154363. kBytes
=======================================================================

   base      :      30000. kBytes
   nonlr-proj:      42190. kBytes
   fftplans  :       9702. kBytes
   grid      :      59236. kBytes
   one-center:       1679. kBytes
   wavefun   :      11556. kBytes
 
     INWAV:  cpu time    0.0000: real time    0.0000
 Broyden mixing: mesh for mixing (old mesh)
   NGX = 31   NGY = 55   NGZ = 33
  (NGX  =128   NGY  =224   NGZ  =128)
  gives a total of  56265 points

 initial charge density was supplied:
 charge density of overlapping atoms calculated
 number of electron     692.0000000 magnetization      25.0000000
 keeping initial charge density in first step


--------------------------------------------------------------------------------------------------------


 Maximum index for non-local projection operator         7737
 Maximum index for augmentation-charges         1583 (set IRDMAX)


--------------------------------------------------------------------------------------------------------


 First call to EWALD:  gamma=   0.176
 Maximum number of real-space cells 3x 2x 3
 Maximum number of reciprocal cells 2x 4x 2

    FEWALD:  cpu time    0.0047: real time    0.0047


--------------------------------------- Iteration      1(   1)  ---------------------------------------


    POTLOK:  cpu time    0.2977: real time    0.3010
    SETDIJ:  cpu time    0.0386: real time    0.0387
     EDDAV:  cpu time    5.9177: real time    5.9317
    --------------------------------------------
      LOOP:  cpu time    6.2545: real time    6.2720

 eigenvalue-minimisations  :  1728
 total energy-change (2. order) : 0.1150178E+05  (-0.3579283E+05)
 number of electron     692.0000000 magnetization      25.0000000
 augmentation part      692.0000000 magnetization      25.0000000

 Free energy of the ion-electron system (eV)
  ---------------------------------------------------
  alpha Z        PSCENC =      3764.18156455
  Ewald energy   TEWEN  =    -44699.17470252
  -Hartree energ DENC   =    -12877.68906976
  -exchange      EXHF   =         0.00000000
  -V(xc)+E(xc)   XCENC  =      2612.59669637
  PAW double counting   =     44411.14072337   -45292.82968964
  entropy T*S    EENTRO =        -0.02784413
  eigenvalues    EBANDS =      6316.58317094
  atomic energy  EATOM  =     57267.00172934
  Solvation  Ediel_sol  =         0.00000000
  ---------------------------------------------------
  free energy    TOTEN  =     11501.78257851 eV

  energy without entropy =    11501.81042264  energy(sigma->0) =    11501.79650058


--------------------------------------------------------------------------------------------------------




--------------------------------------- Iteration      1(   2)  ---------------------------------------


     EDDAV:  cpu time    5.9633: real time    5.9775
    --------------------------------------------
      LOOP:  cpu time    5.9631: real time    5.9772

 eigenvalue-minimisations  :  1840
 total energy-change (2. order) :-0.1025366E+05  (-0.9721339E+04)
 number of electron     692.0000000 magnetization      25.0000000
 augmentation part      692.0000000 magnetization      25.0000000

 Free energy of the ion-electron system (eV)
  ---------------------------------------------------
  alpha Z        PSCENC =      3764.18156455
  Ewald energy   TEWEN  =    -44699.17470252
  -Hartree energ DENC   =    -12877.68906976
  -exchange      EXHF   =         0.00000000
  -V(xc)+E(xc)   XCENC  =      2612.59669637
  PAW double counting   =     44411.14072337   -45292.82968964
  entropy T*S    EENTRO =        -0.00953654
  eigenvalues    EBANDS =     -3937.09540123
  atomic energy  EATOM  =     57267.00172934
  Solvation  Ediel_sol  =         0.00000000
  ---------------------------------------------------
  free energy    TOTEN  =      1248.12231394 eV

  energy without entropy =     1248.13185048  energy(sigma->0) =     1248.12708221


--------------------------------------------------------------------------------------------------------




--------------------------------------- Iteration      1(   3)  ---------------------------------------


     EDDAV:  cpu time    6.6086: real time    6.6243
    --------------------------------------------
      LOOP:  cpu time    6.6086: real time    6.6243

 eigenvalue-minimisations  :  1968
 total energy-change (2. order) :-0.1945821E+04  (-0.1787726E+04)
 number of electron     692.0000000 magnetization      25.0000000
 augmentation part      692.0000000 magnetization      25.0000000

 Free energy of the ion-electron system (eV)
  ---------------------------------------------------
  alpha Z        PSCENC =      3764.18156455
  Ewald energy   TEWEN  =    -44699.17470252
  -Hartree energ DENC   =    -12877.68906976
  -exchange      EXHF   =         0.00000000
  -V(xc)+E(xc)   XCENC  =      2612.59669637
  PAW double counting   =     44411.14072337   -45292.82968964
  entropy T*S    EENTRO =        -0.03302277
  eigenvalues    EBANDS =     -5882.89315121
  atomic energy  EATOM  =     57267.00172934
  Solvation  Ediel_sol  =         0.00000000
  ---------------------------------------------------
  free energy    TOTEN  =      -697.69892227 eV

  energy without entropy =     -697.66589950  energy(sigma->0) =     -697.68241088


--------------------------------------------------------------------------------------------------------




--------------------------------------- Iteration      1(   4)  ---------------------------------------


     EDDAV:  cpu time    7.5118: real time    7.5297
    --------------------------------------------
      LOOP:  cpu time    7.5118: real time    7.5297

 eigenvalue-minimisations  :  2288
 total energy-change (2. order) :-0.2419453E+03  (-0.2330947E+03)
 number of electron     692.0000000 magnetization      25.0000000
 augmentation part      692.0000000 magnetization      25.0000000

 Free energy of the ion-electron system (eV)
  ---------------------------------------------------
  alpha Z        PSCENC =      3764.18156455
  Ewald energy   TEWEN  =    -44699.17470252
  -Hartree energ DENC   =    -12877.68906976
  -exchange      EXHF   =         0.00000000
  -V(xc)+E(xc)   XCENC  =      2612.59669637
  PAW double counting   =     44411.14072337   -45292.82968964
  entropy T*S    EENTRO =        -0.04556330
  eigenvalues    EBANDS =     -6124.82591727
  atomic energy  EATOM  =     57267.00172934
  Solvation  Ediel_sol  =         0.00000000
  ---------------------------------------------------
  free energy    TOTEN  =      -939.64422886 eV

  energy without entropy =     -939.59866556  energy(sigma->0) =     -939.62144721


--------------------------------------------------------------------------------------------------------




--------------------------------------- Iteration      1(   5)  ---------------------------------------


     EDDAV:  cpu time    9.7971: real time    9.8204
    CHARGE:  cpu time    0.4569: real time    0.4580
    MIXING:  cpu time    0.0048: real time    0.0048
    --------------------------------------------
      LOOP:  cpu time   10.2584: real time   10.2828

 eigenvalue-minimisations  :  3136
 total energy-change (2. order) :-0.2237164E+02  (-0.2207734E+02)
 number of electron     692.0000010 magnetization      24.3207216
 augmentation part      174.4673598 magnetization      20.5593501

 Broyden mixing:
  rms(total) = 0.13761E+02    rms(broyden)= 0.13759E+02
  rms(prec ) = 0.14707E+02
  weight for this iteration     100.00

 Free energy of the ion-electron system (eV)
  ---------------------------------------------------
  alpha Z        PSCENC =      3764.18156455
  Ewald energy   TEWEN  =    -44699.17470252
  -Hartree energ DENC   =    -12877.68906976
  -exchange      EXHF   =         0.00000000
  -V(xc)+E(xc)   XCENC  =      2612.59669637
  PAW double counting   =     44411.14072337   -45292.82968964
  entropy T*S    EENTRO =        -0.04223786
  eigenvalues    EBANDS =     -6147.20088517
  atomic energy  EATOM  =     57267.00172934
  Solvation  Ediel_sol  =         0.00000000
  ---------------------------------------------------
  free energy    TOTEN  =      -962.01587132 eV

  energy without entropy =     -961.97363346  energy(sigma->0) =     -961.99475239


--------------------------------------------------------------------------------------------------------




--------------------------------------- Iteration      1(   6)  ---------------------------------------


    POTLOK:  cpu time    0.2679: real time    0.2685
    SETDIJ:  cpu time    0.0413: real time    0.0413
     EDDAV:  cpu time    8.1277: real time    8.1470
    CHARGE:  cpu time    0.4645: real time    0.4656
    MIXING:  cpu time    0.0059: real time    0.0060
    --------------------------------------------
      LOOP:  cpu time    8.9073: real time    8.9284

 eigenvalue-minimisations  :  2512
 total energy-change (2. order) :-0.2838641E+02  (-0.1187427E+03)
 number of electron     692.0000017 magnetization      22.0463959
 augmentation part      196.0464406 magnetization      22.7421013

 Broyden mixing:
  rms(total) = 0.17118E+02    rms(broyden)= 0.17117E+02
  rms(prec ) = 0.17839E+02
  weight for this iteration     100.00

 eigenvalues of (default mixing * dielectric matrix)
  average eigenvalue GAMMA=   0.3119
  0.3119

 Free energy of the ion-electron system (eV)
  ---------------------------------------------------
  alpha Z        PSCENC =      3764.18156455
  Ewald energy   TEWEN  =    -44699.17470252
  -Hartree energ DENC   =    -12823.21676078
  -exchange      EXHF   =         0.00000000
  -V(xc)+E(xc)   XCENC  =      2644.08255413
  PAW double counting   =     57302.17729607   -58095.11549647
  entropy T*S    EENTRO =        -0.00002246
  eigenvalues    EBANDS =     -6350.33844160
  atomic energy  EATOM  =     57267.00172934
  Solvation  Ediel_sol  =         0.00000000
  ---------------------------------------------------
  free energy    TOTEN  =      -990.40227974 eV

  energy without entropy =     -990.40225728  energy(sigma->0) =     -990.40226851


--------------------------------------------------------------------------------------------------------




--------------------------------------- Iteration      1(   7)  ---------------------------------------


    POTLOK:  cpu time    0.2731: real time    0.2738
    SETDIJ:  cpu time    0.0417: real time    0.0417
     EDDAV:  cpu time    7.9490: real time    7.9679
    CHARGE:  cpu time    0.4616: real time    0.4627
    MIXING:  cpu time    0.0063: real time    0.0063
    --------------------------------------------
      LOOP:  cpu time    8.7317: real time    8.7524

 eigenvalue-minimisations  :  2464
 total energy-change (2. order) : 0.1378430E+03  (-0.3462070E+02)
 number of electron     692.0000015 magnetization      17.6064534
 augmentation part      188.9124843 magnetization      17.3282168

 Broyden mixing:
  rms(total) = 0.72845E+01    rms(broyden)= 0.72844E+01
  rms(prec ) = 0.79080E+01
  weight for this iteration     100.00

 eigenvalues of (default mixing * dielectric matrix)
  average eigenvalue GAMMA=   0.6994
  0.6994  0.6994

 Free energy of the ion-electron system (eV)
  ---------------------------------------------------
  alpha Z        PSCENC =      3764.18156455
  Ewald energy   TEWEN  =    -44699.17470252
  -Hartree energ DENC   =    -13000.93240986
  -exchange      EXHF   =         0.00000000
  -V(xc)+E(xc)   XCENC  =      2641.53934709
  PAW double counting   =     61572.12843429   -62485.45101242
  entropy T*S    EENTRO =        -0.03799346
  eigenvalues    EBANDS =     -5911.81422757
  atomic energy  EATOM  =     57267.00172934
  Solvation  Ediel_sol  =         0.00000000
  ---------------------------------------------------
  free energy    TOTEN  =      -852.55927055 eV

  energy without entropy =     -852.52127710  energy(sigma->0) =     -852.54027382


--------------------------------------------------------------------------------------------------------




--------------------------------------- Iteration      1(   8)  ---------------------------------------


    POTLOK:  cpu time    0.2705: real time    0.2711
    SETDIJ:  cpu time    0.0415: real time    0.0416
     EDDAV:  cpu time    7.7149: real time    7.7332
    CHARGE:  cpu time    0.4629: real time    0.4640
    MIXING:  cpu time    0.0056: real time    0.0056
    --------------------------------------------
      LOOP:  cpu time    8.4954: real time    8.5155

 eigenvalue-minimisations  :  2304
 total energy-change (2. order) :-0.1188907E+03  (-0.6494390E+02)
 number of electron     691.9999996 magnetization      15.9442597
 augmentation part      146.8248004 magnetization      12.2065321

 Broyden mixing:
  rms(total) = 0.17020E+02    rms(broyden)= 0.17019E+02
  rms(prec ) = 0.21494E+02
  weight for this iteration     100.00

 eigenvalues of (default mixing * dielectric matrix)
  average eigenvalue GAMMA=   0.5847
  1.0757  0.4823  0.1961

 Free energy of the ion-electron system (eV)
  ---------------------------------------------------
  alpha Z        PSCENC =      3764.18156455
  Ewald energy   TEWEN  =    -44699.17470252
  -Hartree energ DENC   =    -13095.54343928
  -exchange      EXHF   =         0.00000000
  -V(xc)+E(xc)   XCENC  =      2637.25504170
  PAW double counting   =     68820.86927291   -69831.04882703
  entropy T*S    EENTRO =        -0.06894915
  eigenvalues    EBANDS =     -5834.92165716
  atomic energy  EATOM  =     57267.00172934
  Solvation  Ediel_sol  =         0.00000000
  ---------------------------------------------------
  free energy    TOTEN  =      -971.44996665 eV

  energy without entropy =     -971.38101750  energy(sigma->0) =     -971.41549208


--------------------------------------------------------------------------------------------------------




--------------------------------------- Iteration      1(   9)  ---------------------------------------


    POTLOK:  cpu time    0.2439: real time    0.2445
    SETDIJ:  cpu time    0.0409: real time    0.0410
     EDDAV:  cpu time    7.8252: real time    7.8438
    CHARGE:  cpu time    0.4651: real time    0.4662
    MIXING:  cpu time    0.0069: real time    0.0070
    --------------------------------------------
      LOOP:  cpu time    8.5821: real time    8.6025

 eigenvalue-minimisations  :  2352
 total energy-change (2. order) : 0.8532523E+02  (-0.1696721E+02)
 number of electron     692.0000018 magnetization      14.4805376
 augmentation part      178.5134190 magnetization      13.4825697

 Broyden mixing:
  rms(total) = 0.97843E+01    rms(broyden)= 0.97838E+01
  rms(prec ) = 0.12104E+02
  weight for this iteration     100.00

 eigenvalues of (default mixing * dielectric matrix)
  average eigenvalue GAMMA=   0.5774
  1.3728  0.4041  0.4041  0.1283

 Free energy of the ion-electron system (eV)
  ---------------------------------------------------
  alpha Z        PSCENC =      3764.18156455
  Ewald energy   TEWEN  =    -44699.17470252
  -Hartree energ DENC   =    -12903.21567556
  -exchange      EXHF   =         0.00000000
  -V(xc)+E(xc)   XCENC  =      2628.27557410
  PAW double counting   =     71973.64373816   -72947.29808382
  entropy T*S    EENTRO =        -0.01749131
  eigenvalues    EBANDS =     -5969.52139398
  atomic energy  EATOM  =     57267.00172934
  Solvation  Ediel_sol  =         0.00000000
  ---------------------------------------------------
  free energy    TOTEN  =      -886.12474103 eV

  energy without entropy =     -886.10724972  energy(sigma->0) =     -886.11599538


--------------------------------------------------------------------------------------------------------




--------------------------------------- Iteration      1(  10)  ---------------------------------------


    POTLOK:  cpu time    0.2735: real time    0.2741
    SETDIJ:  cpu time    0.0418: real time    0.0419
     EDDAV:  cpu time    7.7592: real time    7.7776
    CHARGE:  cpu time    0.4640: real time    0.4651
    MIXING:  cpu time    0.0073: real time    0.0073
    --------------------------------------------
      LOOP:  cpu time    8.5457: real time    8.5660

 eigenvalue-minimisations  :  2400
 total energy-change (2. order) : 0.4243641E+02  (-0.7162474E+01)
 number of electron     692.0000012 magnetization       9.7721665
 augmentation part      186.7729931 magnetization       8.4907378

 Broyden mixing:
  rms(total) = 0.40480E+01    rms(broyden)= 0.40473E+01
  rms(prec ) = 0.45746E+01
  weight for this iteration     100.00

 eigenvalues of (default mixing * dielectric matrix)
  average eigenvalue GAMMA=   0.6596
  1.8900  0.5892  0.4831  0.2249  0.1109

 Free energy of the ion-electron system (eV)
  ---------------------------------------------------
  alpha Z        PSCENC =      3764.18156455
  Ewald energy   TEWEN  =    -44699.17470252
  -Hartree energ DENC   =    -12836.89120589
  -exchange      EXHF   =         0.00000000
  -V(xc)+E(xc)   XCENC  =      2625.93296348
  PAW double counting   =     74244.41525266   -75206.41943183
  entropy T*S    EENTRO =        -0.04905007
  eigenvalues    EBANDS =     -6002.68544869
  atomic energy  EATOM  =     57267.00172934
  Solvation  Ediel_sol  =         0.00000000
  ---------------------------------------------------
  free energy    TOTEN  =      -843.68832897 eV

  energy without entropy =     -843.63927890  energy(sigma->0) =     -843.66380394


--------------------------------------------------------------------------------------------------------




--------------------------------------- Iteration      1(  11)  ---------------------------------------


    POTLOK:  cpu time    0.2719: real time    0.2726
    SETDIJ:  cpu time    0.0411: real time    0.0412
     EDDAV:  cpu time    7.6747: real time    7.6929
    CHARGE:  cpu time    0.4607: real time    0.4618
    MIXING:  cpu time    0.0076: real time    0.0077
    --------------------------------------------
      LOOP:  cpu time    8.4561: real time    8.4761

 eigenvalue-minimisations  :  2352
 total energy-change (2. order) :-0.1816907E+01  (-0.5950200E+01)
 number of electron     692.0000010 magnetization       9.0437269
 augmentation part      181.3978784 magnetization       8.7531868

 Broyden mixing:
  rms(total) = 0.54594E+01    rms(broyden)= 0.54583E+01
  rms(prec ) = 0.69415E+01
  weight for this iteration     100.00

 eigenvalues of (default mixing * dielectric matrix)
  average eigenvalue GAMMA=   0.6061
  2.0100  0.5367  0.5367  0.2188  0.2188  0.1153

 Free energy of the ion-electron system (eV)
  ---------------------------------------------------
  alpha Z        PSCENC =      3764.18156455
  Ewald energy   TEWEN  =    -44699.17470252
  -Hartree energ DENC   =    -12875.77851336
  -exchange      EXHF   =         0.00000000
  -V(xc)+E(xc)   XCENC  =      2630.06017744
  PAW double counting   =     79786.72856348   -80772.02378364
  entropy T*S    EENTRO =        -0.07481816
  eigenvalues    EBANDS =     -5946.42545291
  atomic energy  EATOM  =     57267.00172934
  Solvation  Ediel_sol  =         0.00000000
  ---------------------------------------------------
  free energy    TOTEN  =      -845.50523579 eV

  energy without entropy =     -845.43041763  energy(sigma->0) =     -845.46782671


--------------------------------------------------------------------------------------------------------




--------------------------------------- Iteration      1(  12)  ---------------------------------------


    POTLOK:  cpu time    0.2771: real time    0.2777
    SETDIJ:  cpu time    0.0414: real time    0.0415
     EDDAV:  cpu time    7.4574: real time    7.4750
    CHARGE:  cpu time    0.4615: real time    0.4626
    MIXING:  cpu time    0.0079: real time    0.0079
    --------------------------------------------
      LOOP:  cpu time    8.2452: real time    8.2648

 eigenvalue-minimisations  :  2272
 total energy-change (2. order) : 0.3308549E+01  (-0.1718573E+02)
 number of electron     692.0000012 magnetization       6.7837664
 augmentation part      182.7654204 magnetization       6.7863319

 Broyden mixing:
  rms(total) = 0.31831E+01    rms(broyden)= 0.31812E+01
  rms(prec ) = 0.37783E+01
  weight for this iteration     100.00

 eigenvalues of (default mixing * dielectric matrix)
  average eigenvalue GAMMA=   0.6029
  2.1122  0.6344  0.6344  0.3483  0.2734  0.1169  0.1008

 Free energy of the ion-electron system (eV)
  ---------------------------------------------------
  alpha Z        PSCENC =      3764.18156455
  Ewald energy   TEWEN  =    -44699.17470252
  -Hartree energ DENC   =    -12875.73723579
  -exchange      EXHF   =         0.00000000
  -V(xc)+E(xc)   XCENC  =      2629.88751014
  PAW double counting   =     80395.10464965   -81382.23581698
  entropy T*S    EENTRO =        -0.02619919
  eigenvalues    EBANDS =     -5941.19818644
  atomic energy  EATOM  =     57267.00172934
  Solvation  Ediel_sol  =         0.00000000
  ---------------------------------------------------
  free energy    TOTEN  =      -842.19668723 eV

  energy without entropy =     -842.17048804  energy(sigma->0) =     -842.18358763


--------------------------------------------------------------------------------------------------------




--------------------------------------- Iteration      1(  13)  ---------------------------------------


    POTLOK:  cpu time    0.2707: real time    0.2714
    SETDIJ:  cpu time    0.0416: real time    0.0417
     EDDAV:  cpu time    7.9651: real time    7.9840
    CHARGE:  cpu time    0.4607: real time    0.4618
    MIXING:  cpu time    0.0081: real time    0.0082
    --------------------------------------------
      LOOP:  cpu time    8.7463: real time    8.7670

 eigenvalue-minimisations  :  2464
 total energy-change (2. order) : 0.1428319E+00  (-0.4928057E+01)
 number of electron     692.0000012 magnetization       5.9811557
 augmentation part      182.8430733 magnetization       4.1713320

 Broyden mixing:
  rms(total) = 0.47448E+01    rms(broyden)= 0.47440E+01
  rms(prec ) = 0.57486E+01
  weight for this iteration     100.00

 eigenvalues of (default mixing * dielectric matrix)
  average eigenvalue GAMMA=   0.5676
  2.1432  0.7046  0.7046  0.3442  0.2887  0.1148  0.1205  0.1205

 Free energy of the ion-electron system (eV)
  ---------------------------------------------------
  alpha Z        PSCENC =      3764.18156455
  Ewald energy   TEWEN  =    -44699.17470252
  -Hartree energ DENC   =    -12881.48752359
  -exchange      EXHF   =         0.00000000
  -V(xc)+E(xc)   XCENC  =      2630.29370042
  PAW double counting   =     81392.94055266   -82380.22462257
  entropy T*S    EENTRO =        -0.01771968
  eigenvalues    EBANDS =     -5935.56683389
  atomic energy  EATOM  =     57267.00172934
  Solvation  Ediel_sol  =         0.00000000
  ---------------------------------------------------
  free energy    TOTEN  =      -842.05385528 eV

  energy without entropy =     -842.03613560  energy(sigma->0) =     -842.04499544


--------------------------------------------------------------------------------------------------------




--------------------------------------- Iteration      1(  14)  ---------------------------------------


    POTLOK:  cpu time    0.2717: real time    0.2724
    SETDIJ:  cpu time    0.0414: real time    0.0415
     EDDAV:  cpu time    7.6125: real time    7.6306
    CHARGE:  cpu time    0.4247: real time    0.4257
    MIXING:  cpu time    0.0088: real time    0.0089
    --------------------------------------------
      LOOP:  cpu time    8.3592: real time    8.3790

 eigenvalue-minimisations  :  2304
 total energy-change (2. order) : 0.4325580E+01  (-0.7179034E+01)
 number of electron     692.0000012 magnetization       5.1894785
 augmentation part      184.0836453 magnetization       4.3683882

 Broyden mixing:
  rms(total) = 0.25023E+01    rms(broyden)= 0.25016E+01
  rms(prec ) = 0.31011E+01
  weight for this iteration     100.00

 eigenvalues of (default mixing * dielectric matrix)
  average eigenvalue GAMMA=   0.5291
  2.1412  0.7109  0.7109  0.3459  0.3459  0.1800  0.1341  0.1130  0.0798

 Free energy of the ion-electron system (eV)
  ---------------------------------------------------
  alpha Z        PSCENC =      3764.18156455
  Ewald energy   TEWEN  =    -44699.17470252
  -Hartree energ DENC   =    -12884.44399638
  -exchange      EXHF   =         0.00000000
  -V(xc)+E(xc)   XCENC  =      2630.18502546
  PAW double counting   =     81659.91489044   -82647.50377853
  entropy T*S    EENTRO =        -0.01251864
  eigenvalues    EBANDS =     -5927.87648929
  atomic energy  EATOM  =     57267.00172934
  Solvation  Ediel_sol  =         0.00000000
  ---------------------------------------------------
  free energy    TOTEN  =      -837.72827556 eV

  energy without entropy =     -837.71575692  energy(sigma->0) =     -837.72201624


--------------------------------------------------------------------------------------------------------




--------------------------------------- Iteration      1(  15)  ---------------------------------------


    POTLOK:  cpu time    0.2732: real time    0.2738
    SETDIJ:  cpu time    0.0412: real time    0.0414
     EDDAV:  cpu time    7.8913: real time    7.9100
    CHARGE:  cpu time    0.3846: real time    0.3855
    MIXING:  cpu time    0.0080: real time    0.0081
    --------------------------------------------
      LOOP:  cpu time    8.5984: real time    8.6188

 eigenvalue-minimisations  :  2384
 total energy-change (2. order) : 0.2651011E+01  (-0.6933529E+00)
 number of electron     692.0000012 magnetization       4.5427520
 augmentation part      183.9314352 magnetization       3.5402360

 Broyden mixing:
  rms(total) = 0.23111E+01    rms(broyden)= 0.23109E+01
  rms(prec ) = 0.28979E+01
  weight for this iteration     100.00

 eigenvalues of (default mixing * dielectric matrix)
  average eigenvalue GAMMA=   0.5267
  2.1427  0.6903  0.6903  0.4576  0.4576  0.2489  0.2489  0.1166  0.1068  0.1068

 Free energy of the ion-electron system (eV)
  ---------------------------------------------------
  alpha Z        PSCENC =      3764.18156455
  Ewald energy   TEWEN  =    -44699.17470252
  -Hartree energ DENC   =    -12888.07963295
  -exchange      EXHF   =         0.00000000
  -V(xc)+E(xc)   XCENC  =      2630.26184850
  PAW double counting   =     81802.62469697   -82789.38157009
  entropy T*S    EENTRO =        -0.02473010
  eigenvalues    EBANDS =     -5922.48646850
  atomic energy  EATOM  =     57267.00172934
  Solvation  Ediel_sol  =         0.00000000
  ---------------------------------------------------
  free energy    TOTEN  =      -835.07726479 eV

  energy without entropy =     -835.05253469  energy(sigma->0) =     -835.06489974


--------------------------------------------------------------------------------------------------------




--------------------------------------- Iteration      1(  16)  ---------------------------------------


    POTLOK:  cpu time    0.2657: real time    0.2663
    SETDIJ:  cpu time    0.0419: real time    0.0420
     EDDAV:  cpu time    8.1811: real time    8.2005
    CHARGE:  cpu time    0.4721: real time    0.4733
    MIXING:  cpu time    0.0093: real time    0.0094
    --------------------------------------------
      LOOP:  cpu time    8.9701: real time    8.9914

 eigenvalue-minimisations  :  2480
 total energy-change (2. order) : 0.1774547E+01  (-0.4472339E+00)
 number of electron     692.0000012 magnetization       3.5718075
 augmentation part      183.9194415 magnetization       2.7342643

 Broyden mixing:
  rms(total) = 0.20009E+01    rms(broyden)= 0.20008E+01
  rms(prec ) = 0.25339E+01
  weight for this iteration     100.00

 eigenvalues of (default mixing * dielectric matrix)
  average eigenvalue GAMMA=   0.5839
  2.1900  0.8561  0.8561  0.6806  0.6806  0.3909  0.2537  0.1850  0.1185  0.1058
  0.1058

 Free energy of the ion-electron system (eV)
  ---------------------------------------------------
  alpha Z        PSCENC =      3764.18156455
  Ewald energy   TEWEN  =    -44699.17470252
  -Hartree energ DENC   =    -12892.17620785
  -exchange      EXHF   =         0.00000000
  -V(xc)+E(xc)   XCENC  =      2630.31249456
  PAW double counting   =     81865.04631524   -82851.06121112
  entropy T*S    EENTRO =        -0.00507232
  eigenvalues    EBANDS =     -5917.42762791
  atomic energy  EATOM  =     57267.00172934
  Solvation  Ediel_sol  =         0.00000000
  ---------------------------------------------------
  free energy    TOTEN  =      -833.30271803 eV

  energy without entropy =     -833.29764571  energy(sigma->0) =     -833.30018187


--------------------------------------------------------------------------------------------------------




--------------------------------------- Iteration      1(  17)  ---------------------------------------


    POTLOK:  cpu time    0.2603: real time    0.2609
    SETDIJ:  cpu time    0.0408: real time    0.0408
     EDDAV:  cpu time    8.2641: real time    8.2837
    CHARGE:  cpu time    0.4647: real time    0.4658
    MIXING:  cpu time    0.0094: real time    0.0094
    --------------------------------------------
      LOOP:  cpu time    9.0393: real time    9.0606

 eigenvalue-minimisations  :  2560
 total energy-change (2. order) : 0.1880250E+01  (-0.3613637E+00)
 number of electron     692.0000013 magnetization       3.4541875
 augmentation part      182.9519508 magnetization       2.8156238

 Broyden mixing:
  rms(total) = 0.16681E+01    rms(broyden)= 0.16674E+01
  rms(prec ) = 0.20730E+01
  weight for this iteration     100.00

 eigenvalues of (default mixing * dielectric matrix)
  average eigenvalue GAMMA=   0.5522
  2.1918  0.8533  0.8533  0.6935  0.6935  0.3668  0.2654  0.1900  0.1900  0.1171
  0.1059  0.1059

 Free energy of the ion-electron system (eV)
  ---------------------------------------------------
  alpha Z        PSCENC =      3764.18156455
  Ewald energy   TEWEN  =    -44699.17470252
  -Hartree energ DENC   =    -12898.25879710
  -exchange      EXHF   =         0.00000000
  -V(xc)+E(xc)   XCENC  =      2630.55965752
  PAW double counting   =     81964.57378165   -82949.24667994
  entropy T*S    EENTRO =        -0.06407097
  eigenvalues    EBANDS =     -5910.99495093
  atomic energy  EATOM  =     57267.00172934
  Solvation  Ediel_sol  =         0.00000000
  ---------------------------------------------------
  free energy    TOTEN  =      -831.42246839 eV

  energy without entropy =     -831.35839742  energy(sigma->0) =     -831.39043291


--------------------------------------------------------------------------------------------------------




--------------------------------------- Iteration      1(  18)  ---------------------------------------


    POTLOK:  cpu time    0.2608: real time    0.2615
    SETDIJ:  cpu time    0.0406: real time    0.0407
     EDDAV:  cpu time    8.0073: real time    8.0263
    CHARGE:  cpu time    0.4632: real time    0.4643
    MIXING:  cpu time    0.0094: real time    0.0094
    --------------------------------------------
      LOOP:  cpu time    8.7813: real time    8.8021

 eigenvalue-minimisations  :  2464
 total energy-change (2. order) :-0.8891955E-01  (-0.6839840E+00)
 number of electron     692.0000012 magnetization       3.1802055
 augmentation part      183.4427128 magnetization       2.3211125

 Broyden mixing:
  rms(total) = 0.16168E+01    rms(broyden)= 0.16159E+01
  rms(prec ) = 0.19703E+01
  weight for this iteration     100.00

 eigenvalues of (default mixing * dielectric matrix)
  average eigenvalue GAMMA=   0.5226
  2.1875  0.8205  0.8205  0.7135  0.7135  0.3269  0.3269  0.2002  0.2002  0.1531
  0.1179  0.1065  0.1065

 Free energy of the ion-electron system (eV)
  ---------------------------------------------------
  alpha Z        PSCENC =      3764.18156455
  Ewald energy   TEWEN  =    -44699.17470252
  -Hartree energ DENC   =    -12897.23251055
  -exchange      EXHF   =         0.00000000
  -V(xc)+E(xc)   XCENC  =      2630.42112440
  PAW double counting   =     81979.84653468   -82964.14003502
  entropy T*S    EENTRO =        -0.05139363
  eigenvalues    EBANDS =     -5912.36369919
  atomic energy  EATOM  =     57267.00172934
  Solvation  Ediel_sol  =         0.00000000
  ---------------------------------------------------
  free energy    TOTEN  =      -831.51138794 eV

  energy without entropy =     -831.45999431  energy(sigma->0) =     -831.48569112


--------------------------------------------------------------------------------------------------------




--------------------------------------- Iteration      1(  19)  ---------------------------------------


    POTLOK:  cpu time    0.2717: real time    0.2724
    SETDIJ:  cpu time    0.0408: real time    0.0409
     EDDAV:  cpu time    7.7643: real time    7.7827
    CHARGE:  cpu time    0.4628: real time    0.4639
    MIXING:  cpu time    0.0094: real time    0.0094
    --------------------------------------------
      LOOP:  cpu time    8.5490: real time    8.5692

 eigenvalue-minimisations  :  2400
 total energy-change (2. order) : 0.1943602E+00  (-0.5252441E+00)
 number of electron     692.0000013 magnetization       2.8234661
 augmentation part      183.0337709 magnetization       2.1229043

 Broyden mixing:
  rms(total) = 0.16043E+01    rms(broyden)= 0.16035E+01
  rms(prec ) = 0.20138E+01
  weight for this iteration     100.00

 eigenvalues of (default mixing * dielectric matrix)
  average eigenvalue GAMMA=   0.5426
  2.1626  0.8937  0.8937  0.6893  0.6893  0.5100  0.5100  0.3712  0.2511  0.1921
  0.1194  0.1054  0.1054  0.1038

 Free energy of the ion-electron system (eV)
  ---------------------------------------------------
  alpha Z        PSCENC =      3764.18156455
  Ewald energy   TEWEN  =    -44699.17470252
  -Hartree energ DENC   =    -12898.80127233
  -exchange      EXHF   =         0.00000000
  -V(xc)+E(xc)   XCENC  =      2630.45178495
  PAW double counting   =     81974.52905541   -82958.22792394
  entropy T*S    EENTRO =        -0.06203000
  eigenvalues    EBANDS =     -5911.21523317
  atomic energy  EATOM  =     57267.00172934
  Solvation  Ediel_sol  =         0.00000000
  ---------------------------------------------------
  free energy    TOTEN  =      -831.31702772 eV

  energy without entropy =     -831.25499771  energy(sigma->0) =     -831.28601271


--------------------------------------------------------------------------------------------------------




--------------------------------------- Iteration      1(  20)  ---------------------------------------


    POTLOK:  cpu time    0.2714: real time    0.2720
    SETDIJ:  cpu time    0.0409: real time    0.0410
     EDDAV:  cpu time    7.8069: real time    7.8254
    CHARGE:  cpu time    0.4621: real time    0.4631
    MIXING:  cpu time    0.0101: real time    0.0101
    --------------------------------------------
      LOOP:  cpu time    8.5914: real time    8.6118

 eigenvalue-minimisations  :  2416
 total energy-change (2. order) : 0.4298943E+00  (-0.2792738E+00)
 number of electron     692.0000012 magnetization       2.0721599
 augmentation part      183.2737180 magnetization       1.3930528

 Broyden mixing:
  rms(total) = 0.13505E+01    rms(broyden)= 0.13500E+01
  rms(prec ) = 0.16841E+01
  weight for this iteration     100.00

 eigenvalues of (default mixing * dielectric matrix)
  average eigenvalue GAMMA=   0.5517
  2.1869  1.0467  1.0467  0.6684  0.6684  0.5953  0.5953  0.3652  0.2623  0.2042
  0.2042  0.1190  0.1054  0.1054  0.1020

 Free energy of the ion-electron system (eV)
  ---------------------------------------------------
  alpha Z        PSCENC =      3764.18156455
  Ewald energy   TEWEN  =    -44699.17470252
  -Hartree energ DENC   =    -12900.97061816
  -exchange      EXHF   =         0.00000000
  -V(xc)+E(xc)   XCENC  =      2630.40816946
  PAW double counting   =     81926.70915794   -82909.47717642
  entropy T*S    EENTRO =        -0.07222533
  eigenvalues    EBANDS =     -5909.49303229
  atomic energy  EATOM  =     57267.00172934
  Solvation  Ediel_sol  =         0.00000000
  ---------------------------------------------------
  free energy    TOTEN  =      -830.88713343 eV

  energy without entropy =     -830.81490810  energy(sigma->0) =     -830.85102077


--------------------------------------------------------------------------------------------------------




--------------------------------------- Iteration      1(  21)  ---------------------------------------


    POTLOK:  cpu time    0.2748: real time    0.2755
    SETDIJ:  cpu time    0.0413: real time    0.0414
     EDDAV:  cpu time    7.8399: real time    7.8586
    CHARGE:  cpu time    0.4650: real time    0.4661
    MIXING:  cpu time    0.0116: real time    0.0116
[...]
      7.41049      5.06019      4.32699         0.245146     -0.000000     -0.000000
      8.78380     10.08012      3.45124         0.015588     -0.034711     -0.021270
     10.31595      5.06019      4.32699         0.034858     -0.000000     -0.000000
      4.25503     14.96883      2.64497         0.029035     -0.069119      0.010394
      5.82813     10.14161      3.50414        -0.051605      0.012341     -0.018934
      5.82813     15.10268      5.21834        -0.051605     -0.012341      0.018934
      6.03209      5.21110      6.28117         0.294376     -0.142824     -0.167181
      8.78380      0.04026      5.20274         0.015588      0.034711      0.021270
      4.25503     10.27546      6.07750         0.029035      0.069119     -0.010394
      4.36822      7.62786      7.69399        -0.028635     -0.044072      0.023442
      8.75395     12.53278      1.81226         0.008100      0.018845      0.007645
      1.42648      2.69022      0.70825         0.003431      0.048876     -0.082805
      2.86360      7.51493      0.15666        -0.043704      0.013557      0.088020
      2.97028     12.66801      1.81624        -0.002882      0.010743      0.015866
      4.36822      2.49252      0.95998        -0.028635      0.044072     -0.023442
      5.79772      7.39617      0.19825         0.003431     -0.048876      0.082805
      5.81801     12.56042      1.82769         0.034480     -0.018322     -0.021687
      7.23484      2.57146      0.74983        -0.043704     -0.013557     -0.088020
      7.19531      7.69505      2.80722        -0.031033     -0.030693      0.008065
      7.32087     12.62215      4.36124         0.054319     -0.000000     -0.000000
      8.73217      2.54997      3.50844         0.027680      0.024947     -0.033655
     10.11558      7.56065      2.65793        -0.021971     -0.000069      0.024773
     10.16007     12.62215      4.36124         0.022486     -0.000000     -0.000000
      2.94412      2.42669      3.42623         0.024796      0.008321     -0.038379
      4.45027      7.66228      2.68596        -0.071666      0.045199     -0.017359
      4.51144     12.62215      4.36124        -0.021641      0.000000      0.000000
      5.79448      2.44697      3.45827        -0.015521      0.045485      0.010996
      5.79448      7.67340      5.19571        -0.015521     -0.045485     -0.010996
      5.81801     12.68387      6.89478         0.034480      0.018322      0.021687
      7.19531      2.42532      5.84676        -0.031033      0.030693     -0.008065
      8.73217      7.57040      5.14554         0.027680     -0.024947      0.033655
      8.75395     12.71151      6.91021         0.008100     -0.018845     -0.007645
     10.11558      2.55972      5.99605        -0.021971      0.000069     -0.024773
      2.94412      7.69369      5.22775         0.024796     -0.008321      0.038379
     11.71275     12.57628      6.90623        -0.002882     -0.010743     -0.015866
      4.45027      2.45810      5.96801        -0.071666     -0.045199      0.017359
      8.74615     11.29169      0.07164         0.013986     -0.004106      0.013772
      8.58276      3.96925      0.09148        -0.033702     -0.006936     -0.025130
      8.73709      1.14962      1.77136        -0.094338     -0.209474     -0.058829
      8.75457      8.85051      1.73858        -0.002208     -0.051825      0.010722
      1.42419      6.13098      1.17248        -0.064701      0.064119      0.017805
      1.46335     13.81860      0.93516         0.022692      0.035898      0.020969
      7.24134     11.40601      7.72150         0.085987     -0.183942     -0.044701
      3.09424      3.85539      0.16561        -0.085097      0.049011     -0.047678
      2.73229      1.50740      1.57973        -0.051426      0.024863     -0.031857
      2.94678      8.66473      1.78669        -0.006718     -0.057513      0.021716
      4.21152      6.11714      0.81501        -0.033702      0.006936      0.025130
      4.37491     13.91862      0.90335         0.013986      0.004106     -0.013772
      5.83459     11.39171      0.03984         0.022692     -0.035898     -0.020969
     10.16665      3.98939      7.48150        -0.064701     -0.064119     -0.017805
      5.81602      1.10072      1.68533         0.020678     -0.064494     -0.014388
      5.82059      8.89284      1.75656         0.009404     -0.082050     -0.053472
      7.46547      6.23100      0.74089        -0.085097     -0.049011      0.047678
      7.24134     13.83829      1.00097         0.085987      0.183942      0.044701
      7.32110     11.15419      2.54852        -0.014168     -0.026586      0.011259
      7.30901      3.50925      2.36109         0.005960     -0.091647     -0.055149
      7.25499      1.19150      4.18775         0.030759      0.144857     -0.000713
      7.25499      8.92888      4.46623         0.030759     -0.144857      0.000713
      8.74525      6.25621      3.48358         0.074271      0.026081     -0.032580
      8.78193     14.05077      3.41598        -0.006559      0.012381     -0.059772
      1.47084     11.44197      2.62806         0.006272      0.062008     -0.000084
      1.35085      3.81229      2.34804        -0.009156     -0.063627     -0.059496
     10.23940      1.21100      4.25423        -0.002870      0.022452     -0.050810
     10.23940      8.90938      4.39974        -0.002870     -0.022452      0.050810
      3.05814      6.12345      3.45383        -0.007461     -0.012836     -0.001119
      2.87379     13.88867      3.56259        -0.013298     -0.017259     -0.013637
      4.37982     11.37150      2.59950        -0.033010      0.078137     -0.013955
      4.22019      3.79084      2.74212         0.007812      0.110315     -0.034129
      4.31801      1.05716      4.26425         0.029245     -0.040804     -0.047927
      4.31801      9.06321      4.38973         0.029245      0.040804      0.047927
      5.74098      6.53247      3.50675        -0.164704      0.054163     -0.123584
      6.00249     13.84989      3.52900        -0.000232     -0.106299     -0.059991
      6.00249     11.39441      5.19348        -0.000232      0.106299      0.059991
      5.74098      3.58791      5.14723        -0.164704     -0.054163      0.123584
      5.82059      1.22753      6.89742         0.009404      0.082050      0.053472
      5.81602      9.01965      6.96864         0.020678      0.064494      0.014388
      7.30901      6.61112      6.29289         0.005960      0.091647      0.055149
      7.32110     14.09010      6.17396        -0.014168      0.026586     -0.011259
      8.78193     11.19352      5.30650        -0.006559     -0.012381      0.059772
      8.74525      3.86417      5.17040         0.074271     -0.026081      0.032580
      8.75457      1.26987      6.91540        -0.002208      0.051825     -0.010722
      8.73709      8.97075      6.88262        -0.094338      0.209474      0.058829
     10.09332      6.30808      6.30594        -0.009156      0.063627      0.059496
     10.21330     13.80232      6.09441         0.006272     -0.062008      0.000084
     11.61626     11.35563      5.15989        -0.013298      0.017259      0.013637
      3.05814      3.99693      5.20014        -0.007461      0.012836      0.001119
     11.68925      1.45564      6.86729        -0.006718      0.057513     -0.021716
     11.47475      8.61297      7.07425        -0.051426     -0.024863      0.031857
      4.22019      6.32954      5.91186         0.007812     -0.110315      0.034129
      4.37982     13.87280      6.12298        -0.033010     -0.078137      0.013955
 -----------------------------------------------------------------------------------
    total drift:                               -0.012487     -0.003324     -0.000714


--------------------------------------------------------------------------------------------------------



  FREE ENERGIE OF THE ION-ELECTRON SYSTEM (eV)
  ---------------------------------------------------
  free  energy   TOTEN  =      -832.6996378599 eV

  energy  without entropy=     -832.6664326036  energy(sigma->0) =     -832.68303523
 
 d Force = 0.1481816E-01[ 0.143E-01, 0.153E-01]  d Energy = 0.1423106E-01 0.587E-03
 d Force =-0.4461077E+01[-0.448E+01,-0.444E+01]  d Ewald  = 0.3827428E+01-0.829E+01


--------------------------------------------------------------------------------------------------------


    POTLOK:  cpu time    0.3167: real time    0.3175


--------------------------------------------------------------------------------------------------------


 Quasi-Newton relaxation of ions (Broydens 2nd method)
  g(Force)  = 0.604E-01   g(Stress)= 0.396E-02

 retain information from N=  1 steps
 eigenvalues of (default step * inverse Hessian matrix)
  average eigenvalue of G=   0.4296
 eigenvalue spectrum of G is  0.4296


--------------------------------------------------------------------------------------------------------


     LOOP+:  cpu time   89.3505: real time   89.6668
    4ORBIT:  cpu time    0.0000: real time    0.0000

volume of typ            1:    16.7 %

volume of typ            2:     6.2 %

volume of typ            3:    20.5 %

volume of typ            4:     8.6 %
 
total charge     
 
# of ion       s       p       d       tot
------------------------------------------
    1        0.221   6.069   2.242   8.532
    2        0.273   6.149   2.005   8.427
    3        0.229   6.083   2.218   8.529
    4        0.249   6.110   2.077   8.437
    5        0.287   6.181   1.950   8.418
    6        0.221   6.069   2.242   8.532
    7        0.229   6.083   2.218   8.529
    8        0.249   6.110   2.077   8.437
    9        0.281   6.162   1.981   8.425
   10        0.248   6.107   2.109   8.464
   11        0.237   6.096   2.166   8.498
   12        0.275   6.144   2.075   8.494
   13        0.281   6.162   1.981   8.425
   14        0.273   6.149   2.005   8.427
   15        0.248   6.107   2.109   8.464
   16        0.237   6.096   2.166   8.498
   17        0.287   6.181   1.950   8.418
   18        0.244   0.231   8.153   8.628
   19        0.230   0.235   8.060   8.525
   20        0.191   0.209   7.995   8.394
   21        0.184   0.190   8.070   8.443
   22        0.209   0.210   8.042   8.462
   23        0.195   0.220   7.953   8.368
   24        0.195   0.220   7.953   8.368
   25        0.244   0.231   8.153   8.628
   26        0.191   0.209   7.995   8.394
   27        0.209   0.210   8.042   8.462
   28        2.071   0.248   0.094   2.413
   29        2.077   0.263   0.103   2.443
   30        2.084   0.282   0.110   2.476
   31        2.094   0.310   0.126   2.530
   32        2.080   0.271   0.107   2.458
   33        2.071   0.248   0.094   2.413
   34        2.084   0.282   0.110   2.476
   35        2.075   0.256   0.102   2.433
   36        2.094   0.310   0.126   2.530
   37        2.071   0.241   0.091   2.403
   38        2.072   0.243   0.091   2.406
   39        2.070   0.241   0.091   2.403
   40        2.073   0.250   0.098   2.422
   41        2.072   0.249   0.097   2.418
   42        2.076   0.260   0.099   2.436
   43        2.088   0.288   0.116   2.492
   44        2.064   0.223   0.086   2.372
   45        2.074   0.255   0.097   2.426
   46        2.074   0.255   0.097   2.426
   47        2.075   0.256   0.102   2.433
   48        2.071   0.241   0.091   2.403
   49        2.070   0.241   0.091   2.403
   50        2.076   0.263   0.103   2.443
   51        2.073   0.250   0.098   2.422
   52        2.076   0.260   0.099   2.436
   53        2.080   0.271   0.107   2.458
   54        2.088   0.288   0.116   2.492
   55        1.243   2.838   0.006   4.087
   56        1.250   2.851   0.005   4.106
   57        1.248   2.848   0.006   4.101
   58        1.245   2.830   0.005   4.081
   59        1.251   2.849   0.005   4.104
   60        1.244   2.837   0.007   4.088
   61        1.245   2.843   0.006   4.094
   62        1.252   2.856   0.005   4.113
   63        1.250   2.840   0.006   4.095
   64        1.243   2.836   0.007   4.087
   65        1.250   2.851   0.005   4.106
   66        1.243   2.838   0.006   4.087
   67        1.244   2.837   0.007   4.088
   68        1.251   2.849   0.005   4.104
   69        1.247   2.840   0.005   4.092
   70        1.244   2.842   0.005   4.091
   71        1.252   2.856   0.005   4.113
   72        1.245   2.843   0.006   4.094
   73        1.244   2.822   0.005   4.071
   74        1.249   2.842   0.007   4.098
   75        1.252   2.836   0.005   4.094
   76        1.252   2.836   0.005   4.094
   77        1.248   2.825   0.006   4.079
   78        1.246   2.844   0.005   4.095
   79        1.247   2.837   0.006   4.090
   80        1.251   2.852   0.005   4.108
   81        1.242   2.835   0.005   4.082
   82        1.242   2.835   0.005   4.082
   83        1.248   2.846   0.006   4.100
   84        1.245   2.840   0.006   4.091
   85        1.245   2.840   0.006   4.091
   86        1.248   2.848   0.005   4.102
   87        1.245   2.821   0.005   4.071
   88        1.245   2.821   0.005   4.071
   89        1.248   2.837   0.005   4.090
   90        1.253   2.835   0.005   4.093
   91        1.253   2.835   0.005   4.093
   92        1.248   2.837   0.005   4.090
   93        1.244   2.842   0.005   4.091
   94        1.247   2.840   0.005   4.092
   95        1.249   2.842   0.007   4.098
   96        1.244   2.822   0.005   4.071
   97        1.246   2.844   0.005   4.095
   98        1.248   2.825   0.006   4.079
   99        1.245   2.830   0.005   4.081
  100        1.248   2.848   0.006   4.101
  101        1.251   2.852   0.005   4.108
  102        1.247   2.837   0.006   4.090
  103        1.245   2.840   0.006   4.091
  104        1.248   2.846   0.006   4.100
  105        1.243   2.836   0.007   4.087
  106        1.250   2.840   0.006   4.095
  107        1.248   2.848   0.005   4.102
  108        1.245   2.840   0.006   4.091
--------------------------------------------------
tot         129.84  266.61  119.03  515.48
 
magnetization (x)
 
# of ion       s       p       d       tot
------------------------------------------
    1        0.000   0.000  -0.008  -0.007
    2       -0.001  -0.001  -0.025  -0.026
    3       -0.000   0.000  -0.016  -0.016
    4       -0.000  -0.002  -0.098  -0.100
    5        0.000   0.000   0.008   0.008
    6        0.000   0.000  -0.008  -0.007
    7       -0.000   0.000  -0.016  -0.016
    8       -0.000  -0.002  -0.098  -0.100
    9        0.000   0.000  -0.005  -0.004
   10       -0.002  -0.003  -0.118  -0.123
   11       -0.000   0.000  -0.013  -0.014
   12       -0.000  -0.001  -0.010  -0.011
   13        0.000   0.000  -0.005  -0.004
   14       -0.001  -0.001  -0.025  -0.026
   15       -0.002  -0.003  -0.118  -0.123
   16       -0.000   0.000  -0.013  -0.014
   17        0.000   0.000   0.008   0.008
   18       -0.000  -0.001   0.063   0.062
   19        0.000   0.002   0.794   0.796
   20       -0.008  -0.001  -1.252  -1.261
   21       -0.001  -0.002  -0.951  -0.954
   22        0.001   0.001   0.900   0.902
   23       -0.003  -0.001  -1.387  -1.391
   24       -0.003  -0.001  -1.387  -1.391
   25       -0.000  -0.001   0.063   0.062
   26       -0.008  -0.001  -1.252  -1.261
   27        0.001   0.001   0.900   0.902
   28       -0.001  -0.002  -0.001  -0.003
   29       -0.001  -0.002  -0.001  -0.003
   30       -0.001  -0.002  -0.001  -0.004
   31       -0.000   0.001   0.000   0.001
   32       -0.002  -0.004  -0.001  -0.007
   33       -0.001  -0.002  -0.001  -0.003
   34       -0.001  -0.002  -0.001  -0.004
   35       -0.001  -0.003  -0.001  -0.005
   36       -0.000   0.001   0.000   0.001
   37       -0.000  -0.000  -0.000  -0.001
   38        0.000   0.001   0.000   0.002
   39       -0.001  -0.002  -0.000  -0.003
   40        0.001   0.003   0.001   0.004
   41        0.001   0.005   0.001   0.008
   42       -0.002  -0.003  -0.001  -0.006
   43        0.001   0.002   0.000   0.003
   44        0.000   0.000   0.000   0.000
   45       -0.000  -0.001  -0.000  -0.002
   46       -0.000  -0.001  -0.000  -0.002
   47       -0.001  -0.003  -0.001  -0.005
   48       -0.000  -0.000  -0.000  -0.001
   49       -0.001  -0.002  -0.000  -0.003
   50       -0.001  -0.002  -0.001  -0.003
   51        0.001   0.003   0.001   0.004
   52       -0.002  -0.003  -0.001  -0.006
   53       -0.002  -0.004  -0.001  -0.007
   54        0.001   0.002   0.000   0.003
   55        0.003   0.026   0.000   0.029
   56       -0.000  -0.001  -0.000  -0.001
   57       -0.000   0.001  -0.000   0.000
   58       -0.004  -0.059  -0.000  -0.063
   59        0.000   0.002  -0.000   0.002
   60       -0.000  -0.007  -0.000  -0.007
   61       -0.000  -0.000  -0.000  -0.000
   62       -0.000  -0.001  -0.000  -0.001
   63       -0.001  -0.024  -0.000  -0.025
   64       -0.000  -0.001  -0.000  -0.002
   65       -0.000  -0.001  -0.000  -0.001
   66        0.003   0.026   0.000   0.029
   67       -0.000  -0.007  -0.000  -0.007
   68        0.000   0.002  -0.000   0.002
   69        0.004   0.024   0.000   0.028
   70       -0.004  -0.047  -0.000  -0.051
   71       -0.000  -0.001  -0.000  -0.001
   72       -0.000  -0.000  -0.000  -0.000
   73       -0.008  -0.110  -0.000  -0.118
   74       -0.000  -0.002  -0.000  -0.002
   75       -0.006  -0.070  -0.000  -0.076
   76       -0.006  -0.070  -0.000  -0.076
   77        0.000   0.018  -0.000   0.018
   78       -0.004  -0.053  -0.000  -0.058
   79       -0.003  -0.034  -0.000  -0.037
   80        0.000  -0.003   0.000  -0.003
   81       -0.003  -0.040  -0.000  -0.043
   82       -0.003  -0.040  -0.000  -0.043
   83       -0.003  -0.029  -0.000  -0.033
   84        0.004   0.037   0.000   0.041
   85       -0.004  -0.049  -0.000  -0.053
   86       -0.000  -0.000  -0.000  -0.000
   87        0.000   0.000  -0.000   0.001
   88        0.000   0.000  -0.000   0.001
   89        0.002   0.017   0.000   0.019
   90       -0.004  -0.036  -0.000  -0.040
   91       -0.004  -0.036  -0.000  -0.040
   92        0.002   0.017   0.000   0.019
   93       -0.004  -0.047  -0.000  -0.051
   94        0.004   0.024   0.000   0.028
   95       -0.000  -0.002  -0.000  -0.002
   96       -0.008  -0.110  -0.000  -0.118
   97       -0.004  -0.053  -0.000  -0.058
   98        0.000   0.018  -0.000   0.018
   99       -0.004  -0.059  -0.000  -0.063
  100       -0.000   0.001  -0.000   0.000
  101        0.000  -0.003   0.000  -0.003
  102       -0.003  -0.034  -0.000  -0.037
  103        0.004   0.037   0.000   0.041
  104       -0.003  -0.029  -0.000  -0.033
  105       -0.000  -0.001  -0.000  -0.002
  106       -0.001  -0.024  -0.000  -0.025
  107       -0.000  -0.000  -0.000  -0.000
  108       -0.004  -0.049  -0.000  -0.053
--------------------------------------------------
tot          -0.10   -0.92   -4.08   -5.10
 

 total amount of memory used by VASP MPI-rank0   154363. kBytes
=======================================================================

   base      :      30000. kBytes
   nonlr-proj:      42190. kBytes
   fftplans  :       9702. kBytes
   grid      :      59236. kBytes
   one-center:       1679. kBytes
   wavefun   :      11556. kBytes
 
  
  
 General timing and accounting informations for this job:
 ========================================================
  
                  Total CPU time used (sec):     3722.272
                            User time (sec):     3706.981
                          System time (sec):       15.291
                         Elapsed time (sec):     3737.545
  
                   Maximum memory used (kb):      217184.
                   Average memory used (kb):           0.
  
                          Minor page faults:        39762
                          Major page faults:           15
                 Voluntary context switches:         1350
