 vasp.5.4.4.18Apr17-6-g9f103f2a35 (build May 12 2020 05:39:39) gamma-only       
  
 MD_VERSION_INFO: Compiled 2020-05-12T12:39:39-UTC in devlin.sd.materialsdesign.
 com:/home/medea2/data/build/wwolf/vasp-gpu5.4.4/13047/x86_64/src/src/build/gam 
 from svn 13047
 
 This VASP executable licensed from Materials Design, Inc.
 
 executed on                        Lin64 date 2023.04.03  05:16:17
 running on   16 total cores
 distrk:  each k-point on   16 cores,    1 groups
 distr:  one band on NCORES_PER_BAND=   1 cores,   16 groups


--------------------------------------------------------------------------------------------------------


 INCAR:
 POTCAR:    PAW_PBE Ta_pv 07Sep2000               
 POTCAR:    PAW_PBE Ni 02Aug2007                  
 POTCAR:    PAW_PBE Li_sv 10Sep2004               
 POTCAR:    PAW_PBE O 08Apr2002                   

 ----------------------------------------------------------------------------- 
|                                                                             |
|           W    W    AA    RRRRR   N    N  II  N    N   GGGG   !!!           |
|           W    W   A  A   R    R  NN   N  II  NN   N  G    G  !!!           |
|           W    W  A    A  R    R  N N  N  II  N N  N  G       !!!           |
|           W WW W  AAAAAA  RRRRR   N  N N  II  N  N N  G  GGG   !            |
|           WW  WW  A    A  R   R   N   NN  II  N   NN  G    G                |
|           W    W  A    A  R    R  N    N  II  N    N   GGGG   !!!           |
|                                                                             |
|      For optimal performance we recommend to set                            |
|        NCORE= 4 - approx SQRT( number of cores)                             |
|      NCORE specifies how many cores store one orbital (NPAR=cpu/NCORE).     |
|      This setting can  greatly improve the performance of VASP for DFT.     |
|      The default,   NCORE=1            might be grossly inefficient         |
|      on modern multi-core architectures or massively parallel machines.     |
|      Do your own testing !!!!                                               |
|      Unfortunately you need to use the default for GW and RPA calculations. |
|      (for HF NCORE is supported but not extensively tested yet)             |
|                                                                             |
 ----------------------------------------------------------------------------- 

 POTCAR:    PAW_PBE Ta_pv 07Sep2000               
  local pseudopotential read in
  partial core-charges read in
  partial kinetic energy density read in
  atomic valenz-charges read in
  non local Contribution for L=           1  read in
    real space projection operators read in
  non local Contribution for L=           1  read in
    real space projection operators read in
  non local Contribution for L=           2  read in
    real space projection operators read in
  non local Contribution for L=           2  read in
    real space projection operators read in
  non local Contribution for L=           0  read in
    real space projection operators read in
  non local Contribution for L=           0  read in
    real space projection operators read in
    PAW grid and wavefunctions read in
 
   number of l-projection  operators is LMAX  =           6
   number of lm-projection operators is LMMAX =          18
 
 POTCAR:    PAW_PBE Ni 02Aug2007                  
  local pseudopotential read in
  partial core-charges read in
  partial kinetic energy density read in
  atomic valenz-charges read in
  non local Contribution for L=           2  read in
    real space projection operators read in
  non local Contribution for L=           2  read in
    real space projection operators read in
  non local Contribution for L=           0  read in
    real space projection operators read in
  non local Contribution for L=           0  read in
    real space projection operators read in
  non local Contribution for L=           1  read in
    real space projection operators read in
  non local Contribution for L=           1  read in
    real space projection operators read in
    PAW grid and wavefunctions read in
 
   number of l-projection  operators is LMAX  =           6
   number of lm-projection operators is LMMAX =          18
 
 POTCAR:    PAW_PBE Li_sv 10Sep2004               
  local pseudopotential read in
  atomic valenz-charges read in
  non local Contribution for L=           0  read in
    real space projection operators read in
  non local Contribution for L=           0  read in
    real space projection operators read in
  non local Contribution for L=           1  read in
    real space projection operators read in
    PAW grid and wavefunctions read in
 
   number of l-projection  operators is LMAX  =           3
   number of lm-projection operators is LMMAX =           5
 
 POTCAR:    PAW_PBE O 08Apr2002                   
  local pseudopotential read in
  partial core-charges read in
  partial kinetic energy density read in
  kinetic energy density of atom read in
  atomic valenz-charges read in
  non local Contribution for L=           0  read in
    real space projection operators read in
  non local Contribution for L=           0  read in
    real space projection operators read in
  non local Contribution for L=           1  read in
    real space projection operators read in
  non local Contribution for L=           1  read in
    real space projection operators read in
    PAW grid and wavefunctions read in
 
   number of l-projection  operators is LMAX  =           4
   number of lm-projection operators is LMMAX =           8
 
 Optimization of the real space projectors (new method)

 maximal supplied QI-value         = 15.12
 optimisation between [QCUT,QGAM] = [ 11.34, 22.83] = [ 36.00,145.93] Ry 
 Optimized for a Real-space Cutoff    1.61 Angstroem

   l    n(q)    QCUT    max X(q) W(low)/X(q) W(high)/X(q)  e(spline) 
   1     11    11.338     4.092    0.40E-05    0.64E-05    0.47E-07
   1     11    11.338     4.834    0.13E-04    0.44E-04    0.21E-06
   2     10    11.338    62.294    0.15E-03    0.31E-03    0.77E-06
   2     10    11.338    50.966    0.15E-03    0.31E-03    0.77E-06
   0     11    11.338   103.792    0.33E-04    0.19E-04    0.90E-07
   0     11    11.338    56.335    0.26E-04    0.17E-04    0.79E-07
 Optimization of the real space projectors (new method)

 maximal supplied QI-value         = 16.25
 optimisation between [QCUT,QGAM] = [ 11.38, 22.75] = [ 36.24,144.96] Ry 
 Optimized for a Real-space Cutoff    1.47 Angstroem

   l    n(q)    QCUT    max X(q) W(low)/X(q) W(high)/X(q)  e(spline) 
   2      9    11.376    60.317    0.17E-03    0.16E-04    0.16E-06
   2      9    11.376    55.921    0.17E-03    0.16E-04    0.17E-06
   0     10    11.376    51.690    0.45E-04    0.60E-04    0.21E-06
   0     10    11.376    30.015    0.37E-04    0.55E-04    0.19E-06
   1     10    11.376    18.849    0.83E-04    0.11E-03    0.92E-07
   1     10    11.376    14.624    0.69E-04    0.92E-04    0.82E-07
 Optimization of the real space projectors (new method)

 maximal supplied QI-value         = 22.11
 optimisation between [QCUT,QGAM] = [ 11.28, 22.77] = [ 35.61,145.23] Ry 
 Optimized for a Real-space Cutoff    1.10 Angstroem

   l    n(q)    QCUT    max X(q) W(low)/X(q) W(high)/X(q)  e(spline) 
   0      7    11.276    10.506    0.54E-04    0.58E-04    0.16E-07
   0      7    11.276     8.367    0.11E-03    0.14E-03    0.35E-07
   1      7    11.276     8.983    0.23E-03    0.43E-03    0.86E-07
 Optimization of the real space projectors (new method)

 maximal supplied QI-value         = 24.76
 optimisation between [QCUT,QGAM] = [ 11.39, 22.77] = [ 36.31,145.25] Ry 
 Optimized for a Real-space Cutoff    1.10 Angstroem

   l    n(q)    QCUT    max X(q) W(low)/X(q) W(high)/X(q)  e(spline) 
   0      7    11.387    20.381    0.22E-03    0.48E-03    0.18E-06
   0      7    11.387    15.268    0.22E-03    0.52E-03    0.19E-06
   1      7    11.387     5.964    0.22E-03    0.73E-03    0.24E-06
   1      7    11.387     5.382    0.19E-03    0.60E-03    0.21E-06

 ----------------------------------------------------------------------------- 
|                                                                             |
|  ADVICE TO THIS USER RUNNING 'VASP/VAMP'   (HEAR YOUR MASTER'S VOICE ...):  |
|                                                                             |
|      You enforced a specific xc-type in the INCAR file,                     |
|      a different type was found on the POTCAR file                          |
|          I HOPE YOU KNOW, WHAT YOU ARE  DOING                               |
|                                                                             |
 ----------------------------------------------------------------------------- 

  PAW_PBE Ta_pv 07Sep2000               :
 energy of atom  1       EATOM=-1047.1984
 kinetic energy error for atom=    0.0019 (will be added to EATOM!!)
  PAW_PBE Ni 02Aug2007                  :
 energy of atom  2       EATOM=-1077.6739
 kinetic energy error for atom=    0.0030 (will be added to EATOM!!)
  PAW_PBE Li_sv 10Sep2004               :
 energy of atom  3       EATOM= -202.7858
 kinetic energy error for atom=    0.0143 (will be added to EATOM!!)
  PAW_PBE O 08Apr2002                   :
 energy of atom  4       EATOM= -432.3788
 kinetic energy error for atom=    0.0224 (will be added to EATOM!!)
 
 
 POSCAR: ce740_1                                 
  positions in direct lattice
  No initial velocities read in
 exchange correlation table for  LEXCH =       14
   RHO(1)=    0.500       N(1)  =     2000
   RHO(2)=  100.500       N(2)  =     4000
 


--------------------------------------------------------------------------------------------------------


 ion  position               nearest neighbor table
   1  0.994  0.999  0.010- 108 2.06 105 2.09  93 2.11  60 2.13  72 2.15  57 2.20  10 2.73  13 2.74
                             7 2.91   4 2.92  26 2.94  24 2.95  29 3.00  53 3.05  36 3.05  30 3.07
   2  0.876  0.336  0.231-  56 2.12  59 2.13  71 2.13  77 2.14  74 2.17  80 2.18  11 2.74   8 2.74
                            14 2.86  21 2.91   5 2.98  25 3.01  39 3.04  37 3.05  40 3.05  36 3.07
   3  0.116  0.668  0.120-  61 2.12  55 2.12  94 2.13  79 2.16  58 2.16  64 2.17  15 2.73   6 2.74
                            12 2.86  17 2.92   9 2.98  32 2.99  27 3.01  40 3.05  29 3.06
   4  0.329  0.999  0.013-  60 2.12  96 2.12  93 2.13  66 2.16  99 2.16  63 2.17  16 2.73  13 2.74
                             7 2.86   1 2.92  18 2.98  32 2.99  24 3.01  33 3.05  50 3.06
   5  0.222  0.333  0.222-  86 2.04  83 2.04  62 2.05  59 2.05  80 2.08  65 2.08  25 2.93  22 2.93
                            14 2.98   8 2.98  19 2.98   2 2.98  30 3.05  31 3.05  33 3.07  40 3.07
   6  0.440  0.664  0.103-  85 2.12  70 2.13  64 2.13 100 2.14  61 2.17  67 2.18  17 2.74   3 2.74
                            20 2.86  15 2.91   9 2.98  23 3.01  50 3.04  31 3.05  34 3.05  32 3.07
   7  0.658  0.998  0.013- 105 2.12 102 2.13  72 2.13  66 2.14  69 2.17  99 2.18  16 2.74  10 2.74
                             4 2.86   1 2.91  18 2.98  26 3.01  33 3.04  35 3.05  50 3.05  36 3.07
   8  0.569  0.332  0.214-  74 2.12  86 2.12  89 2.13  68 2.16  65 2.16  71 2.17  21 2.73   2 2.74
                            19 2.86  11 2.92   5 2.98  36 2.99  22 3.01  34 3.05  33 3.06
   9  0.778  0.667  0.111-  55 2.04 106 2.04  73 2.05  70 2.05  67 2.08  58 2.08  23 2.93  27 2.93
                            20 2.98   3 2.98  12 2.98   6 2.98  35 3.05  37 3.05  29 3.07  34 3.07
  10  0.675  0.001  0.320-  69 2.12  75 2.12  90 2.13  57 2.16  78 2.16  72 2.17   1 2.73   7 2.74
                            13 2.86  16 2.92  18 2.98  36 2.99  24 3.01  29 3.05  39 3.06
  11  0.566  0.332  0.551-  92 2.06  95 2.09  89 2.11  74 2.13  98 2.15  77 2.20  14 2.73   2 2.74
                            19 2.91   8 2.92  25 2.94  22 2.95  39 3.00  48 3.05  49 3.05  37 3.07
  12  0.786  0.669  0.449-  76 2.12  73 2.13  97 2.13  79 2.14  82 2.17  58 2.18  15 2.74  20 2.74
                             3 2.86  17 2.91   9 2.98  23 3.01  40 3.04  41 3.05  29 3.05  49 3.07
  13  0.005  0.002  0.320-  84 2.12  81 2.13  63 2.13  57 2.14  60 2.17  78 2.18   1 2.74   4 2.74
                            10 2.86  16 2.91  18 2.98  26 3.01  29 3.04  30 3.05  39 3.05  32 3.07
  14  0.876  0.335  0.560- 101 2.12  83 2.12 104 2.13  77 2.16  80 2.16  98 2.17  11 2.73  19 2.74
                             2 2.86  21 2.92   5 2.98  49 2.99  22 3.01  39 3.05  40 3.06
  15  0.107  0.666  0.439-  88 2.06  85 2.09 103 2.11  82 2.13  64 2.15  79 2.20   3 2.73  12 2.74
                             6 2.91  20 2.92  23 2.94  27 2.95  40 3.00  43 3.05  32 3.05  41 3.07
  16  0.338  0.001  0.323-  87 2.06  84 2.09  90 2.11  69 2.13  63 2.15  66 2.20   4 2.73   7 2.74
                            13 2.91  10 2.92  26 2.94  24 2.95  33 3.00  42 3.05  32 3.05  35 3.07
  17  0.450  0.668  0.782-  91 2.06  76 2.09  94 2.11  61 2.13  97 2.15 100 2.20  20 2.73   6 2.74
                            12 2.91   3 2.92  23 2.94  27 2.95  50 3.00  38 3.05  49 3.05  31 3.07
  18  0.667  0.000  0.667-  75 2.04  96 2.04  81 2.05 102 2.05  99 2.08  78 2.08  26 2.93  24 2.93
                             4 2.98  10 2.98   7 2.98  13 2.98  41 3.05  51 3.05  50 3.07  39 3.07
  19  0.569  0.331  0.884-  95 2.12  62 2.13  98 2.13  68 2.14 101 2.17  65 2.18  21 2.74  14 2.74
                             8 2.86  11 2.91   5 2.98  25 3.01  34 3.04  51 3.05  33 3.05  49 3.07
  20  0.769  0.665  0.773-  82 2.12 106 2.12 103 2.13 100 2.16  67 2.16  97 2.17  17 2.73  12 2.74
                             6 2.86  15 2.92   9 2.98  49 2.99  27 3.01  50 3.05  34 3.06
  21  0.879  0.334  0.895- 107 2.06  56 2.09 104 2.11 101 2.13  71 2.15  68 2.20   8 2.73  19 2.74
                             2 2.91  14 2.92  25 2.94  22 2.95  34 3.00  28 3.05  36 3.05  51 3.07
  22  0.222  0.333  0.560-  92 2.04 107 2.04 104 2.07  89 2.07  83 2.09  86 2.09  25 2.83   5 2.93
                            21 2.95  11 2.95   8 3.01  14 3.01
  23  0.441  0.667  0.448-  91 2.04  88 2.04  85 2.05  76 2.05  73 2.10  70 2.10  27 2.83   9 2.93
                            15 2.94  17 2.94   6 3.01  12 3.01
  24  0.329  0.000  0.667- 108 2.04  87 2.04  93 2.07  90 2.07  96 2.09  75 2.09  26 2.83  18 2.93
                             1 2.95  16 2.95   4 3.01  10 3.01
  25  0.222  0.333  0.885-  92 2.04 107 2.04  56 2.05  95 2.05  62 2.10  59 2.10  22 2.83   5 2.93
                            11 2.94  21 2.94   2 3.01  19 3.01
  26  0.004  0.000  0.667-  87 2.04 108 2.04 105 2.05  84 2.05 102 2.10  81 2.10  24 2.83  18 2.93
                             1 2.94  16 2.94   7 3.01  13 3.01
  27  0.115  0.667  0.774-  91 2.04  88 2.04 103 2.07  94 2.07  55 2.09 106 2.09  23 2.83   9 2.93
                            17 2.95  15 2.95   3 3.01  20 3.01
  28  0.012  0.498  0.988-  71 2.05 107 2.07  94 2.10  59 2.15  58 2.17 106 2.18  21 3.05   2 3.10

  29  0.891  0.833  0.222-  79 1.96  60 2.05  72 2.05  78 2.14  73 2.15  55 2.15   1 3.00  13 3.04
                            10 3.05  12 3.05   3 3.06   9 3.07
  30  0.109  0.170  0.105-  57 2.03  56 2.08  80 2.11  63 2.11  62 2.13  93 2.14  13 3.05   5 3.05
                             1 3.07   2 3.09
  31  0.335  0.497  0.992- 100 2.03  95 2.08  65 2.11  64 2.11  59 2.13  94 2.14   6 3.05   5 3.05
                            17 3.07  19 3.09
  32  0.222  0.833  0.222-  79 2.01  66 2.01  61 2.06  60 2.06  85 2.16  84 2.16   3 2.99   4 2.99
                            15 3.05  16 3.05   6 3.07  13 3.07
  33  0.447  0.167  0.111-  68 1.96  69 2.05  63 2.05  99 2.14  62 2.15  86 2.15  16 3.00   7 3.04
                             4 3.05  19 3.05   8 3.06   5 3.07
  34  0.667  0.500  0.998- 100 1.96 101 2.05  71 2.05  65 2.14  70 2.15 106 2.15  21 3.00  19 3.04
                             8 3.05   6 3.05  20 3.06   9 3.07
  35  0.547  0.830  0.229-  66 2.03  85 2.08  67 2.11  72 2.11  73 2.13  90 2.14   7 3.05   9 3.05
                            16 3.07   6 3.09
  36  0.778  0.167  0.111-  68 2.01  57 2.01  74 2.06  69 2.06  56 2.16 105 2.16   8 2.99  10 2.99
                            21 3.05   1 3.05   2 3.07   7 3.07
  37  0.660  0.503  0.342-  77 2.03  76 2.08  58 2.11  71 2.11  70 2.13  89 2.14   2 3.05   9 3.05
                            11 3.07  12 3.09
  38  0.544  0.832  0.555-  97 2.05  91 2.07  90 2.10  73 2.15  78 2.17  96 2.18  17 3.05  12 3.10

  39  0.778  0.167  0.442-  57 1.96  74 2.05  98 2.05  80 2.14  81 2.15  75 2.15  11 3.00   2 3.04
                            14 3.05  13 3.05  10 3.06  18 3.07
  40  0.998  0.500  0.336-  77 1.96  82 2.05  64 2.05  58 2.14  59 2.15  83 2.15  15 3.00  12 3.04
                             3 3.05   2 3.05  14 3.06   5 3.07
  41  0.897  0.837  0.554-  79 2.03  84 2.08  78 2.11  97 2.11 102 2.13 103 2.14  12 3.05  18 3.05
                            15 3.07  13 3.09
  42  0.111  0.165  0.456-  63 2.05  87 2.07 104 2.10  81 2.15  80 2.17  86 2.18  16 3.05  13 3.10

  43  0.334  0.502  0.345-  64 2.05  88 2.07  89 2.10  70 2.15  65 2.17  83 2.18  15 3.05   6 3.10

  44  0.222  0.833  0.565- 103 2.15  90 2.15  91 2.16 108 2.16  85 2.22  84 2.22
  45  0.436  0.167  0.453-  74 2.05  69 2.05  92 2.10  87 2.10  86 2.18  75 2.18  11 3.07  16 3.07

  46  0.324  0.500  0.667-  94 2.15  89 2.15  88 2.16 107 2.16  95 2.22  76 2.22
  47  0.222  0.833  0.880-  61 2.05  60 2.05  91 2.10 108 2.10  55 2.18  96 2.18  17 3.07   1 3.07

  48  0.433  0.168  0.778-  98 2.05  92 2.07  93 2.10  62 2.15  99 2.17  75 2.18  11 3.05  19 3.10

  49  0.667  0.500  0.667- 100 2.01  77 2.01  82 2.06 101 2.06  76 2.16  95 2.16  14 2.99  20 2.99
                            11 3.05  17 3.05  19 3.07  12 3.07
  50  0.553  0.833  0.891-  66 1.96  61 2.05  97 2.05  67 2.14 102 2.15  96 2.15  17 3.00   6 3.04
                            20 3.05   7 3.05   4 3.06  18 3.07
  51  0.784  0.163  0.780-  68 2.03 105 2.08  99 2.11  98 2.11  81 2.13 104 2.14  19 3.05  18 3.05
                            21 3.07   7 3.09
  52  0.009  0.500  0.667- 101 2.05  82 2.05 107 2.10  88 2.10 106 2.18  83 2.18  21 3.07  15 3.07

  53  0.901  0.835  0.877-  72 2.05 108 2.07 103 2.10 102 2.15  67 2.17  55 2.18   1 3.05   7 3.10

  54  0.120  0.167  0.769- 104 2.15  93 2.15  92 2.16  87 2.16  56 2.22 105 2.22
  55  0.998  0.744  0.002-   9 2.04  27 2.09   3 2.12  29 2.15  47 2.18  53 2.18
  56  0.000  0.256  1.000-  25 2.05  30 2.08  21 2.09   2 2.12  36 2.16  54 2.22
  57  0.887  0.095  0.226-  39 1.96  36 2.01  30 2.03  13 2.14  10 2.16   1 2.20
  58  0.887  0.583  0.219-   9 2.08  37 2.11  40 2.14   3 2.16  28 2.17  12 2.18
  59  0.111  0.412  0.114-   5 2.05  25 2.10   2 2.13  31 2.13  40 2.15  28 2.15
  60  0.115  0.909  0.104-  29 2.05  47 2.05  32 2.06   4 2.12   1 2.13  13 2.17
  61  0.330  0.758  0.997-  50 2.05  47 2.05  32 2.06   3 2.12  17 2.13   6 2.17
  62  0.334  0.255  0.002-   5 2.05  25 2.10  19 2.13  30 2.13  33 2.15  48 2.15
  63  0.219  0.093  0.228-  42 2.05  33 2.05  30 2.11  13 2.13  16 2.15   4 2.17
  64  0.226  0.574  0.224-  43 2.05  40 2.05  31 2.11   6 2.13  15 2.15   3 2.17
  65  0.439  0.417  0.114-   5 2.08  31 2.11  34 2.14   8 2.16  43 2.17  19 2.18
  66  0.447  0.905  0.107-  50 1.96  32 2.01  35 2.03   7 2.14   4 2.16  16 2.20
  67  0.670  0.750  0.002-   9 2.08  35 2.11  50 2.14  20 2.16  53 2.17   6 2.18
  68  0.663  0.238  0.002-  33 1.96  36 2.01  51 2.03  19 2.14   8 2.16  21 2.20
  69  0.552  0.091  0.229-  33 2.05  45 2.05  36 2.06  10 2.12  16 2.13   7 2.17
  70  0.558  0.588  0.219-   9 2.05  23 2.10   6 2.13  37 2.13  34 2.15  43 2.15
  71  0.783  0.426  0.109-  28 2.05  34 2.05  37 2.11   2 2.13  21 2.15   8 2.17
  72  0.780  0.907  0.106-  53 2.05  29 2.05  35 2.11   7 2.13   1 2.15  10 2.17
  73  0.669  0.745  0.331-   9 2.05  23 2.10  12 2.13  35 2.13  29 2.15  38 2.15
  74  0.660  0.242  0.336-  39 2.05  45 2.05  36 2.06   8 2.12  11 2.13   2 2.17
  75  0.558  0.077  0.555-  18 2.04  24 2.09  10 2.12  39 2.15  45 2.18  48 2.18
  76  0.556  0.589  0.555-  23 2.05  37 2.08  17 2.09  12 2.12  49 2.16  46 2.22
  77  0.782  0.429  0.442-  40 1.96  49 2.01  37 2.03   2 2.14  14 2.16  11 2.20
  78  0.775  0.917  0.450-  18 2.08  41 2.11  29 2.14  10 2.16  38 2.17  13 2.18
  79  0.998  0.762  0.332-  29 1.96  32 2.01  41 2.03  12 2.14   3 2.16  15 2.20
  80  0.005  0.250  0.331-   5 2.08  30 2.11  39 2.14  14 2.16  42 2.17   2 2.18
  81  0.886  0.079  0.555-  18 2.05  26 2.10  13 2.13  51 2.13  39 2.15  42 2.15
  82  0.892  0.576  0.559-  40 2.05  52 2.05  49 2.06  20 2.12  15 2.13  12 2.17
  83  0.111  0.411  0.442-   5 2.04  22 2.09  14 2.12  40 2.15  52 2.18  43 2.18
  84  0.111  0.923  0.445-  26 2.05  41 2.08  16 2.09  13 2.12  32 2.16  44 2.22
  85  0.333  0.744  0.333-  23 2.05  35 2.08  15 2.09   6 2.12  32 2.16  44 2.22
  86  0.333  0.256  0.331-   5 2.04  22 2.09   8 2.12  33 2.15  45 2.18  42 2.18
  87  0.226  0.077  0.549-  24 2.04  26 2.04  16 2.06  42 2.07  45 2.10  54 2.16
  88  0.219  0.590  0.552-  27 2.04  23 2.04  15 2.06  43 2.07  52 2.10  46 2.16
  89  0.445  0.412  0.444-  22 2.07  43 2.10  11 2.11   8 2.13  37 2.14  46 2.15
  90  0.445  0.921  0.444-  24 2.07  38 2.10  16 2.11  10 2.13  35 2.14  44 2.15
  91  0.337  0.743  0.670-  27 2.04  23 2.04  17 2.06  38 2.07  47 2.10  44 2.16
  92  0.340  0.257  0.663-  22 2.04  25 2.04  11 2.06  48 2.07  45 2.10  54 2.16
  93  0.222  0.079  0.890-  24 2.07  48 2.10   1 2.11   4 2.13  30 2.14  54 2.15
  94  0.223  0.588  0.889-  27 2.07  28 2.10  17 2.11   3 2.13  31 2.14  46 2.15
  95  0.444  0.411  0.778-  25 2.05  31 2.08  11 2.09  19 2.12  49 2.16  46 2.22
  96  0.446  0.923  0.778-  18 2.04  24 2.09   4 2.12  50 2.15  47 2.18  38 2.18
  97  0.665  0.760  0.663-  38 2.05  50 2.05  41 2.11  12 2.13  17 2.15  20 2.17
  98  0.661  0.240  0.670-  48 2.05  39 2.05  51 2.11  19 2.13  11 2.15  14 2.17
  99  0.557  0.083  0.884-  18 2.08  51 2.11  33 2.14   4 2.16  48 2.17   7 2.18
 100  0.557  0.571  0.891-  34 1.96  49 2.01  31 2.03   6 2.14  20 2.16  17 2.20
 101  0.785  0.424  0.774-  34 2.05  52 2.05  49 2.06  14 2.12  21 2.13  19 2.17
 102  0.775  0.921  0.778-  18 2.05  26 2.10   7 2.13  41 2.13  50 2.15  53 2.15
 103  1.000  0.745  0.666-  27 2.07  53 2.10  15 2.11  20 2.13  41 2.14  44 2.15
 104  0.999  0.255  0.667-  22 2.07  42 2.10  21 2.11  14 2.13  51 2.14  54 2.15
 105  0.889  0.077  0.889-  26 2.05  51 2.08   1 2.09   7 2.12  36 2.16  54 2.22
 106  0.887  0.589  0.891-   9 2.04  27 2.09  20 2.12  34 2.15  52 2.18  28 2.18
 107  0.104  0.410  0.781-  22 2.04  25 2.04  21 2.06  28 2.07  52 2.10  46 2.16
 108  0.108  0.923  0.784-  24 2.04  26 2.04   1 2.06  53 2.07  47 2.10  44 2.16
 
  LATTYP: Found a hexagonal cell.
 ALAT       =     8.6878572807
 C/A-ratio  =     1.7692413005
  
  Lattice vectors:
  
 A1 = (   4.3439286640,   0.0000000000,   7.5239050959)
 A2 = (  -8.6878573279,   0.0000000000,   0.0000000000)
 A3 = (   0.0000000000, -15.3709159139,   0.0000000000)


Analysis of symmetry for initial positions (statically):
=====================================================================
 Subroutine PRICEL returns:
 Original cell was already a primitive cell.
 

 Routine SETGRP: Setting up the symmetry group for a 
 hexagonal supercell.


 Subroutine GETGRP returns: Found  6 space group operations
 (whereof  1 operations were pure point group operations)
 out of a pool of 24 trial point group operations.


The static configuration has the point symmetry C_1 .
 The point group associated with its full space group is D_3 .


Analysis of symmetry for dynamics (positions and initial velocities):
=====================================================================
 Subroutine PRICEL returns:
 Original cell was already a primitive cell.
 

 Routine SETGRP: Setting up the symmetry group for a 
 hexagonal supercell.


 Subroutine GETGRP returns: Found  6 space group operations
 (whereof  1 operations were pure point group operations)
 out of a pool of 24 trial point group operations.


The dynamic configuration has the point symmetry C_1 .
 The point group associated with its full space group is D_3 .


Analysis of structural, dynamic, and magnetic symmetry:
=====================================================================
 Subroutine PRICEL returns:
 Original cell was already a primitive cell.
 

 Routine SETGRP: Setting up the symmetry group for a 
 hexagonal supercell.


 Subroutine GETGRP returns: Found  6 space group operations
 (whereof  1 operations were pure point group operations)
 out of a pool of 24 trial point group operations.


The magnetic configuration has the point symmetry C_1 .
 The point group associated with its full space group is D_3 .


 Subroutine INISYM returns: Found  6 space group operations
 (whereof  1 operations are pure point group operations),
 and found     1 'primitive' translations

 
 
 KPOINTS: Automatic mesh                          

Automatic generation of k-mesh.
Space group operators:
 irot       det(A)        alpha          n_x          n_y          n_z        tau_x        tau_y        tau_z
    1     1.000000     0.000001     1.000000     0.000000     0.000000     0.000000     0.000000     0.000000
    2     1.000000   120.000000     0.000000     1.000000     0.000000    -0.888889    -0.333333     0.444444
    3     1.000000   120.000000     0.000000    -1.000000     0.000000    -0.444444    -0.666667     0.555556
    4     1.000000   180.000000    -0.500000     0.000000    -0.866025    -0.555556    -0.333333     0.777778
    5     1.000000   180.000000     1.000000     0.000000     0.000000    -0.666667     0.000000     0.333333
    6     1.000000   180.000000     0.500000     0.000000    -0.866025    -0.111111    -0.666667     0.888889
 
 Subroutine IBZKPT returns following result:
 ===========================================
 
 Found      1 irreducible k-points:
 
 Following reciprocal coordinates:
            Coordinates               Weight
  0.000000  0.000000  0.000000      1.000000
 
 Following cartesian coordinates:
            Coordinates               Weight
  0.000000  0.000000  0.000000      1.000000
 


--------------------------------------------------------------------------------------------------------




 Dimension of arrays:
   k-points           NKPTS =      1   k-points in BZ     NKDIM =      1   number of bands    NBANDS=    432
   number of dos      NEDOS =    301   number of ions     NIONS =    108
   non local maximal  LDIM  =      6   non local SUM 2l+1 LMDIM =     18
   total plane-waves  NPLWV = 458752
   max r-space proj   IRMAX =   8048   max aug-charges    IRDMAX=  25847
   dimension x,y,z NGX =    64 NGY =  112 NGZ =   64
   dimension x,y,z NGXF=   128 NGYF=  224 NGZF=  128
   support grid    NGXF=   128 NGYF=  224 NGZF=  128
   ions per type =              21   6  27  54
   NGX,Y,Z   is equivalent  to a cutoff of  12.25, 12.11, 12.25 a.u.
   NGXF,Y,Z  is equivalent  to a cutoff of  24.49, 24.23, 24.49 a.u.

 SYSTEM =  unknown system                          
 POSCAR =  ce740_1                                 

 Startparameter for this run:
   NWRITE =      1    write-flag & timer
   PREC   = accura    normal or accurate (medium, high low for compatibility)
   ISTART =      0    job   : 0-new  1-cont  2-samecut
   ICHARG =      2    charge: 1-file 2-atom 10-const
   ISPIN  =      2    spin polarized calculation?
   LNONCOLLINEAR =      F non collinear calculations
   LSORBIT =      F    spin-orbit coupling
   INIWAV =      1    electr: 0-lowe 1-rand  2-diag
   LASPH  =      F    aspherical Exc in radial PAW
   METAGGA=      F    non-selfconsistent MetaGGA calc.

 Electronic Relaxation 1
   ENCUT  =  500.0 eV  36.75 Ry    6.06 a.u.  15.84 28.02 15.84*2*pi/ulx,y,z
   ENINI  =  500.0     initial cutoff
   ENAUG  =  628.9 eV  augmentation charge cutoff
   NELM   =     80;   NELMIN=  2; NELMDL= -5     # of ELM steps 
   EDIFF  = 0.1E-04   stopping-criterion for ELM
   LREAL  =      T    real-space projection
   NLSPLINE    = F    spline interpolate recip. space projectors
   LCOMPAT=      F    compatible to vasp.4.4
   GGA_COMPAT  = T    GGA compatible to vasp.4.4-vasp.4.6
   LMAXPAW     = -100 max onsite density
   LMAXMIX     =    2 max onsite mixed and CHGCAR
   VOSKOWN=      1    Vosko Wilk Nusair interpolation
   ROPT   =   -0.00025  -0.00025  -0.00025  -0.00025
 Ionic relaxation
   EDIFFG = -.2E-01   stopping-criterion for IOM
   NSW    =     20    number of steps for IOM
   NBLOCK =      1;   KBLOCK =     20    inner block; outer block 
   IBRION =      1    ionic relax: 0-MD 1-quasi-New 2-CG
   NFREE  =      0    steps in history (QN), initial steepest desc. (CG)
   ISIF   =      3    stress and relaxation
   IWAVPR =     11    prediction:  0-non 1-charg 2-wave 3-comb
   ISYM   =      2    0-nonsym 1-usesym 2-fastsym
   LCORR  =      T    Harris-Foulkes like correction to forces

   POTIM  = 0.5000    time-step for ionic-motion
   TEIN   =    0.0    initial temperature
   TEBEG  =    0.0;   TEEND  =   0.0 temperature during run
   SMASS  =  -3.00    Nose mass-parameter (am)
   estimated Nose-frequenzy (Omega)   =  0.10E-29 period in steps =****** mass=  -0.172E-26a.u.
   SCALEE = 1.0000    scale energy and forces
   NPACO  =    256;   APACO  = 16.0  distance and # of slots for P.C.
   PSTRESS=    0.0 pullay stress

  Mass of Ions in am
   POMASS = 180.95 58.69  7.01 16.00
  Ionic Valenz
   ZVAL   =  11.00 10.00  3.00  6.00
  Atomic Wigner-Seitz radii
   RWIGS  =   1.34  1.15  1.23  0.73
  virtual crystal weights 
   VCA    =   1.00  1.00  1.00  1.00
   NELECT =     696.0000    total number of electrons
   NUPDOWN=      -1.0000    fix difference up-down

 DOS related values:
   EMIN   =  10.00;   EMAX   =-10.00  energy-range for DOS
   EFERMI =   0.00
   ISMEAR =     0;   SIGMA  =   0.05  broadening in eV -4-tet -1-fermi 0-gaus

 Electronic relaxation 2 (details)
   IALGO  =     38    algorithm
   LDIAG  =      T    sub-space diagonalisation (order eigenvalues)
   LSUBROT=      F    optimize rotation matrix (better conditioning)
   TURBO    =      0    0=normal 1=particle mesh
   IRESTART =      0    0=no restart 2=restart with 2 vectors
   NREBOOT  =      0    no. of reboots
   NMIN     =      0    reboot dimension
   EREF     =   0.00    reference energy to select bands
   IMIX   =      4    mixing-type and parameters
     AMIX     =   0.40;   BMIX     =  1.00
     AMIX_MAG =   1.60;   BMIX_MAG =  1.00
     AMIN     =   0.10
     WC   =   100.;   INIMIX=   1;  MIXPRE=   1;  MAXMIX= -45

 Intra band minimization:
   WEIMIN = 0.0010     energy-eigenvalue tresh-hold
   EBREAK =  0.58E-08  absolut break condition
   DEPER  =   0.30     relativ break condition  

   TIME   =   0.40     timestep for ELM

  volume/ion in A,a.u.               =       9.30        62.78
  Fermi-wavevector in a.u.,A,eV,Ry     =   1.448525  2.737315 28.548080  2.098225
  Thomas-Fermi vector in A             =   2.566356
 
 Write flags
   LWAVE        =      F    write WAVECAR
   LDOWNSAMPLE  =      F    k-point downsampling of WAVECAR
   LCHARG       =      T    write CHGCAR
   LVTOT        =      F    write LOCPOT, total local potential
   LVHAR        =      F    write LOCPOT, Hartree potential only
   LELF         =      F    write electronic localiz. function (ELF)
   LORBIT       =      0    0 simple, 1 ext, 2 COOP (PROOUT), +10 PAW based schemes


 Dipole corrections
   LMONO  =      F    monopole corrections only (constant potential shift)
   LDIPOL =      F    correct potential (dipole corrections)
   IDIPOL =      0    1-x, 2-y, 3-z, 4-all directions 
   EPSILON=  1.0000000 bulk dielectric constant

 Exchange correlation treatment:
   GGA     =    PS    GGA type
   LEXCH   =    14    internal setting for exchange type
   VOSKOWN=      1    Vosko Wilk Nusair interpolation
   LHFCALC =     F    Hartree Fock is set to
   LHFONE  =     F    Hartree Fock one center treatment
   AEXX    =    0.0000 exact exchange contribution

 Linear response parameters
   LEPSILON=     F    determine dielectric tensor
   LRPA    =     F    only Hartree local field effects (RPA)
   LNABLA  =     F    use nabla operator in PAW spheres
   LVEL    =     F    velocity operator in full k-point grid
   LINTERFAST=   F  fast interpolation
   KINTER  =     0    interpolate to denser k-point grid
   CSHIFT  =0.1000    complex shift for real part using Kramers Kronig
   OMEGAMAX=  -1.0    maximum frequency
   DEG_THRESHOLD= 0.2000000E-02 threshold for treating states as degnerate
   RTIME   =   -0.100 relaxation time in fs
  (WPLASMAI=    0.000 imaginary part of plasma frequency in eV, 0.658/RTIME)
   DFIELD  = 0.0000000 0.0000000 0.0000000 field for delta impulse in time
 
 Orbital magnetization related:
   ORBITALMAG=     F  switch on orbital magnetization
   LCHIMAG   =     F  perturbation theory with respect to B field
   DQ        =  0.001000  dq finite difference perturbation B field
   LLRAUG    =     F  two centre corrections for induced B field



--------------------------------------------------------------------------------------------------------


 quasi-Newton-method for relaxation of ions
 charge density and potential will be updated during run
 spin polarized calculation
 Variant of blocked Davidson
 Davidson routine will perform the subspace rotation
 perform sub-space diagonalisation
    after iterative eigenvector-optimisation
 modified Broyden-mixing scheme, WC =      100.0
 initial mixing is a Kerker type mixing with AMIX =  0.4000 and BMIX =      1.0000
 Hartree-type preconditioning will be used
 using additional bands           84
 real space projection scheme for non local part
 use partial core corrections
 calculate Harris-corrections to forces 
   (improved forces if not selfconsistent)
 use gradient corrections 
 use of overlap-Matrix (Vanderbilt PP)
 Gauss-broadening in eV      SIGMA  =   0.05


--------------------------------------------------------------------------------------------------------


  energy-cutoff  :      500.00
  volume of cell :     1004.74
      direct lattice vectors                 reciprocal lattice vectors
     8.687857328  0.000000000  0.000000000     0.115103179  0.000000000 -0.066454852
     0.000000000 15.370915914  0.000000000     0.000000000  0.065057932  0.000000000
     4.343928664  0.000000000  7.523905096     0.000000000  0.000000000  0.132909704

  length of vectors
     8.687857328 15.370915914  8.687857281     0.132909703  0.065057932  0.132909704


 
 k-points in units of 2pi/SCALE and weight: Automatic mesh                          
   0.00000000  0.00000000  0.00000000       1.000
 
 k-points in reciprocal lattice and weights: Automatic mesh                          
   0.00000000  0.00000000  0.00000000       1.000
 
 position of ions in fractional coordinates (direct lattice) 
   0.99438754  0.99887361  0.01001302
   0.87557922  0.33551500  0.23063490
   0.11591613  0.66783802  0.11957275
   0.32852831  0.99882865  0.01326667
   0.22222222  0.33333333  0.22223018
   0.43954746  0.66448500  0.10269843
   0.65825399  0.99781833  0.01330967
   0.56882223  0.33216198  0.21376058
   0.77778574  0.66666667  0.11110315
   0.67512831  0.00117135  0.32006666
   0.56556857  0.33220694  0.55115500
   0.78619046  0.66884834  0.44934143
   0.00489699  0.00218167  0.32002366
   0.87562221  0.33450468  0.56036058
   0.10671056  0.66554028  0.43883198
   0.33773390  0.00112639  0.32332031
   0.45005690  0.66779306  0.78217834
   0.66665870  0.00000000  0.66666667
   0.56886522  0.33115166  0.88399190
   0.76931614  0.66549532  0.77297276
   0.87887587  0.33445972  0.89450135
   0.22222222  0.33333333  0.55956308
   0.44079241  0.66666667  0.44809648
   0.32932581  0.00000000  0.66666667
   0.22222222  0.33333333  0.88523685
   0.00365204  0.00000000  0.66666667
   0.11511863  0.66666667  0.77377026
   0.01191507  0.49843506  0.98836787
   0.89110695  0.83343825  0.22213331
   0.10933179  0.17004453  0.10450634
   0.33511265  0.49662214  0.99161591
   0.22222222  0.83333333  0.22206898
   0.44657360  0.16656175  0.11120002
   0.66675558  0.49989508  0.99778194
   0.54717147  0.82995547  0.22882699
   0.77762454  0.16666667  0.11126435
   0.66006190  0.50337786  0.34171742
   0.54392342  0.83176839  0.55527263
   0.77768887  0.16677159  0.44231529
   0.99787085  0.50010492  0.33555139
   0.89727297  0.83671119  0.55377624
   0.11082819  0.16510173  0.45635951
   0.33361627  0.50156494  0.34496546
   0.22222222  0.83333333  0.56475672
   0.43553266  0.16666667  0.45335623
   0.32413217  0.50000000  0.66666667
   0.22222222  0.83333333  0.87997710
   0.43252937  0.16823161  0.77806071
   0.66681990  0.50000000  0.66666667
   0.55333749  0.83322841  0.89101804
   0.78438255  0.16328881  0.77955710
   0.00891179  0.50000000  0.66666667
   0.90052102  0.83489827  0.87697382
   0.12031227  0.16666667  0.76857662
   0.99805483  0.74411909  0.00210203
   0.00009286  0.25596760  0.99999374
   0.88737530  0.09540681  0.22595275
   0.88704046  0.58329854  0.21900761
   0.11081491  0.41207593  0.11386677
   0.11493521  0.90903779  0.10417291
   0.32950923  0.75762888  0.99688590
   0.33362953  0.25459074  0.00245947
   0.21859867  0.09301841  0.22762442
   0.22584577  0.57364825  0.22400088
   0.43938141  0.41670146  0.11432572
   0.44666139  0.90459319  0.10738058
   0.66988128  0.75003479  0.00184843
   0.66293614  0.23792652  0.00151359
   0.55244146  0.09096221  0.22916042
   0.55801503  0.58792407  0.21946656
   0.78317998  0.42635175  0.10933245
   0.77955644  0.90698159  0.10570891
   0.66942233  0.74540926  0.33087386
   0.65972847  0.24237112  0.33644743
   0.55765758  0.07745242  0.55539871
   0.55554929  0.58930093  0.55546896
   0.78150831  0.42874015  0.44222750
   0.77456317  0.91663188  0.44950748
   0.99778306  0.76207348  0.33181974
   0.00506304  0.24996521  0.33148490
   0.88642941  0.07874259  0.55525936
   0.89200298  0.57570445  0.55937966
   0.11095427  0.41078576  0.44249927
   0.11102452  0.92263427  0.44453730
   0.33341994  0.74403240  0.33333959
   0.33349019  0.25588091  0.33123130
   0.22552267  0.07671057  0.54894264
   0.21892177  0.58995609  0.55224310
   0.44518060  0.41213295  0.44425353
   0.44463536  0.92120039  0.44370829
   0.33664579  0.74337724  0.66996712
   0.33994625  0.25662276  0.66336622
   0.22167698  0.07879961  0.88962504
   0.22276746  0.58786705  0.88907980
   0.44435158  0.41069907  0.77786438
   0.44638961  0.92254758  0.77793463
   0.66488800  0.75968508  0.66304312
   0.66126446  0.24031492  0.67029022
   0.55740398  0.08336812  0.88382585
   0.55706914  0.57125985  0.89110583
   0.78471598  0.42429555  0.77395368
   0.77502212  0.92125741  0.77807398
   0.99980909  0.74546628  0.66612143
   0.99926385  0.25453372  0.66721191
   0.88889515  0.07736573  0.88879603
   0.88678686  0.58921424  0.89083406
   0.10449819  0.41004391  0.78109024
   0.10779865  0.92328943  0.78439070
 
 position of ions in cartesian coordinates  (Angst):
   8.68259292 15.35360227  0.07533701
   8.60876890  5.15717285  1.73527510
   1.52647830 10.26528205  0.89965402
   2.91183655 15.35291119  0.09981717
   2.89598699  5.12363859  1.67203878
   4.26484028 10.21374306  0.77269324
   5.77663301 15.33738165  0.10014069
   5.87040709  5.10563386  1.60831432
   7.23991570 10.24727733  0.83592956
   7.25576517  0.01800472  2.40815117
   7.30775705  5.10632494  4.14683791
   8.78221767 10.28081159  3.38080227
   1.43270430  0.03353427  2.40782765
  10.04144722  5.14164331  4.21609982
   2.83334094 10.22996368  3.30173017
   4.33866430  0.01731365  2.43263133
   7.30775705 10.26459097  5.88503560
   8.68778813  0.00000000  5.01593676
   8.78221762  5.09010432  6.65107116
  10.04144739 10.22927260  5.81577369
  11.52119822  5.14095223  6.73014327
   4.36133704  5.12363859  4.21009951
   5.77604071 10.24727733  3.37143539
   5.75708811  0.00000000  5.01593676
   5.77604067  5.12363859  6.66043805
   2.92768086  0.00000000  5.01593676
   4.36133704 10.24727733  5.82177400
   4.39691595  7.66140340  7.43638605
   8.70674130 12.81070926  1.67130994
   1.40382708  2.61374017  0.78629578
   7.21891967  7.63353715  7.46082400
   2.89528675 12.80909654  1.67082593
   4.36281268  2.56020665  0.83665840
  10.12697092  7.68384524  7.50721662
   5.74775579 12.75717574  1.72167256
   7.23921546  2.56181937  0.83714241
   7.21891971  7.73737876  2.57104944
   7.13759376 12.78504198  4.17781857
   8.67783601  2.56343209  3.32793826
  10.12697088  7.68707067  2.52465681
  10.20094403 12.86101735  4.16655987
   2.94525266  2.53776481  3.43360564
   4.39691591  7.70951252  2.59548738
   4.38389785 12.80909654  4.24917596
   5.75319273  2.56181937  3.41100925
   5.71196651  7.68545796  5.01593676
   5.75319269 12.80909654  6.62086419
   7.13759368  2.58587393  5.85405494
   8.68918861  7.68545796  5.01593676
   8.67783597 12.80748383  6.70393517
  10.20094412  2.50989857  5.86531364
   2.97337682  7.68545796  5.01593676
  11.63310986 12.83315110  6.59826779
   4.38389785  2.56181937  5.78269755
   8.68008904 11.43779196  0.01581547
   4.34470823  3.93445646  7.52385800
   8.69091263  1.46649005  1.70004705
   8.65783440  8.96583281  1.64779247
   1.45737325  6.33398447  0.85672277
   1.45106040 13.97274343  0.78378709
   7.19313041 11.64544981  7.50047490
   2.90920952  3.91329286  0.01850482
   2.88793830  1.42977816  1.71262453
   2.93515967  8.81749901  1.68536136
   4.31390577  6.40508310  0.86017587
   4.34698401 13.90442586  0.80792129
   5.82786244 11.52872169  0.01390741
   5.76606953  3.65714853  0.01138811
   5.79498910  1.39817248  1.72418125
   5.80130205  9.03693144  1.65124557
   7.27908829  6.55341690  0.82260698
   7.23186709 13.94113776  0.79534381
   7.25313814 11.45762306  2.48946352
   7.19313046  3.72546611  2.53139853
   7.25746187  1.19051464  4.17876718
   7.23945051  9.05809504  4.17929574
   8.71063741  6.59012879  3.32727774
   8.68192274 14.08947155  3.38205162
  10.10999815 11.71376738  2.49658023
   1.48393373  3.84219422  2.49406093
  10.11317930  1.21034573  4.17771873
  10.17949997  8.84910469  4.20871947
   2.88614013  6.31415338  3.32932251
   2.89560351 14.18173378  3.34465646
   4.34470827 11.43645946  2.50801544
   4.33616033  3.93312395  2.49215287
   4.34387645  1.17911172  4.13019233
   4.30086574  9.06816545  4.15502467
   5.79747118  6.33486092  3.34252140
   5.79036573 14.15969373  3.33841906
   5.83501997 11.42638905  5.04076903
   5.83502006  3.94452687  4.99110448
   5.79036569  1.21122218  6.69345437
   5.79747114  9.03605499  6.68935204
   7.23945051  6.31282087  5.85257777
   7.25746178 14.18040128  5.85310633
   8.65666410 11.67705549  4.98867351
   8.65666418  3.69386043  5.04320000
   8.68192270  1.28144436  6.64982182
   8.71063737  8.78078712  6.70459570
  10.17950005  6.52181122  5.82315404
  10.11317947 14.16057018  5.85415478
  11.57978270 11.45849951  5.01183442
  11.57978270  3.91241641  5.02003909
  11.58346079  1.18918213  6.68721698
  11.57399733  9.05676254  6.70255092
   4.30086565  6.30275046  5.87684884
   4.34387654 14.19180419  5.90168118
 


--------------------------------------------------------------------------------------------------------


 use serial FFT for orbitals x direction half grid
 k-point  1 :   0.0000 0.0000 0.0000  plane waves:   12737

 maximum and minimum number of plane-waves per node :     12737    12737

 maximum number of plane-waves:     12737
 maximum index in each direction: 
   IXMAX=   15   IYMAX=   28   IZMAX=   15
   IXMIN=    0   IYMIN=  -27   IZMIN=  -13

 The following grids will avoid any aliasing or wrap around errors in the Hartre
 e energy
  - symmetry arguments have not been applied
  - exchange correlation energies might require even more grid points
  - we recommend to set PREC=Normal or Accurate and rely on VASP defaults
 NGX is ok and might be reduce to    64
 NGY is ok and might be reduce to   112
 NGZ is ok and might be reduce to    60

 serial   3D FFT for wavefunctions
 parallel 3D FFT for charge:
    minimum data exchange during FFTs selected (reduces bandwidth)


 total amount of memory used by VASP MPI-rank0   155798. kBytes
=======================================================================

   base      :      30000. kBytes
   nonlr-proj:      43708. kBytes
   fftplans  :       9702. kBytes
   grid      :      59236. kBytes
   one-center:       1679. kBytes
   wavefun   :      11473. kBytes
 
     INWAV:  cpu time    0.0000: real time    0.0000
 Broyden mixing: mesh for mixing (old mesh)
   NGX = 31   NGY = 57   NGZ = 31
  (NGX  =128   NGY  =224   NGZ  =128)
  gives a total of  54777 points

 initial charge density was supplied:
 charge density of overlapping atoms calculated
 number of electron     696.0000000 magnetization      15.0000000
 keeping initial charge density in first step


--------------------------------------------------------------------------------------------------------


 Maximum index for non-local projection operator         7792
 Maximum index for augmentation-charges         1614 (set IRDMAX)


--------------------------------------------------------------------------------------------------------


 First call to EWALD:  gamma=   0.177
 Maximum number of real-space cells 3x 2x 3
 Maximum number of reciprocal cells 2x 4x 2

    FEWALD:  cpu time    0.0049: real time    0.0049


--------------------------------------- Iteration      1(   1)  ---------------------------------------


    POTLOK:  cpu time    0.2999: real time    0.3193
    SETDIJ:  cpu time    0.0427: real time    0.0428
     EDDAV:  cpu time    5.6375: real time    5.6677
    --------------------------------------------
      LOOP:  cpu time    5.9807: real time    6.0304

 eigenvalue-minimisations  :  1728
 total energy-change (2. order) : 0.1112142E+05  (-0.3746831E+05)
 number of electron     696.0000000 magnetization      15.0000000
 augmentation part      696.0000000 magnetization      15.0000000

 Free energy of the ion-electron system (eV)
  ---------------------------------------------------
  alpha Z        PSCENC =      4253.54376096
  Ewald energy   TEWEN  =    -45744.95403308
  -Hartree energ DENC   =    -11866.27820228
  -exchange      EXHF   =         0.00000000
  -V(xc)+E(xc)   XCENC  =      2584.30623260
  PAW double counting   =     43846.48770080   -44395.90475152
  entropy T*S    EENTRO =        -0.00347139
  eigenvalues    EBANDS =      5293.93946159
  atomic energy  EATOM  =     57150.28677355
  Solvation  Ediel_sol  =         0.00000000
  ---------------------------------------------------
  free energy    TOTEN  =     11121.42347122 eV

  energy without entropy =    11121.42694261  energy(sigma->0) =    11121.42520691


--------------------------------------------------------------------------------------------------------




--------------------------------------- Iteration      1(   2)  ---------------------------------------


     EDDAV:  cpu time    5.7764: real time    5.7901
    --------------------------------------------
      LOOP:  cpu time    5.7762: real time    5.7900

 eigenvalue-minimisations  :  1888
 total energy-change (2. order) :-0.1017409E+05  (-0.9568731E+04)
 number of electron     696.0000000 magnetization      15.0000000
 augmentation part      696.0000000 magnetization      15.0000000

 Free energy of the ion-electron system (eV)
  ---------------------------------------------------
  alpha Z        PSCENC =      4253.54376096
  Ewald energy   TEWEN  =    -45744.95403308
  -Hartree energ DENC   =    -11866.27820228
  -exchange      EXHF   =         0.00000000
  -V(xc)+E(xc)   XCENC  =      2584.30623260
  PAW double counting   =     43846.48770080   -44395.90475152
  entropy T*S    EENTRO =        -0.04551437
  eigenvalues    EBANDS =     -4880.11088173
  atomic energy  EATOM  =     57150.28677355
  Solvation  Ediel_sol  =         0.00000000
  ---------------------------------------------------
  free energy    TOTEN  =       947.33108492 eV

  energy without entropy =      947.37659929  energy(sigma->0) =      947.35384211


--------------------------------------------------------------------------------------------------------




--------------------------------------- Iteration      1(   3)  ---------------------------------------


     EDDAV:  cpu time    5.9425: real time    5.9565
    --------------------------------------------
      LOOP:  cpu time    5.9424: real time    5.9565

 eigenvalue-minimisations  :  2000
 total energy-change (2. order) :-0.1746303E+04  (-0.1637897E+04)
 number of electron     696.0000000 magnetization      15.0000000
 augmentation part      696.0000000 magnetization      15.0000000

 Free energy of the ion-electron system (eV)
  ---------------------------------------------------
  alpha Z        PSCENC =      4253.54376096
  Ewald energy   TEWEN  =    -45744.95403308
  -Hartree energ DENC   =    -11866.27820228
  -exchange      EXHF   =         0.00000000
  -V(xc)+E(xc)   XCENC  =      2584.30623260
  PAW double counting   =     43846.48770080   -44395.90475152
  entropy T*S    EENTRO =        -0.01783860
  eigenvalues    EBANDS =     -6626.44203033
  atomic energy  EATOM  =     57150.28677355
  Solvation  Ediel_sol  =         0.00000000
  ---------------------------------------------------
  free energy    TOTEN  =      -798.97238791 eV

  energy without entropy =     -798.95454931  energy(sigma->0) =     -798.96346861


--------------------------------------------------------------------------------------------------------




--------------------------------------- Iteration      1(   4)  ---------------------------------------


     EDDAV:  cpu time    6.6352: real time    6.6510
    --------------------------------------------
      LOOP:  cpu time    6.6352: real time    6.6509

 eigenvalue-minimisations  :  2320
 total energy-change (2. order) :-0.1756015E+03  (-0.1711572E+03)
 number of electron     696.0000000 magnetization      15.0000000
 augmentation part      696.0000000 magnetization      15.0000000

 Free energy of the ion-electron system (eV)
  ---------------------------------------------------
  alpha Z        PSCENC =      4253.54376096
  Ewald energy   TEWEN  =    -45744.95403308
  -Hartree energ DENC   =    -11866.27820228
  -exchange      EXHF   =         0.00000000
  -V(xc)+E(xc)   XCENC  =      2584.30623260
  PAW double counting   =     43846.48770080   -44395.90475152
  entropy T*S    EENTRO =        -0.00045897
  eigenvalues    EBANDS =     -6802.06090739
  atomic energy  EATOM  =     57150.28677355
  Solvation  Ediel_sol  =         0.00000000
  ---------------------------------------------------
  free energy    TOTEN  =      -974.57388535 eV

  energy without entropy =     -974.57342637  energy(sigma->0) =     -974.57365586


--------------------------------------------------------------------------------------------------------




--------------------------------------- Iteration      1(   5)  ---------------------------------------


     EDDAV:  cpu time    9.3642: real time    9.3865
    CHARGE:  cpu time    0.4523: real time    0.4534
    MIXING:  cpu time    0.0057: real time    0.0057
    --------------------------------------------
      LOOP:  cpu time    9.8219: real time    9.8452

 eigenvalue-minimisations  :  3280
 total energy-change (2. order) :-0.1700157E+02  (-0.1686004E+02)
 number of electron     696.0000026 magnetization      15.6874448
 augmentation part      166.2759729 magnetization      11.1921412

 Broyden mixing:
  rms(total) = 0.13611E+02    rms(broyden)= 0.13610E+02
  rms(prec ) = 0.14423E+02
  weight for this iteration     100.00

 Free energy of the ion-electron system (eV)
  ---------------------------------------------------
  alpha Z        PSCENC =      4253.54376096
  Ewald energy   TEWEN  =    -45744.95403308
  -Hartree energ DENC   =    -11866.27820228
  -exchange      EXHF   =         0.00000000
  -V(xc)+E(xc)   XCENC  =      2584.30623260
  PAW double counting   =     43846.48770080   -44395.90475152
  entropy T*S    EENTRO =        -0.00052367
  eigenvalues    EBANDS =     -6819.06241191
  atomic energy  EATOM  =     57150.28677355
  Solvation  Ediel_sol  =         0.00000000
  ---------------------------------------------------
  free energy    TOTEN  =      -991.57545456 eV

  energy without entropy =     -991.57493089  energy(sigma->0) =     -991.57519272


--------------------------------------------------------------------------------------------------------




--------------------------------------- Iteration      1(   6)  ---------------------------------------


    POTLOK:  cpu time    0.2646: real time    0.2652
    SETDIJ:  cpu time    0.0426: real time    0.0427
     EDDAV:  cpu time    7.3172: real time    7.3345
    CHARGE:  cpu time    0.4370: real time    0.4381
    MIXING:  cpu time    0.0075: real time    0.0076
    --------------------------------------------
      LOOP:  cpu time    8.0690: real time    8.0881

 eigenvalue-minimisations  :  2448
 total energy-change (2. order) : 0.1117012E+02  (-0.1024370E+03)
 number of electron     696.0000031 magnetization      14.1555307
 augmentation part      178.8287297 magnetization      14.8725751

 Broyden mixing:
  rms(total) = 0.15940E+02    rms(broyden)= 0.15940E+02
  rms(prec ) = 0.16485E+02
  weight for this iteration     100.00

 eigenvalues of (default mixing * dielectric matrix)
  average eigenvalue GAMMA=   0.3374
  0.3374

 Free energy of the ion-electron system (eV)
  ---------------------------------------------------
  alpha Z        PSCENC =      4253.54376096
  Ewald energy   TEWEN  =    -45744.95403308
  -Hartree energ DENC   =    -11931.89982996
  -exchange      EXHF   =         0.00000000
  -V(xc)+E(xc)   XCENC  =      2622.71029140
  PAW double counting   =     58042.99258437   -58551.17056195
  entropy T*S    EENTRO =        -0.00882967
  eigenvalues    EBANDS =     -6821.90548635
  atomic energy  EATOM  =     57150.28677355
  Solvation  Ediel_sol  =         0.00000000
  ---------------------------------------------------
  free energy    TOTEN  =      -980.40533072 eV

  energy without entropy =     -980.39650105  energy(sigma->0) =     -980.40091588


--------------------------------------------------------------------------------------------------------




--------------------------------------- Iteration      1(   7)  ---------------------------------------


    POTLOK:  cpu time    0.2711: real time    0.2717
    SETDIJ:  cpu time    0.0422: real time    0.0423
     EDDAV:  cpu time    7.4131: real time    7.4306
    CHARGE:  cpu time    0.4503: real time    0.4513
    MIXING:  cpu time    0.0068: real time    0.0068
    --------------------------------------------
      LOOP:  cpu time    8.1834: real time    8.2028

 eigenvalue-minimisations  :  2496
 total energy-change (2. order) : 0.1012655E+03  (-0.2889838E+02)
 number of electron     696.0000030 magnetization      12.0614485
 augmentation part      174.2661050 magnetization       9.3933326

 Broyden mixing:
  rms(total) = 0.67226E+01    rms(broyden)= 0.67225E+01
  rms(prec ) = 0.71976E+01
  weight for this iteration     100.00

 eigenvalues of (default mixing * dielectric matrix)
  average eigenvalue GAMMA=   0.7444
  0.7912  0.6977

 Free energy of the ion-electron system (eV)
  ---------------------------------------------------
  alpha Z        PSCENC =      4253.54376096
  Ewald energy   TEWEN  =    -45744.95403308
  -Hartree energ DENC   =    -12031.96145559
  -exchange      EXHF   =         0.00000000
  -V(xc)+E(xc)   XCENC  =      2615.96737214
  PAW double counting   =     62790.69900791   -63386.38383265
  entropy T*S    EENTRO =        -0.04883660
  eigenvalues    EBANDS =     -6526.28858324
  atomic energy  EATOM  =     57150.28677355
  Solvation  Ediel_sol  =         0.00000000
  ---------------------------------------------------
  free energy    TOTEN  =      -879.13982660 eV

  energy without entropy =     -879.09099000  energy(sigma->0) =     -879.11540830


--------------------------------------------------------------------------------------------------------




--------------------------------------- Iteration      1(   8)  ---------------------------------------


    POTLOK:  cpu time    0.2598: real time    0.2604
    SETDIJ:  cpu time    0.0424: real time    0.0425
     EDDAV:  cpu time    7.3193: real time    7.3367
    CHARGE:  cpu time    0.4314: real time    0.4324
    MIXING:  cpu time    0.0063: real time    0.0063
    --------------------------------------------
      LOOP:  cpu time    8.0591: real time    8.0783

 eigenvalue-minimisations  :  2448
 total energy-change (2. order) :-0.1691467E+03  (-0.4451335E+02)
 number of electron     696.0000011 magnetization      10.8952457
 augmentation part      141.1334710 magnetization      10.6342339

 Broyden mixing:
  rms(total) = 0.16364E+02    rms(broyden)= 0.16363E+02
  rms(prec ) = 0.20568E+02
  weight for this iteration     100.00

 eigenvalues of (default mixing * dielectric matrix)
  average eigenvalue GAMMA=   0.6090
  1.1364  0.5135  0.1772

 Free energy of the ion-electron system (eV)
  ---------------------------------------------------
  alpha Z        PSCENC =      4253.54376096
  Ewald energy   TEWEN  =    -45744.95403308
  -Hartree energ DENC   =    -12063.18164536
  -exchange      EXHF   =         0.00000000
  -V(xc)+E(xc)   XCENC  =      2608.63163131
  PAW double counting   =     71078.19749605   -71752.26148831
  entropy T*S    EENTRO =        -0.00000000
  eigenvalues    EBANDS =     -6578.54903706
  atomic energy  EATOM  =     57150.28677355
  Solvation  Ediel_sol  =         0.00000000
  ---------------------------------------------------
  free energy    TOTEN  =     -1048.28654194 eV

  energy without entropy =    -1048.28654194  energy(sigma->0) =    -1048.28654194


--------------------------------------------------------------------------------------------------------




--------------------------------------- Iteration      1(   9)  ---------------------------------------


    POTLOK:  cpu time    0.2637: real time    0.2644
    SETDIJ:  cpu time    0.0419: real time    0.0420
     EDDAV:  cpu time    7.4287: real time    7.4464
    CHARGE:  cpu time    0.4517: real time    0.4528
    MIXING:  cpu time    0.0065: real time    0.0065
    --------------------------------------------
      LOOP:  cpu time    8.1925: real time    8.2120

 eigenvalue-minimisations  :  2512
 total energy-change (2. order) : 0.1832944E+03  (-0.5273482E+01)
 number of electron     696.0000028 magnetization       7.9777058
 augmentation part      170.1497238 magnetization       7.4214553

 Broyden mixing:
  rms(total) = 0.30590E+01    rms(broyden)= 0.30572E+01
  rms(prec ) = 0.33635E+01
  weight for this iteration     100.00

 eigenvalues of (default mixing * dielectric matrix)
  average eigenvalue GAMMA=   0.7861
  1.8193  0.5749  0.5749  0.1755

 Free energy of the ion-electron system (eV)
  ---------------------------------------------------
  alpha Z        PSCENC =      4253.54376096
  Ewald energy   TEWEN  =    -45744.95403308
  -Hartree energ DENC   =    -11877.81178882
  -exchange      EXHF   =         0.00000000
  -V(xc)+E(xc)   XCENC  =      2600.32344032
  PAW double counting   =     74406.16918668   -75043.69499016
  entropy T*S    EENTRO =        -0.04427854
  eigenvalues    EBANDS =     -6608.81025373
  atomic energy  EATOM  =     57150.28677355
  Solvation  Ediel_sol  =         0.00000000
  ---------------------------------------------------
  free energy    TOTEN  =      -864.99218282 eV

  energy without entropy =     -864.94790428  energy(sigma->0) =     -864.97004355


--------------------------------------------------------------------------------------------------------




--------------------------------------- Iteration      1(  10)  ---------------------------------------


    POTLOK:  cpu time    0.2669: real time    0.2675
    SETDIJ:  cpu time    0.0433: real time    0.0434
     EDDAV:  cpu time    7.7379: real time    7.7562
    CHARGE:  cpu time    0.4493: real time    0.4503
    MIXING:  cpu time    0.0072: real time    0.0072
    --------------------------------------------
      LOOP:  cpu time    8.5045: real time    8.5246

 eigenvalue-minimisations  :  2624
 total energy-change (2. order) :-0.5997016E+02  (-0.4368524E+02)
 number of electron     696.0000018 magnetization       6.4529345
 augmentation part      160.7206987 magnetization       5.4945400

 Broyden mixing:
  rms(total) = 0.11172E+02    rms(broyden)= 0.11172E+02
  rms(prec ) = 0.13538E+02
  weight for this iteration     100.00

 eigenvalues of (default mixing * dielectric matrix)
  average eigenvalue GAMMA=   0.7262
  2.1402  0.5781  0.5781  0.2083  0.1261

 Free energy of the ion-electron system (eV)
  ---------------------------------------------------
  alpha Z        PSCENC =      4253.54376096
  Ewald energy   TEWEN  =    -45744.95403308
  -Hartree energ DENC   =    -11872.52317902
  -exchange      EXHF   =         0.00000000
  -V(xc)+E(xc)   XCENC  =      2601.78263765
  PAW double counting   =     80301.16459089   -80947.42265611
  entropy T*S    EENTRO =        -0.04908105
  eigenvalues    EBANDS =     -6666.79115165
  atomic energy  EATOM  =     57150.28677355
  Solvation  Ediel_sol  =         0.00000000
  ---------------------------------------------------
  free energy    TOTEN  =      -924.96233787 eV

  energy without entropy =     -924.91325682  energy(sigma->0) =     -924.93779734


--------------------------------------------------------------------------------------------------------




--------------------------------------- Iteration      1(  11)  ---------------------------------------


    POTLOK:  cpu time    0.2626: real time    0.2632
    SETDIJ:  cpu time    0.0422: real time    0.0423
     EDDAV:  cpu time    6.6010: real time    6.6166
    CHARGE:  cpu time    0.4471: real time    0.4482
    MIXING:  cpu time    0.0068: real time    0.0068
    --------------------------------------------
      LOOP:  cpu time    7.3597: real time    7.3772

 eigenvalue-minimisations  :  2160
 total energy-change (2. order) : 0.5491179E+02  (-0.1431201E+02)
 number of electron     696.0000030 magnetization       5.4198137
 augmentation part      174.3298946 magnetization       5.4670067

 Broyden mixing:
  rms(total) = 0.30019E+01    rms(broyden)= 0.30014E+01
  rms(prec ) = 0.37012E+01
  weight for this iteration     100.00

 eigenvalues of (default mixing * dielectric matrix)
  average eigenvalue GAMMA=   0.6742
  2.1778  0.6030  0.6030  0.2699  0.2699  0.1215

 Free energy of the ion-electron system (eV)
  ---------------------------------------------------
  alpha Z        PSCENC =      4253.54376096
  Ewald energy   TEWEN  =    -45744.95403308
  -Hartree energ DENC   =    -11862.19506441
  -exchange      EXHF   =         0.00000000
  -V(xc)+E(xc)   XCENC  =      2602.22566037
  PAW double counting   =     83354.57868903   -84002.85586805
  entropy T*S    EENTRO =        -0.07874721
  eigenvalues    EBANDS =     -6620.60171532
  atomic energy  EATOM  =     57150.28677355
  Solvation  Ediel_sol  =         0.00000000
  ---------------------------------------------------
  free energy    TOTEN  =      -870.05054417 eV

  energy without entropy =     -869.97179696  energy(sigma->0) =     -870.01117057


--------------------------------------------------------------------------------------------------------




--------------------------------------- Iteration      1(  12)  ---------------------------------------


    POTLOK:  cpu time    0.2618: real time    0.2624
    SETDIJ:  cpu time    0.0420: real time    0.0421
     EDDAV:  cpu time    7.1841: real time    7.2012
    CHARGE:  cpu time    0.4516: real time    0.4527
    MIXING:  cpu time    0.0076: real time    0.0077
    --------------------------------------------
      LOOP:  cpu time    7.9472: real time    7.9661

 eigenvalue-minimisations  :  2400
 total energy-change (2. order) : 0.2471836E+01  (-0.1548858E+01)
 number of electron     696.0000029 magnetization       5.0043166
 augmentation part      171.9488833 magnetization       5.7554778

 Broyden mixing:
  rms(total) = 0.25434E+01    rms(broyden)= 0.25429E+01
  rms(prec ) = 0.30199E+01
  weight for this iteration     100.00

 eigenvalues of (default mixing * dielectric matrix)
  average eigenvalue GAMMA=   0.5938
  2.1867  0.6013  0.6013  0.2559  0.2559  0.1424  0.1135

 Free energy of the ion-electron system (eV)
  ---------------------------------------------------
  alpha Z        PSCENC =      4253.54376096
  Ewald energy   TEWEN  =    -45744.95403308
  -Hartree energ DENC   =    -11874.83973929
  -exchange      EXHF   =         0.00000000
  -V(xc)+E(xc)   XCENC  =      2602.32129308
  PAW double counting   =     84007.74747361   -84660.09831280
  entropy T*S    EENTRO =        -0.04384208
  eigenvalues    EBANDS =     -6601.54208239
  atomic energy  EATOM  =     57150.28677355
  Solvation  Ediel_sol  =         0.00000000
  ---------------------------------------------------
  free energy    TOTEN  =      -867.57870844 eV

  energy without entropy =     -867.53486636  energy(sigma->0) =     -867.55678740


--------------------------------------------------------------------------------------------------------




--------------------------------------- Iteration      1(  13)  ---------------------------------------


    POTLOK:  cpu time    0.2673: real time    0.2679
    SETDIJ:  cpu time    0.0424: real time    0.0426
     EDDAV:  cpu time    7.5338: real time    7.5517
    CHARGE:  cpu time    0.4449: real time    0.4459
    MIXING:  cpu time    0.0070: real time    0.0070
    --------------------------------------------
      LOOP:  cpu time    8.2953: real time    8.3150

 eigenvalue-minimisations  :  2560
 total energy-change (2. order) : 0.6301900E+00  (-0.1964742E+00)
 number of electron     696.0000029 magnetization       4.4096041
 augmentation part      172.0117276 magnetization       4.9254240

 Broyden mixing:
  rms(total) = 0.23287E+01    rms(broyden)= 0.23286E+01
  rms(prec ) = 0.27933E+01
  weight for this iteration     100.00

 eigenvalues of (default mixing * dielectric matrix)
  average eigenvalue GAMMA=   0.6215
  2.1872  0.6079  0.6079  0.4339  0.4339  0.3451  0.2363  0.1202

 Free energy of the ion-electron system (eV)
  ---------------------------------------------------
  alpha Z        PSCENC =      4253.54376096
  Ewald energy   TEWEN  =    -45744.95403308
  -Hartree energ DENC   =    -11877.18641621
  -exchange      EXHF   =         0.00000000
  -V(xc)+E(xc)   XCENC  =      2602.46624558
  PAW double counting   =     84137.42456942   -84789.65378999
  entropy T*S    EENTRO =        -0.05387866
  eigenvalues    EBANDS =     -6598.82175005
  atomic energy  EATOM  =     57150.28677355
  Solvation  Ediel_sol  =         0.00000000
  ---------------------------------------------------
  free energy    TOTEN  =      -866.94851848 eV

  energy without entropy =     -866.89463981  energy(sigma->0) =     -866.92157915


--------------------------------------------------------------------------------------------------------




--------------------------------------- Iteration      1(  14)  ---------------------------------------


    POTLOK:  cpu time    0.2585: real time    0.2591
    SETDIJ:  cpu time    0.0411: real time    0.0412
     EDDAV:  cpu time    7.7283: real time    7.7467
    CHARGE:  cpu time    0.4119: real time    0.4129
    MIXING:  cpu time    0.0078: real time    0.0078
    --------------------------------------------
      LOOP:  cpu time    8.4476: real time    8.4677

 eigenvalue-minimisations  :  2688
 total energy-change (2. order) : 0.1072595E+01  (-0.8317926E-01)
 number of electron     696.0000029 magnetization       3.3482761
 augmentation part      171.1648572 magnetization       5.1204381

 Broyden mixing:
  rms(total) = 0.17959E+01    rms(broyden)= 0.17958E+01
  rms(prec ) = 0.21282E+01
  weight for this iteration     100.00

 eigenvalues of (default mixing * dielectric matrix)
  average eigenvalue GAMMA=   0.6562
  2.2403  0.6123  0.6123  0.6507  0.6507  0.3979  0.3979  0.2239  0.1201

 Free energy of the ion-electron system (eV)
  ---------------------------------------------------
  alpha Z        PSCENC =      4253.54376096
  Ewald energy   TEWEN  =    -45744.95403308
  -Hartree energ DENC   =    -11884.93385924
  -exchange      EXHF   =         0.00000000
  -V(xc)+E(xc)   XCENC  =      2602.96239327
  PAW double counting   =     84043.47650342   -84695.53918269
  entropy T*S    EENTRO =        -0.08440710
  eigenvalues    EBANDS =     -6590.63387290
  atomic energy  EATOM  =     57150.28677355
  Solvation  Ediel_sol  =         0.00000000
  ---------------------------------------------------
  free energy    TOTEN  =      -865.87592381 eV

  energy without entropy =     -865.79151670  energy(sigma->0) =     -865.83372025


--------------------------------------------------------------------------------------------------------




--------------------------------------- Iteration      1(  15)  ---------------------------------------


    POTLOK:  cpu time    0.2554: real time    0.2560
    SETDIJ:  cpu time    0.0416: real time    0.0417
     EDDAV:  cpu time    7.0648: real time    7.0816
    CHARGE:  cpu time    0.4281: real time    0.4291
    MIXING:  cpu time    0.0082: real time    0.0082
    --------------------------------------------
      LOOP:  cpu time    7.7981: real time    7.8166

 eigenvalue-minimisations  :  2464
 total energy-change (2. order) : 0.2482746E+00  (-0.1671392E+00)
 number of electron     696.0000028 magnetization       3.0163819
 augmentation part      170.0148666 magnetization       5.8248359

 Broyden mixing:
  rms(total) = 0.14323E+01    rms(broyden)= 0.14318E+01
  rms(prec ) = 0.15167E+01
  weight for this iteration     100.00

 eigenvalues of (default mixing * dielectric matrix)
  average eigenvalue GAMMA=   0.6352
  2.2566  0.6201  0.6201  0.6662  0.6662  0.4440  0.3659  0.3659  0.2266  0.1201

 Free energy of the ion-electron system (eV)
  ---------------------------------------------------
  alpha Z        PSCENC =      4253.54376096
  Ewald energy   TEWEN  =    -45744.95403308
  -Hartree energ DENC   =    -11888.62972239
  -exchange      EXHF   =         0.00000000
  -V(xc)+E(xc)   XCENC  =      2603.38660646
  PAW double counting   =     84218.98638960   -84870.50137746
  entropy T*S    EENTRO =        -0.07786000
  eigenvalues    EBANDS =     -6587.66818689
  atomic energy  EATOM  =     57150.28677355
  Solvation  Ediel_sol  =         0.00000000
  ---------------------------------------------------
  free energy    TOTEN  =      -865.62764924 eV

  energy without entropy =     -865.54978924  energy(sigma->0) =     -865.58871924


--------------------------------------------------------------------------------------------------------




--------------------------------------- Iteration      1(  16)  ---------------------------------------


    POTLOK:  cpu time    0.2585: real time    0.2592
    SETDIJ:  cpu time    0.0406: real time    0.0407
     EDDAV:  cpu time    6.5075: real time    6.5230
    CHARGE:  cpu time    0.4543: real time    0.4554
    MIXING:  cpu time    0.0086: real time    0.0086
    --------------------------------------------
      LOOP:  cpu time    7.2696: real time    7.2868

 eigenvalue-minimisations  :  2272
 total energy-change (2. order) :-0.3084838E+00  (-0.1360134E-01)
 number of electron     696.0000028 magnetization       1.2573855
 augmentation part      170.2712854 magnetization       3.5758457

 Broyden mixing:
  rms(total) = 0.13292E+01    rms(broyden)= 0.13292E+01
  rms(prec ) = 0.14628E+01
  weight for this iteration     100.00

 eigenvalues of (default mixing * dielectric matrix)
  average eigenvalue GAMMA=   0.6892
  2.2626  0.8187  0.8187  0.5349  0.5349  0.6981  0.6669  0.4502  0.4502  0.2254
  0.1201

 Free energy of the ion-electron system (eV)
  ---------------------------------------------------
  alpha Z        PSCENC =      4253.54376096
  Ewald energy   TEWEN  =    -45744.95403308
  -Hartree energ DENC   =    -11888.08065999
  -exchange      EXHF   =         0.00000000
  -V(xc)+E(xc)   XCENC  =      2603.45913044
  PAW double counting   =     84272.55560130   -84923.60760635
  entropy T*S    EENTRO =        -0.08079179
  eigenvalues    EBANDS =     -6589.05830804
  atomic energy  EATOM  =     57150.28677355
  Solvation  Ediel_sol  =         0.00000000
  ---------------------------------------------------
  free energy    TOTEN  =      -865.93613300 eV

  energy without entropy =     -865.85534121  energy(sigma->0) =     -865.89573711


--------------------------------------------------------------------------------------------------------




--------------------------------------- Iteration      1(  17)  ---------------------------------------


    POTLOK:  cpu time    0.2638: real time    0.2645
    SETDIJ:  cpu time    0.0425: real time    0.0426
     EDDAV:  cpu time    7.0386: real time    7.0553
    CHARGE:  cpu time    0.4550: real time    0.4560
    MIXING:  cpu time    0.0088: real time    0.0089
    --------------------------------------------
      LOOP:  cpu time    7.8087: real time    7.8273

 eigenvalue-minimisations  :  2432
 total energy-change (2. order) :-0.5462347E+00  (-0.3524866E-01)
 number of electron     696.0000028 magnetization      -2.1507152
 augmentation part      170.4245650 magnetization      -0.2892808

 Broyden mixing:
  rms(total) = 0.13494E+01    rms(broyden)= 0.13494E+01
  rms(prec ) = 0.15345E+01
  weight for this iteration     100.00

 eigenvalues of (default mixing * dielectric matrix)
  average eigenvalue GAMMA=   0.7054
  2.2748  0.8098  0.8098  0.9308  0.6327  0.6327  0.6283  0.4978  0.4510  0.4510
  0.2256  0.1201

 Free energy of the ion-electron system (eV)
  ---------------------------------------------------
  alpha Z        PSCENC =      4253.54376096
  Ewald energy   TEWEN  =    -45744.95403308
  -Hartree energ DENC   =    -11889.35912791
  -exchange      EXHF   =         0.00000000
  -V(xc)+E(xc)   XCENC  =      2604.01396660
  PAW double counting   =     84340.58476843   -84989.91135906
  entropy T*S    EENTRO =        -0.07878307
  eigenvalues    EBANDS =     -6590.60833412
  atomic energy  EATOM  =     57150.28677355
  Solvation  Ediel_sol  =         0.00000000
  ---------------------------------------------------
  free energy    TOTEN  =      -866.48236770 eV

  energy without entropy =     -866.40358463  energy(sigma->0) =     -866.44297616


--------------------------------------------------------------------------------------------------------




--------------------------------------- Iteration      1(  18)  ---------------------------------------


    POTLOK:  cpu time    0.2719: real time    0.2726
    SETDIJ:  cpu time    0.0457: real time    0.0458
     EDDAV:  cpu time    6.5138: real time    6.5292
    CHARGE:  cpu time    0.4283: real time    0.4293
    MIXING:  cpu time    0.0094: real time    0.0095
    --------------------------------------------
      LOOP:  cpu time    7.2691: real time    7.2864

 eigenvalue-minimisations  :  2448
 total energy-change (2. order) :-0.3375912E+00  (-0.7550246E-01)
 number of electron     696.0000028 magnetization      -4.9211881
 augmentation part      170.2155041 magnetization      -3.0464859

 Broyden mixing:
  rms(total) = 0.15195E+01    rms(broyden)= 0.15194E+01
  rms(prec ) = 0.16628E+01
  weight for this iteration     100.00

 eigenvalues of (default mixing * dielectric matrix)
  average eigenvalue GAMMA=   0.7341
  2.2809  1.0596  0.6788  0.6788  0.8418  0.8418  0.7122  0.5380  0.5380  0.5141
  0.5141  0.2255  0.1201

 Free energy of the ion-electron system (eV)
  ---------------------------------------------------
  alpha Z        PSCENC =      4253.54376096
  Ewald energy   TEWEN  =    -45744.95403308
  -Hartree energ DENC   =    -11891.49108388
  -exchange      EXHF   =         0.00000000
  -V(xc)+E(xc)   XCENC  =      2605.31190615
  PAW double counting   =     84404.93170919   -85050.97960089
  entropy T*S    EENTRO =        -0.06695631
  eigenvalues    EBANDS =     -6593.40243456
  atomic energy  EATOM  =     57150.28677355
  Solvation  Ediel_sol  =         0.00000000
  ---------------------------------------------------
  free energy    TOTEN  =      -866.81995888 eV

  energy without entropy =     -866.75300257  energy(sigma->0) =     -866.78648073


--------------------------------------------------------------------------------------------------------




--------------------------------------- Iteration      1(  19)  ---------------------------------------


    POTLOK:  cpu time    0.2483: real time    0.2489
    SETDIJ:  cpu time    0.0422: real time    0.0423
     EDDAV:  cpu time    7.3479: real time    7.3653
    CHARGE:  cpu time    0.4543: real time    0.4554
    MIXING:  cpu time    0.0097: real time    0.0097
    --------------------------------------------
      LOOP:  cpu time    8.1024: real time    8.1216

 eigenvalue-minimisations  :  2480
 total energy-change (2. order) :-0.8349838E-01  (-0.5243033E-01)
 number of electron     696.0000028 magnetization      -6.2269591
 augmentation part      169.4682094 magnetization      -2.9153073

 Broyden mixing:
  rms(total) = 0.88269E+00    rms(broyden)= 0.88229E+00
  rms(prec ) = 0.93417E+00
  weight for this iteration     100.00

 eigenvalues of (default mixing * dielectric matrix)
  average eigenvalue GAMMA=   0.7304
  2.2517  1.3359  0.6917  0.6917  0.6665  0.6665  0.7199  0.7199  0.6734  0.5273
  0.4678  0.4678  0.2255  0.1201

 Free energy of the ion-electron system (eV)
  ---------------------------------------------------
  alpha Z        PSCENC =      4253.54376096
  Ewald energy   TEWEN  =    -45744.95403308
  -Hartree energ DENC   =    -11892.90556733
  -exchange      EXHF   =         0.00000000
  -V(xc)+E(xc)   XCENC  =      2606.00329402
  PAW double counting   =     84377.78213859   -85021.54131320
  entropy T*S    EENTRO =        -0.01492935
  eigenvalues    EBANDS =     -6595.10358143
  atomic energy  EATOM  =     57150.28677355
  Solvation  Ediel_sol  =         0.00000000
  ---------------------------------------------------
  free energy    TOTEN  =      -866.90345726 eV

  energy without entropy =     -866.88852791  energy(sigma->0) =     -866.89599258


--------------------------------------------------------------------------------------------------------




--------------------------------------- Iteration      1(  20)  ---------------------------------------


    POTLOK:  cpu time    0.2701: real time    0.2707
    SETDIJ:  cpu time    0.0440: real time    0.0441
     EDDAV:  cpu time    7.1604: real time    7.1774
    CHARGE:  cpu time    0.4472: real time    0.4482
    MIXING:  cpu time    0.0098: real time    0.0098
    --------------------------------------------
      LOOP:  cpu time    7.9314: real time    7.9502

 eigenvalue-minimisations  :  2448
 total energy-change (2. order) :-0.9134581E-01  (-0.2722170E-01)
 number of electron     696.0000027 magnetization      -6.6584606
 augmentation part      169.2526135 magnetization      -3.3793423

 Broyden mixing:
  rms(total) = 0.60940E+00    rms(broyden)= 0.60932E+00
  rms(prec ) = 0.65124E+00
  weight for this iteration     100.00

 eigenvalues of (default mixing * dielectric matrix)
  average eigenvalue GAMMA=   0.7665
  2.2235  1.2968  1.2968  0.7284  0.7284  0.6960  0.6960  0.7328  0.7328  0.4991
  0.4991  0.5111  0.5111  0.2255  0.1201

 Free energy of the ion-electron system (eV)
  ---------------------------------------------------
  alpha Z        PSCENC =      4253.54376096
  Ewald energy   TEWEN  =    -45744.95403308
[...]
     10.03858     10.26432      5.81398         0.007306      0.002059     -0.003106
     11.51673      5.15888      6.72827         0.014433      0.011425     -0.007509
      4.35981      5.14117      4.20868         0.002872      0.000000      0.004975
      5.77429     10.28234      3.36954        -0.000963      0.000000      0.001668
      5.75481     -0.00000      5.01409        -0.005744      0.000000     -0.000000
      5.77429      5.14117      6.65864        -0.000963      0.000000     -0.001668
      2.92585     -0.00000      5.01409         0.001926      0.000000     -0.000000
      4.35981     10.28234      5.81949         0.002872      0.000000     -0.004975
      4.39615      7.68749      7.43406         0.001601     -0.003212      0.004099
      8.70362     12.85448      1.66999         0.001529     -0.001039     -0.004156
      1.40147      2.62323      0.78631        -0.009058      0.002212      0.005453
      7.21744      7.65910      7.45663         0.009252     -0.002212     -0.005118
      2.89343     12.85292      1.66885        -0.005867      0.000000     -0.010163
      4.36129      2.56902      0.83706         0.001529      0.001039      0.004156
     10.12380      7.71019      7.50402         0.002834      0.001039     -0.003402
      5.74380     12.80027      1.72073        -0.009058     -0.002212     -0.005453
      7.23576      2.57058      0.83819        -0.005867      0.000000      0.010163
      7.21744      7.76440      2.57154         0.009252      0.002212      0.005118
      7.13489     12.82866      4.17533         0.002750     -0.003212     -0.003436
      8.67398      2.57214      3.32699        -0.004363     -0.001039      0.000754
     10.12380      7.71331      2.52415         0.002834     -0.001039      0.003402
     10.19784     12.90557      4.16328        -0.000194      0.002212     -0.010571
      2.94338      2.54632      3.43288        -0.004351     -0.003212     -0.000663
      4.39615      7.73601      2.59412         0.001601      0.003212     -0.004099
      4.38262     12.85292      4.24820         0.002270      0.000000      0.003931
      5.75205      2.57058      3.40806         0.005626      0.000000     -0.009745
      5.70918      7.71175      5.01409        -0.004540      0.000000     -0.000000
      5.75205     12.85292      6.62011         0.005626      0.000000      0.009745
      7.13489      2.59485      5.85285         0.002750      0.003212      0.003436
      8.68755      7.71175      5.01409         0.011735      0.000000     -0.000000
      8.67398     12.85136      6.70119        -0.004363      0.001039     -0.000754
     10.19784      2.51793      5.86490        -0.000194     -0.002212      0.010571
      2.97033      7.71175      5.01409        -0.011252      0.000000     -0.000000
     11.62803     12.87718      6.59530        -0.004351      0.003212      0.000663
      4.38262      2.57058      5.77997         0.002270      0.000000     -0.003931
      8.67674     11.47559      0.01558        -0.001216     -0.005670     -0.000474
      4.34237      3.95024      7.52235        -0.000387      0.005327      0.004946
      8.68681      1.46900      1.69956        -0.005081      0.003702      0.003021
      8.65495      8.99804      1.64735        -0.000007      0.000055      0.001009
      1.45739      6.35383      0.85652         0.002770     -0.005417      0.001587
      1.45071     14.02449      0.78325        -0.001063      0.008633      0.001596
      7.19017     11.68135      7.49775         0.001914     -0.008633     -0.000123
      2.90796      3.92851      0.01904        -0.000010      0.005417      0.003192
      2.88674      1.43124      1.71182        -0.001113     -0.009658     -0.001316
      2.93399      8.85110      1.68453        -0.000583      0.009658     -0.001622
      4.31262      6.42546      0.85969        -0.000007     -0.000055     -0.001009
      4.34448     13.95450      0.80749        -0.005081     -0.003702     -0.003021
      5.82542     11.56663      0.01372        -0.000871     -0.000055      0.000510
      5.76427      3.67216      0.01223        -0.000076     -0.003702      0.005911
      5.79304      1.39901      1.72379        -0.001063     -0.008633     -0.001596
      5.79972      9.06967      1.65052         0.002770      0.005417     -0.001587
      7.27632      6.57241      0.82251        -0.000583     -0.009658      0.001622
      7.22906     13.99226      0.79523        -0.001113      0.009658      0.001316
      7.25029     11.49500      2.48801        -0.000010     -0.005417     -0.003192
      7.19017      3.74215      2.53042         0.001914      0.008633      0.000123
      7.25466      1.19326      4.17747         0.000197     -0.005670      0.001290
      7.23824      9.09141      4.17776         0.004477      0.005327     -0.002138
      8.70800      6.61017      3.32676         0.005157      0.003702      0.002890
      8.67871     14.13921      3.38046         0.000877      0.000055     -0.000499
     10.10660     11.75134      2.49481        -0.000076      0.003702     -0.005911
      1.48309      3.85687      2.49332        -0.000871      0.000055     -0.000510
     10.10907      1.21266      4.17660        -0.002759     -0.005417      0.001605
     10.17587      8.88332      4.20745        -0.000851      0.008633     -0.001719
      2.88535      6.33442      3.32808         0.001019     -0.005670     -0.000816
      2.89381     14.23257      3.34215        -0.004090      0.005327     -0.002808
      4.34237     11.47327      2.50583        -0.000387     -0.005327     -0.004946
      4.33441      3.94791      2.49146        -0.001216      0.005670      0.000474
      4.34202      1.18100      4.12814        -0.002454     -0.012610     -0.004563
      4.29895      9.10134      4.15300        -0.002725      0.012610     -0.004407
      5.79611      6.35450      3.34144         0.002589     -0.006249      0.001420
      5.78771     14.21017      3.33659        -0.002524      0.006249     -0.001532
      5.83346     11.46334      5.03895         0.005179     -0.012610      0.000156
      5.83346      3.96017      4.98922         0.005179      0.012610     -0.000156
      5.78771      1.21333      6.69158        -0.002524     -0.006249      0.001532
      5.79611      9.06900      6.68674         0.002589      0.006249     -0.001420
      7.23824      6.33210      5.85041         0.004477     -0.005327      0.002138
      7.25466     14.23025      5.85070         0.000197      0.005670     -0.001290
      8.65369     11.71358      4.98680         0.001696     -0.009658     -0.000306
      8.65369      3.70993      5.04137         0.001696      0.009658      0.000306
      8.67871      1.28430      6.64772         0.000877     -0.000055      0.000499
      8.70800      8.81333      6.70141         0.005157     -0.003702     -0.002890
     10.17587      6.54018      5.82072        -0.000851     -0.008633      0.001719
     10.10907     14.21084      5.85158        -0.002759      0.005417     -0.001605
     11.57525     11.49567      5.00924        -0.000065     -0.006249     -0.002952
     11.57525      3.92783      5.01894        -0.000065      0.006249      0.002952
     11.57846      1.19093      6.68602        -0.004090     -0.005327      0.002808
     11.57000      9.08908      6.70009         0.001019      0.005670      0.000816
      4.29895      6.32217      5.87517        -0.002725     -0.012610      0.004407
      4.34202     14.24250      5.90004        -0.002454      0.012610      0.004563
 -----------------------------------------------------------------------------------
    total drift:                                0.003834     -0.000528     -0.000836


--------------------------------------------------------------------------------------------------------



  FREE ENERGIE OF THE ION-ELECTRON SYSTEM (eV)
  ---------------------------------------------------
  free  energy   TOTEN  =      -867.1183707329 eV

  energy  without entropy=     -867.1183706602  energy(sigma->0) =     -867.11837070
 
 d Force = 0.2663272E-03[ 0.314E-03, 0.218E-03]  d Energy = 0.2271558E-02-0.201E-02
 d Force =-0.8178226E+01[-0.819E+01,-0.817E+01]  d Ewald  =-0.3831003E+02 0.301E+02


--------------------------------------------------------------------------------------------------------


    POTLOK:  cpu time    0.3039: real time    0.3046


--------------------------------------------------------------------------------------------------------


 Quasi-Newton relaxation of ions (Broydens 2nd method)
  g(Force)  = 0.403E-03   g(Stress)= 0.321E-04

 retain information from N=  2 steps
 eigenvalues of (default step * inverse Hessian matrix)
  average eigenvalue of G=   0.8752
 eigenvalue spectrum of G is  0.8752  0.8752


--------------------------------------------------------------------------------------------------------


  
 reached required accuracy - stopping structural energy minimisation
     LOOP+:  cpu time   65.8674: real time   66.1390
    4ORBIT:  cpu time    0.0000: real time    0.0000

volume of typ            1:    21.0 %

volume of typ            2:     3.8 %

volume of typ            3:    20.9 %

volume of typ            4:     8.7 %
 
total charge     
 
# of ion       s       p       d       tot
------------------------------------------
    1        0.242   6.096   2.164   8.501
    2        0.227   6.077   2.246   8.550
    3        0.228   6.078   2.243   8.550
    4        0.228   6.078   2.243   8.550
    5        0.263   6.142   2.009   8.414
    6        0.227   6.077   2.246   8.550
    7        0.227   6.077   2.246   8.550
    8        0.228   6.078   2.243   8.550
    9        0.263   6.142   2.009   8.414
   10        0.228   6.078   2.243   8.550
   11        0.242   6.096   2.164   8.501
   12        0.227   6.077   2.246   8.550
   13        0.227   6.077   2.246   8.550
   14        0.228   6.078   2.243   8.550
   15        0.242   6.096   2.164   8.501
   16        0.242   6.096   2.164   8.501
   17        0.242   6.096   2.164   8.501
   18        0.263   6.142   2.009   8.414
   19        0.227   6.077   2.246   8.550
   20        0.228   6.078   2.243   8.550
   21        0.242   6.096   2.164   8.501
   22        0.207   0.237   7.940   8.383
   23        0.207   0.238   7.942   8.388
   24        0.207   0.237   7.940   8.383
   25        0.207   0.238   7.942   8.388
   26        0.207   0.238   7.942   8.388
   27        0.207   0.237   7.940   8.383
   28        2.076   0.252   0.099   2.427
   29        2.087   0.292   0.122   2.501
   30        2.081   0.268   0.109   2.458
   31        2.081   0.268   0.109   2.458
   32        2.089   0.297   0.125   2.510
   33        2.087   0.292   0.122   2.501
   34        2.087   0.292   0.122   2.501
   35        2.081   0.268   0.109   2.458
   36        2.089   0.297   0.125   2.510
   37        2.081   0.268   0.109   2.458
   38        2.076   0.252   0.099   2.427
   39        2.087   0.292   0.122   2.501
   40        2.087   0.292   0.122   2.501
   41        2.081   0.268   0.109   2.458
   42        2.076   0.252   0.099   2.427
   43        2.076   0.252   0.099   2.427
   44        2.064   0.213   0.078   2.355
   45        2.078   0.261   0.104   2.444
   46        2.064   0.213   0.078   2.355
   47        2.078   0.261   0.104   2.444
   48        2.076   0.252   0.099   2.427
   49        2.089   0.297   0.125   2.510
   50        2.087   0.292   0.122   2.501
   51        2.081   0.268   0.109   2.458
   52        2.078   0.261   0.104   2.444
   53        2.076   0.252   0.099   2.427
   54        2.064   0.213   0.078   2.355
   55        1.246   2.842   0.006   4.094
   56        1.244   2.838   0.005   4.087
   57        1.243   2.848   0.006   4.096
   58        1.246   2.844   0.006   4.096
   59        1.246   2.843   0.005   4.094
   60        1.245   2.848   0.007   4.099
   61        1.245   2.848   0.007   4.099
   62        1.246   2.843   0.005   4.094
   63        1.244   2.842   0.006   4.092
   64        1.244   2.842   0.006   4.092
   65        1.246   2.844   0.006   4.096
   66        1.243   2.848   0.006   4.096
   67        1.246   2.844   0.006   4.096
   68        1.243   2.848   0.006   4.096
   69        1.245   2.848   0.007   4.099
   70        1.246   2.843   0.005   4.094
   71        1.244   2.842   0.006   4.092
   72        1.244   2.842   0.006   4.092
   73        1.246   2.843   0.005   4.094
   74        1.245   2.848   0.007   4.099
   75        1.246   2.842   0.006   4.094
   76        1.244   2.838   0.005   4.087
   77        1.243   2.848   0.006   4.096
   78        1.246   2.844   0.006   4.096
   79        1.243   2.848   0.006   4.096
   80        1.246   2.844   0.006   4.096
   81        1.246   2.843   0.005   4.094
   82        1.245   2.848   0.007   4.099
   83        1.246   2.842   0.006   4.094
   84        1.244   2.838   0.005   4.087
   85        1.244   2.838   0.005   4.087
   86        1.246   2.842   0.006   4.094
   87        1.243   2.831   0.005   4.078
   88        1.243   2.831   0.005   4.078
   89        1.243   2.838   0.005   4.085
   90        1.243   2.838   0.005   4.085
   91        1.243   2.831   0.005   4.078
   92        1.243   2.831   0.005   4.078
   93        1.243   2.838   0.005   4.085
   94        1.243   2.838   0.005   4.085
   95        1.244   2.838   0.005   4.087
   96        1.246   2.842   0.006   4.094
   97        1.244   2.842   0.006   4.092
   98        1.244   2.842   0.006   4.092
   99        1.246   2.844   0.006   4.096
  100        1.243   2.848   0.006   4.096
  101        1.245   2.848   0.007   4.099
  102        1.246   2.843   0.005   4.094
  103        1.243   2.838   0.005   4.085
  104        1.243   2.838   0.005   4.085
  105        1.244   2.838   0.005   4.087
  106        1.246   2.842   0.006   4.094
  107        1.243   2.831   0.005   4.078
  108        1.243   2.831   0.005   4.078
--------------------------------------------------
tot         129.56  289.97   96.80  516.34
 
magnetization (x)
 
# of ion       s       p       d       tot
------------------------------------------
    1        0.000   0.000  -0.011  -0.010
    2       -0.000  -0.000  -0.017  -0.017
    3       -0.000  -0.000  -0.018  -0.018
    4       -0.000  -0.000  -0.018  -0.018
    5        0.000   0.001   0.003   0.004
    6       -0.000  -0.000  -0.017  -0.017
    7       -0.000  -0.000  -0.017  -0.017
    8       -0.000  -0.000  -0.018  -0.018
    9        0.000   0.001   0.003   0.004
   10       -0.000  -0.000  -0.018  -0.018
   11        0.000   0.000  -0.011  -0.010
   12       -0.000  -0.000  -0.017  -0.017
   13       -0.000  -0.000  -0.017  -0.017
   14       -0.000  -0.000  -0.018  -0.018
   15        0.000   0.000  -0.011  -0.010
   16        0.000   0.000  -0.011  -0.010
   17        0.000   0.000  -0.011  -0.010
   18        0.000   0.001   0.003   0.004
   19       -0.000  -0.000  -0.017  -0.017
   20       -0.000  -0.000  -0.018  -0.018
   21        0.000   0.000  -0.011  -0.010
   22       -0.001  -0.001  -1.464  -1.466
   23       -0.001  -0.001  -1.459  -1.462
   24       -0.001  -0.001  -1.464  -1.466
   25       -0.001  -0.001  -1.459  -1.462
   26       -0.001  -0.001  -1.459  -1.462
   27       -0.001  -0.001  -1.464  -1.466
   28       -0.001  -0.003  -0.001  -0.004
   29       -0.002  -0.004  -0.001  -0.006
   30       -0.001  -0.002  -0.000  -0.003
   31       -0.001  -0.002  -0.000  -0.003
   32       -0.002  -0.004  -0.001  -0.007
   33       -0.002  -0.004  -0.001  -0.006
   34       -0.002  -0.004  -0.001  -0.006
   35       -0.001  -0.002  -0.000  -0.003
   36       -0.002  -0.004  -0.001  -0.007
   37       -0.001  -0.002  -0.000  -0.003
   38       -0.001  -0.003  -0.001  -0.004
   39       -0.002  -0.004  -0.001  -0.006
   40       -0.002  -0.004  -0.001  -0.006
   41       -0.001  -0.002  -0.000  -0.003
   42       -0.001  -0.003  -0.001  -0.004
   43       -0.001  -0.003  -0.001  -0.004
   44        0.001   0.001   0.000   0.002
   45       -0.002  -0.005  -0.001  -0.008
   46        0.001   0.001   0.000   0.002
   47       -0.002  -0.005  -0.001  -0.008
   48       -0.001  -0.003  -0.001  -0.004
   49       -0.002  -0.004  -0.001  -0.007
   50       -0.002  -0.004  -0.001  -0.006
   51       -0.001  -0.002  -0.000  -0.003
   52       -0.002  -0.005  -0.001  -0.008
   53       -0.001  -0.003  -0.001  -0.004
   54        0.001   0.001   0.000   0.002
   55       -0.004  -0.045  -0.000  -0.049
   56       -0.005  -0.061  -0.000  -0.066
   57       -0.000  -0.002  -0.000  -0.002
   58        0.000  -0.000  -0.000  -0.000
   59       -0.004  -0.045  -0.000  -0.049
   60       -0.000  -0.002  -0.000  -0.002
   61       -0.000  -0.002  -0.000  -0.002
   62       -0.004  -0.045  -0.000  -0.049
   63       -0.000  -0.003  -0.000  -0.003
   64       -0.000  -0.003  -0.000  -0.003
   65        0.000  -0.000  -0.000  -0.000
   66       -0.000  -0.002  -0.000  -0.002
   67        0.000  -0.000  -0.000  -0.000
   68       -0.000  -0.002  -0.000  -0.002
   69       -0.000  -0.002  -0.000  -0.002
   70       -0.004  -0.045  -0.000  -0.049
   71       -0.000  -0.003  -0.000  -0.003
   72       -0.000  -0.003  -0.000  -0.003
   73       -0.004  -0.045  -0.000  -0.049
   74       -0.000  -0.002  -0.000  -0.002
   75       -0.004  -0.045  -0.000  -0.049
   76       -0.005  -0.061  -0.000  -0.066
   77       -0.000  -0.002  -0.000  -0.002
   78        0.000  -0.000  -0.000  -0.000
   79       -0.000  -0.002  -0.000  -0.002
   80        0.000  -0.000  -0.000  -0.000
   81       -0.004  -0.045  -0.000  -0.049
   82       -0.000  -0.002  -0.000  -0.002
   83       -0.004  -0.045  -0.000  -0.049
   84       -0.005  -0.061  -0.000  -0.066
   85       -0.005  -0.061  -0.000  -0.066
   86       -0.004  -0.045  -0.000  -0.049
   87       -0.009  -0.118  -0.000  -0.127
   88       -0.009  -0.118  -0.000  -0.127
   89       -0.005  -0.061  -0.000  -0.066
   90       -0.005  -0.061  -0.000  -0.066
   91       -0.009  -0.118  -0.000  -0.127
   92       -0.009  -0.118  -0.000  -0.127
   93       -0.005  -0.061  -0.000  -0.066
   94       -0.005  -0.061  -0.000  -0.066
   95       -0.005  -0.061  -0.000  -0.066
   96       -0.004  -0.045  -0.000  -0.049
   97       -0.000  -0.003  -0.000  -0.003
   98       -0.000  -0.003  -0.000  -0.003
   99        0.000  -0.000  -0.000  -0.000
  100       -0.000  -0.002  -0.000  -0.002
  101       -0.000  -0.002  -0.000  -0.002
  102       -0.004  -0.045  -0.000  -0.049
  103       -0.005  -0.061  -0.000  -0.066
  104       -0.005  -0.061  -0.000  -0.066
  105       -0.005  -0.061  -0.000  -0.066
  106       -0.004  -0.045  -0.000  -0.049
  107       -0.009  -0.118  -0.000  -0.127
  108       -0.009  -0.118  -0.000  -0.127
--------------------------------------------------
tot          -0.20   -2.09   -9.06  -11.36
 

 total amount of memory used by VASP MPI-rank0   155798. kBytes
=======================================================================

   base      :      30000. kBytes
   nonlr-proj:      43708. kBytes
   fftplans  :       9702. kBytes
   grid      :      59236. kBytes
   one-center:       1679. kBytes
   wavefun   :      11473. kBytes
 
  
  
 General timing and accounting informations for this job:
 ========================================================
  
                  Total CPU time used (sec):      495.834
                            User time (sec):      491.067
                          System time (sec):        4.767
                         Elapsed time (sec):      502.011
  
                   Maximum memory used (kb):      210096.
                   Average memory used (kb):           0.
  
                          Minor page faults:        39732
                          Major page faults:           38
                 Voluntary context switches:         1267
