 vasp.5.4.4.18Apr17-6-g9f103f2a35 (build May 12 2020 05:39:39) gamma-only       
  
 MD_VERSION_INFO: Compiled 2020-05-12T12:39:39-UTC in devlin.sd.materialsdesign.
 com:/home/medea2/data/build/wwolf/vasp-gpu5.4.4/13047/x86_64/src/src/build/gam 
 from svn 13047
 
 This VASP executable licensed from Materials Design, Inc.
 
 executed on                        Lin64 date 2023.04.03  09:11:25
 running on   16 total cores
 distrk:  each k-point on   16 cores,    1 groups
 distr:  one band on NCORES_PER_BAND=   1 cores,   16 groups


--------------------------------------------------------------------------------------------------------


 INCAR:
 POTCAR:    PAW_PBE Ta_pv 07Sep2000               
 POTCAR:    PAW_PBE Ni 02Aug2007                  
 POTCAR:    PAW_PBE Li_sv 10Sep2004               
 POTCAR:    PAW_PBE O 08Apr2002                   

 ----------------------------------------------------------------------------- 
|                                                                             |
|           W    W    AA    RRRRR   N    N  II  N    N   GGGG   !!!           |
|           W    W   A  A   R    R  NN   N  II  NN   N  G    G  !!!           |
|           W    W  A    A  R    R  N N  N  II  N N  N  G       !!!           |
|           W WW W  AAAAAA  RRRRR   N  N N  II  N  N N  G  GGG   !            |
|           WW  WW  A    A  R   R   N   NN  II  N   NN  G    G                |
|           W    W  A    A  R    R  N    N  II  N    N   GGGG   !!!           |
|                                                                             |
|      For optimal performance we recommend to set                            |
|        NCORE= 4 - approx SQRT( number of cores)                             |
|      NCORE specifies how many cores store one orbital (NPAR=cpu/NCORE).     |
|      This setting can  greatly improve the performance of VASP for DFT.     |
|      The default,   NCORE=1            might be grossly inefficient         |
|      on modern multi-core architectures or massively parallel machines.     |
|      Do your own testing !!!!                                               |
|      Unfortunately you need to use the default for GW and RPA calculations. |
|      (for HF NCORE is supported but not extensively tested yet)             |
|                                                                             |
 ----------------------------------------------------------------------------- 

 POTCAR:    PAW_PBE Ta_pv 07Sep2000               
  local pseudopotential read in
  partial core-charges read in
  partial kinetic energy density read in
  atomic valenz-charges read in
  non local Contribution for L=           1  read in
    real space projection operators read in
  non local Contribution for L=           1  read in
    real space projection operators read in
  non local Contribution for L=           2  read in
    real space projection operators read in
  non local Contribution for L=           2  read in
    real space projection operators read in
  non local Contribution for L=           0  read in
    real space projection operators read in
  non local Contribution for L=           0  read in
    real space projection operators read in
    PAW grid and wavefunctions read in
 
   number of l-projection  operators is LMAX  =           6
   number of lm-projection operators is LMMAX =          18
 
 POTCAR:    PAW_PBE Ni 02Aug2007                  
  local pseudopotential read in
  partial core-charges read in
  partial kinetic energy density read in
  atomic valenz-charges read in
  non local Contribution for L=           2  read in
    real space projection operators read in
  non local Contribution for L=           2  read in
    real space projection operators read in
  non local Contribution for L=           0  read in
    real space projection operators read in
  non local Contribution for L=           0  read in
    real space projection operators read in
  non local Contribution for L=           1  read in
    real space projection operators read in
  non local Contribution for L=           1  read in
    real space projection operators read in
    PAW grid and wavefunctions read in
 
   number of l-projection  operators is LMAX  =           6
   number of lm-projection operators is LMMAX =          18
 
 POTCAR:    PAW_PBE Li_sv 10Sep2004               
  local pseudopotential read in
  atomic valenz-charges read in
  non local Contribution for L=           0  read in
    real space projection operators read in
  non local Contribution for L=           0  read in
    real space projection operators read in
  non local Contribution for L=           1  read in
    real space projection operators read in
    PAW grid and wavefunctions read in
 
   number of l-projection  operators is LMAX  =           3
   number of lm-projection operators is LMMAX =           5
 
 POTCAR:    PAW_PBE O 08Apr2002                   
  local pseudopotential read in
  partial core-charges read in
  partial kinetic energy density read in
  kinetic energy density of atom read in
  atomic valenz-charges read in
  non local Contribution for L=           0  read in
    real space projection operators read in
  non local Contribution for L=           0  read in
    real space projection operators read in
  non local Contribution for L=           1  read in
    real space projection operators read in
  non local Contribution for L=           1  read in
    real space projection operators read in
    PAW grid and wavefunctions read in
 
   number of l-projection  operators is LMAX  =           4
   number of lm-projection operators is LMMAX =           8
 
 Optimization of the real space projectors (new method)

 maximal supplied QI-value         = 15.12
 optimisation between [QCUT,QGAM] = [ 11.34, 22.83] = [ 36.00,145.93] Ry 
 Optimized for a Real-space Cutoff    1.61 Angstroem

   l    n(q)    QCUT    max X(q) W(low)/X(q) W(high)/X(q)  e(spline) 
   1     11    11.338     4.092    0.40E-05    0.64E-05    0.47E-07
   1     11    11.338     4.834    0.13E-04    0.44E-04    0.21E-06
   2     10    11.338    62.294    0.15E-03    0.31E-03    0.77E-06
   2     10    11.338    50.966    0.15E-03    0.31E-03    0.77E-06
   0     11    11.338   103.792    0.33E-04    0.19E-04    0.90E-07
   0     11    11.338    56.335    0.26E-04    0.17E-04    0.79E-07
 Optimization of the real space projectors (new method)

 maximal supplied QI-value         = 16.25
 optimisation between [QCUT,QGAM] = [ 11.38, 22.75] = [ 36.24,144.96] Ry 
 Optimized for a Real-space Cutoff    1.47 Angstroem

   l    n(q)    QCUT    max X(q) W(low)/X(q) W(high)/X(q)  e(spline) 
   2      9    11.376    60.317    0.17E-03    0.16E-04    0.16E-06
   2      9    11.376    55.921    0.17E-03    0.16E-04    0.17E-06
   0     10    11.376    51.690    0.45E-04    0.60E-04    0.21E-06
   0     10    11.376    30.015    0.37E-04    0.55E-04    0.19E-06
   1     10    11.376    18.849    0.83E-04    0.11E-03    0.92E-07
   1     10    11.376    14.624    0.69E-04    0.92E-04    0.82E-07
 Optimization of the real space projectors (new method)

 maximal supplied QI-value         = 22.11
 optimisation between [QCUT,QGAM] = [ 11.28, 22.77] = [ 35.61,145.23] Ry 
 Optimized for a Real-space Cutoff    1.10 Angstroem

   l    n(q)    QCUT    max X(q) W(low)/X(q) W(high)/X(q)  e(spline) 
   0      7    11.276    10.506    0.54E-04    0.58E-04    0.16E-07
   0      7    11.276     8.367    0.11E-03    0.14E-03    0.35E-07
   1      7    11.276     8.983    0.23E-03    0.43E-03    0.86E-07
 Optimization of the real space projectors (new method)

 maximal supplied QI-value         = 24.76
 optimisation between [QCUT,QGAM] = [ 11.39, 22.77] = [ 36.31,145.25] Ry 
 Optimized for a Real-space Cutoff    1.10 Angstroem

   l    n(q)    QCUT    max X(q) W(low)/X(q) W(high)/X(q)  e(spline) 
   0      7    11.387    20.381    0.22E-03    0.48E-03    0.18E-06
   0      7    11.387    15.268    0.22E-03    0.52E-03    0.19E-06
   1      7    11.387     5.964    0.22E-03    0.73E-03    0.24E-06
   1      7    11.387     5.382    0.19E-03    0.60E-03    0.21E-06

 ----------------------------------------------------------------------------- 
|                                                                             |
|  ADVICE TO THIS USER RUNNING 'VASP/VAMP'   (HEAR YOUR MASTER'S VOICE ...):  |
|                                                                             |
|      You enforced a specific xc-type in the INCAR file,                     |
|      a different type was found on the POTCAR file                          |
|          I HOPE YOU KNOW, WHAT YOU ARE  DOING                               |
|                                                                             |
 ----------------------------------------------------------------------------- 

  PAW_PBE Ta_pv 07Sep2000               :
 energy of atom  1       EATOM=-1047.1984
 kinetic energy error for atom=    0.0019 (will be added to EATOM!!)
  PAW_PBE Ni 02Aug2007                  :
 energy of atom  2       EATOM=-1077.6739
 kinetic energy error for atom=    0.0030 (will be added to EATOM!!)
  PAW_PBE Li_sv 10Sep2004               :
 energy of atom  3       EATOM= -202.7858
 kinetic energy error for atom=    0.0143 (will be added to EATOM!!)
  PAW_PBE O 08Apr2002                   :
 energy of atom  4       EATOM= -432.3788
 kinetic energy error for atom=    0.0224 (will be added to EATOM!!)
 
 
 POSCAR: ce74073_1                               
  positions in direct lattice
  No initial velocities read in
 exchange correlation table for  LEXCH =       14
   RHO(1)=    0.500       N(1)  =     2000
   RHO(2)=  100.500       N(2)  =     4000
 


--------------------------------------------------------------------------------------------------------


 ion  position               nearest neighbor table
   1  0.001  0.000  0.999-  57 2.17  72 2.17  60 2.17 105 2.17 108 2.18  93 2.18  16 2.83  20 2.83
                             4 2.83  11 2.85   7 2.85   9 2.86  54 3.07  47 3.07  53 3.08  30 3.08
   2  0.887  0.334  0.232-  71 2.10  56 2.10  59 2.11  74 2.11  77 2.13  80 2.13  10 2.82  12 2.83
                             5 2.84  22 2.93  25 2.97  36 3.02  30 3.03  37 3.04  40 3.05  21 3.05
   3  0.118  0.666  0.113-  58 2.09  55 2.09  79 2.10  94 2.10  64 2.12  61 2.13  13 2.84   6 2.85
                            17 2.86  23 2.93  27 2.96  40 3.01  29 3.02  47 3.03   8 3.05  28 3.08
   4  0.326  0.000  0.998-  99 2.10  66 2.10  63 2.11  96 2.11  93 2.13  60 2.13  16 2.82   1 2.83
                            11 2.84  26 2.93  24 2.97  50 3.02  32 3.03  48 3.04  30 3.05   7 3.05
   5  0.214  0.333  0.229-  62 2.09  65 2.09  59 2.10  86 2.10  80 2.12  83 2.13   2 2.84  12 2.85
                            14 2.86  25 2.93  22 2.96  30 3.01  31 3.02  43 3.03  18 3.05  33 3.08
   6  0.444  0.667  0.112-  61 2.17 100 2.17  67 2.17  64 2.17  85 2.18  70 2.18  15 2.83  13 2.83
                             8 2.83  19 2.85   3 2.85  17 2.86  35 3.07  43 3.07  32 3.08  34 3.08
   7  0.675  0.000  0.998-  99 2.09  66 2.09 102 2.10  69 2.10 105 2.12  72 2.13  20 2.84   1 2.85
                             9 2.86  26 2.93  24 2.96  51 3.01  50 3.02  35 3.03   4 3.05  33 3.08
   8  0.768  0.666  0.113-  58 2.10  55 2.10 106 2.11  73 2.11  70 2.13  67 2.13  15 2.82   6 2.83
                            19 2.84  23 2.93  27 2.97  29 3.02  53 3.03  37 3.04  34 3.05   3 3.05
   9  0.673  0.000  0.327-  90 2.08  75 2.08  78 2.10  69 2.10  72 2.12  57 2.12   1 2.86   7 2.86
                            11 2.86  24 2.94  26 2.94  39 3.02  35 3.02  16 3.04  45 3.08  38 3.08
  10  0.564  0.333  0.556-  92 2.10  89 2.10  74 2.11  95 2.11  98 2.14  77 2.14  18 2.82   2 2.82
                            12 2.83  25 2.94  22 2.94  39 3.04  49 3.04  14 3.04  48 3.05  37 3.05
  11  0.002  1.000  0.325-  84 2.09  81 2.09  63 2.10  78 2.10  60 2.12  57 2.13   4 2.84   1 2.85
                             9 2.86  24 2.93  26 2.96  32 3.01  42 3.02  39 3.03  20 3.05  41 3.08
  12  0.888  0.333  0.556- 104 2.17  83 2.17  80 2.17 101 2.17  98 2.18  77 2.18  10 2.83  18 2.83
                             2 2.83  21 2.85   5 2.85  14 2.86  39 3.07  49 3.07  51 3.08  40 3.08
  13  0.121  0.667  0.437- 103 2.10  82 2.10  79 2.11  88 2.11  85 2.13  64 2.13  15 2.82   6 2.83
                             3 2.84  27 2.93  23 2.97  52 3.02  40 3.03  44 3.04  32 3.05  19 3.05
  14  0.216  0.333  0.556-  92 2.08  89 2.08  86 2.10 107 2.10 104 2.12  83 2.12  12 2.86  21 2.86
                             5 2.86  25 2.94  22 2.94  54 3.02  43 3.02  10 3.04  45 3.08  46 3.08
  15  0.444  0.667  0.436-  91 2.10  76 2.10  73 2.11  88 2.11  85 2.14  70 2.14   8 2.82  13 2.82
                             6 2.83  23 2.94  27 2.94  35 3.04  43 3.04  17 3.04  44 3.05  37 3.05
  16  0.325  0.000  0.675-  75 2.10  90 2.10  87 2.11  96 2.11  93 2.14 108 2.14   4 2.82  20 2.82
                             1 2.83  26 2.94  24 2.94  47 3.04  54 3.04   9 3.04  44 3.05  48 3.05
  17  0.444  0.667  0.784-  91 2.08  76 2.08  97 2.10  94 2.10  61 2.12 100 2.12   6 2.86   3 2.86
                            19 2.86  27 2.94  23 2.94  47 3.02  49 3.02  15 3.04  38 3.08  46 3.08
  18  0.563  0.333  0.879-  62 2.10  65 2.10  68 2.11  95 2.11  98 2.13 101 2.13  10 2.82  12 2.83
                            21 2.84  25 2.93  22 2.97  31 3.02  34 3.03  48 3.04  51 3.05   5 3.05
  19  0.771  0.667  0.786- 103 2.09  82 2.09 106 2.10  97 2.10  67 2.12 100 2.13   8 2.84   6 2.85
                            17 2.86  27 2.93  23 2.96  53 3.01  52 3.02  49 3.03  13 3.05  41 3.08
  20  0.002  1.000  0.674-  84 2.10  81 2.10 102 2.11  87 2.11 108 2.13 105 2.13  16 2.82   1 2.83
                             7 2.84  24 2.93  26 2.97  42 3.02  51 3.03  44 3.04  53 3.05  11 3.05
  21  0.887  0.334  0.882-  71 2.09  56 2.09  68 2.10 107 2.10 101 2.12 104 2.13  18 2.84  12 2.85
                            14 2.86  22 2.93  25 2.96  34 3.01  36 3.02  54 3.03   2 3.05  28 3.08
  22  0.556  0.332  0.223-  86 2.08  74 2.08  68 2.08  65 2.08  89 2.09  71 2.09  21 2.93   2 2.93
                            14 2.94  10 2.94   5 2.96  18 2.97
  23  0.777  0.668  0.444-  97 2.08  73 2.08  79 2.08  82 2.08  76 2.09  58 2.09   3 2.93   8 2.93
                            17 2.94  15 2.94  19 2.96  13 2.97
  24  0.333  0.001  0.334-  69 2.08  87 2.08  63 2.08  66 2.08  90 2.09  84 2.09  11 2.93  20 2.93
                             9 2.94  16 2.94   7 2.96   4 2.97
  25  0.223  0.334  0.888- 107 2.08  95 2.08  59 2.08  56 2.08  92 2.09  62 2.09   5 2.93  18 2.93
                            14 2.94  10 2.94  21 2.96   2 2.97
  26  0.666  0.999  0.667-  78 2.08  96 2.08 102 2.08  81 2.08  75 2.09  99 2.09   7 2.93   4 2.93
                             9 2.94  16 2.94  11 2.96  20 2.97
  27  0.112  0.666  0.777-  94 2.08  88 2.08 106 2.08  55 2.08  91 2.09 103 2.09  19 2.93  13 2.93
                            17 2.94  15 2.94   3 2.96   8 2.97
  28  0.012  0.500  0.988- 107 2.05  94 2.05  59 2.11 106 2.11  58 2.21  71 2.21   3 3.08  21 3.08

  29  0.885  0.827  0.231-  73 2.02  79 2.03  60 2.13  55 2.14  72 2.14  78 2.14   3 3.02   8 3.02
                            11 3.09   9 3.09
  30  0.114  0.171  0.103-  93 2.02  80 2.06  62 2.11  57 2.12  56 2.12  63 2.19   5 3.01   2 3.03
                             4 3.05   1 3.08  11 3.10
  31  0.329  0.493  0.996-  95 2.02  59 2.03  64 2.13  65 2.14 100 2.14  94 2.14   5 3.02  18 3.02
                             3 3.09  17 3.09
  32  0.227  0.837  0.226-  85 2.02  60 2.06  84 2.11  61 2.12  66 2.12  79 2.19  11 3.01   4 3.03
                            13 3.05   6 3.08   3 3.10
  33  0.444  0.167  0.123-  86 2.05  69 2.05  68 2.11  63 2.11  62 2.21  99 2.21   5 3.08   7 3.08

  34  0.662  0.496  0.008-  70 2.02 101 2.06  71 2.11 100 2.12  65 2.12 106 2.19  21 3.01  18 3.03
                             8 3.05   6 3.08  19 3.10
  35  0.548  0.837  0.226-  85 2.01  72 2.07  67 2.10  90 2.12  66 2.13  73 2.18   9 3.02   7 3.03
                            15 3.04   6 3.07   8 3.09
  36  0.769  0.173  0.115-  74 2.02  68 2.03 105 2.13  56 2.14  57 2.14  69 2.14  21 3.02   2 3.02
                             7 3.09   9 3.09
  37  0.666  0.500  0.334-  70 2.03  77 2.03  71 2.17  58 2.17  89 2.17  76 2.17   8 3.04   2 3.04
                            15 3.05  10 3.05
  38  0.567  0.833  0.556-  97 2.06  78 2.06  73 2.10  96 2.10  91 2.20  90 2.20  17 3.08   9 3.08

  39  0.774  0.163  0.452-  98 2.01  57 2.07  80 2.10  75 2.12  81 2.13  74 2.18   9 3.02  11 3.03
                            10 3.04  12 3.07   2 3.09
  40  0.992  0.504  0.338-  77 2.02  64 2.06  58 2.11  83 2.12  82 2.12  59 2.19   3 3.01  13 3.03
                             2 3.05  12 3.08   5 3.10
  41  0.877  0.833  0.556-  97 2.05  78 2.05  79 2.11 102 2.11 103 2.21  84 2.21  19 3.08  11 3.08

  42  0.120  0.160  0.440-  87 2.02  63 2.03  80 2.13  81 2.14 104 2.14  86 2.14  11 3.02  20 3.02
                             5 3.09  14 3.09
  43  0.341  0.497  0.329-  70 2.01  83 2.07  64 2.10  89 2.12  65 2.13  88 2.18  14 3.02   5 3.03
                            15 3.04   6 3.07  13 3.09
  44  0.223  0.833  0.556-  85 2.03 108 2.03 103 2.17  84 2.17  91 2.17  90 2.17  13 3.04  20 3.04
                            15 3.05  16 3.05
  45  0.444  0.167  0.433-  86 2.06  69 2.06  74 2.10  87 2.10  92 2.20  75 2.20  14 3.08   9 3.08

  46  0.322  0.500  0.678-  94 2.06 107 2.06  88 2.10  95 2.10  76 2.20  89 2.20  14 3.08  17 3.08

  47  0.218  0.830  0.885- 108 2.01  61 2.07  60 2.10  91 2.12  55 2.13  96 2.18  17 3.02   3 3.03
                            16 3.04   1 3.07   4 3.09
  48  0.444  0.167  0.777-  98 2.03  93 2.03  62 2.17  99 2.17  92 2.17  75 2.17  18 3.04   4 3.04
                            10 3.05  16 3.05
  49  0.671  0.503  0.659-  77 2.01 100 2.07 101 2.10  76 2.12  82 2.13  95 2.18  17 3.02  19 3.03
                            10 3.04  12 3.07  18 3.09
  50  0.560  0.840  0.880-  96 2.02 102 2.03  67 2.13  66 2.14  61 2.14  97 2.14   7 3.02   4 3.02
                            19 3.09  17 3.09
  51  0.774  0.163  0.773-  98 2.02 105 2.06  99 2.11 104 2.12  81 2.12  68 2.19   7 3.01  20 3.03
                            18 3.05  12 3.08  21 3.10
  52  0.004  0.507  0.671-  88 2.02 106 2.03 101 2.13  82 2.14  83 2.14 107 2.14  19 3.02  13 3.02
                            21 3.09  14 3.09
  53  0.897  0.829  0.886- 108 2.02  67 2.06 103 2.11  72 2.12  55 2.12 102 2.19  19 3.01   8 3.03
                            20 3.05   1 3.08   7 3.10
  54  0.115  0.170  0.782-  93 2.01 104 2.07 105 2.10  92 2.12  56 2.13  87 2.18  14 3.02  21 3.03
                            16 3.04   1 3.07  20 3.09
  55  0.998  0.743  0.004-  27 2.08   3 2.09   8 2.10  53 2.12  47 2.13  29 2.14
  56  0.996  0.257  0.002-  25 2.08  21 2.09   2 2.10  30 2.12  54 2.13  36 2.14
  57  0.888  0.089  0.223-  39 2.07  30 2.12   9 2.12  11 2.13  36 2.14   1 2.17
  58  0.891  0.589  0.219-   3 2.09  23 2.09   8 2.10  40 2.11  37 2.17  28 2.21
  59  0.111  0.416  0.110-  31 2.03  25 2.08   5 2.10   2 2.11  28 2.11  40 2.19
  60  0.111  0.910  0.111-  32 2.06  47 2.10  11 2.12   4 2.13  29 2.13   1 2.17
  61  0.333  0.756  0.999-  47 2.07  32 2.12  17 2.12   3 2.13  50 2.14   6 2.17
  62  0.335  0.255  0.002-   5 2.09  25 2.09  18 2.10  30 2.11  48 2.17  33 2.21
  63  0.224  0.082  0.222-  42 2.03  24 2.08  11 2.10   4 2.11  33 2.11  30 2.19
  64  0.222  0.577  0.222-  40 2.06  43 2.10   3 2.12  13 2.13  31 2.13   6 2.17
  65  0.442  0.410  0.109-  22 2.08   5 2.09  18 2.10  34 2.12  43 2.13  31 2.14
  66  0.447  0.924  0.107-  24 2.08   7 2.09   4 2.10  32 2.12  35 2.13  50 2.14
  67  0.667  0.757  1.000-  53 2.06  35 2.10  19 2.12   8 2.13  50 2.13   6 2.17
  68  0.665  0.251  0.001-  36 2.03  22 2.08  21 2.10  18 2.11  33 2.11  51 2.19
  69  0.555  0.081  0.222-  33 2.05  45 2.06  24 2.08   9 2.10   7 2.10  36 2.14
  70  0.555  0.575  0.222-  43 2.01  34 2.02  37 2.03   8 2.13  15 2.14   6 2.18
  71  0.781  0.411  0.109-  21 2.09  22 2.09   2 2.10  34 2.11  37 2.17  28 2.21
  72  0.777  0.911  0.112-  35 2.07  53 2.12   9 2.12   7 2.13  29 2.14   1 2.17
  73  0.667  0.750  0.335-  29 2.02  23 2.08  38 2.10  15 2.11   8 2.11  35 2.18
  74  0.665  0.250  0.333-  36 2.02  22 2.08  45 2.10  10 2.11   2 2.11  39 2.18
  75  0.554  0.078  0.553-   9 2.08  26 2.09  16 2.10  39 2.12  48 2.17  45 2.20
  76  0.551  0.589  0.558-  17 2.08  23 2.09  15 2.10  49 2.12  37 2.17  46 2.20
  77  0.778  0.425  0.445-  49 2.01  40 2.02  37 2.03   2 2.13  10 2.14  12 2.18
  78  0.778  0.919  0.445-  41 2.05  38 2.06  26 2.08   9 2.10  11 2.10  29 2.14
  79  0.999  0.749  0.335-  29 2.03  23 2.08   3 2.10  13 2.11  41 2.11  32 2.19
  80  0.000  0.243  0.333-  30 2.06  39 2.10   5 2.12   2 2.13  42 2.13  12 2.17
  81  0.893  0.076  0.553-  26 2.08  11 2.09  20 2.10  51 2.12  39 2.13  42 2.14
  82  0.891  0.590  0.558-  23 2.08  19 2.09  13 2.10  40 2.12  49 2.13  52 2.14
  83  0.112  0.422  0.444-  43 2.07  40 2.12  14 2.12   5 2.13  52 2.14  12 2.17
  84  0.108  0.922  0.446-  11 2.09  24 2.09  20 2.10  32 2.11  44 2.17  41 2.21
  85  0.334  0.758  0.333-  35 2.01  32 2.02  44 2.03  13 2.13  15 2.14   6 2.18
  86  0.334  0.252  0.333-  33 2.05  45 2.06  22 2.08  14 2.10   5 2.10  42 2.14
  87  0.224  0.083  0.554-  42 2.02  24 2.08  45 2.10  16 2.11  20 2.11  54 2.18
  88  0.222  0.584  0.557-  52 2.02  27 2.08  46 2.10  15 2.11  13 2.11  43 2.18
  89  0.442  0.411  0.449-  14 2.08  22 2.09  10 2.10  43 2.12  37 2.17  46 2.20
  90  0.447  0.922  0.446-   9 2.08  24 2.09  16 2.10  35 2.12  44 2.17  38 2.20
  91  0.338  0.744  0.665-  17 2.08  27 2.09  15 2.10  47 2.12  44 2.17  38 2.20
  92  0.335  0.256  0.662-  14 2.08  25 2.09  10 2.10  54 2.12  48 2.17  45 2.20
  93  0.222  0.092  0.889-  54 2.01  30 2.02  48 2.03   4 2.13  16 2.14   1 2.18
  94  0.222  0.585  0.889-  28 2.05  46 2.06  27 2.08  17 2.10   3 2.10  31 2.14
  95  0.443  0.416  0.778-  31 2.02  25 2.08  46 2.10  10 2.11  18 2.11  49 2.18
  96  0.446  0.917  0.776-  50 2.02  26 2.08  38 2.10  16 2.11   4 2.11  47 2.18
  97  0.667  0.748  0.666-  41 2.05  38 2.06  23 2.08  17 2.10  19 2.10  50 2.14
  98  0.667  0.242  0.666-  39 2.01  51 2.02  48 2.03  18 2.13  10 2.14  12 2.18
  99  0.554  0.078  0.892-   7 2.09  26 2.09   4 2.10  51 2.11  48 2.17  33 2.21
 100  0.556  0.578  0.888-  49 2.07  34 2.12  17 2.12  19 2.13  31 2.14   6 2.17
 101  0.778  0.423  0.778-  34 2.06  49 2.10  21 2.12  18 2.13  52 2.13  12 2.17
 102  0.778  0.918  0.776-  50 2.03  26 2.08   7 2.10  20 2.11  41 2.11  53 2.19
 103  0.998  0.745  0.665-  19 2.09  27 2.09  13 2.10  53 2.11  44 2.17  41 2.21
 104  0.001  0.244  0.667-  54 2.07  51 2.12  14 2.12  21 2.13  42 2.14  12 2.17
 105  0.889  0.090  0.889-  51 2.06  54 2.10   7 2.12  20 2.13  36 2.13   1 2.17
 106  0.890  0.584  0.889-  52 2.03  27 2.08  19 2.10   8 2.11  28 2.11  34 2.19
 107  0.111  0.415  0.778-  28 2.05  46 2.06  25 2.08  14 2.10  21 2.10  52 2.14
 108  0.111  0.908  0.778-  47 2.01  53 2.02  44 2.03  20 2.13  16 2.14   1 2.18
 
  LATTYP: Found a hexagonal cell.
 ALAT       =     8.7335452621
 C/A-ratio  =     1.7473761378
  
  Lattice vectors:
  
 A1 = (   4.3667726376,   0.0000000000,   7.5634720583)
 A2 = (  -8.7335452752,   0.0000000000,   0.0000000000)
 A3 = (   0.0000000000, -15.2607885891,   0.0000000000)


Analysis of symmetry for initial positions (statically):
=====================================================================
 Subroutine PRICEL returns:
 Original cell was already a primitive cell.
 

 Routine SETGRP: Setting up the symmetry group for a 
 hexagonal supercell.


 Subroutine GETGRP returns: Found  6 space group operations
 (whereof  2 operations were pure point group operations)
 out of a pool of 24 trial point group operations.


The static configuration has the point symmetry C_2 .
 The point group associated with its full space group is D_3 .


Analysis of symmetry for dynamics (positions and initial velocities):
=====================================================================
 Subroutine PRICEL returns:
 Original cell was already a primitive cell.
 

 Routine SETGRP: Setting up the symmetry group for a 
 hexagonal supercell.


 Subroutine GETGRP returns: Found  6 space group operations
 (whereof  2 operations were pure point group operations)
 out of a pool of 24 trial point group operations.


The dynamic configuration has the point symmetry C_2 .
 The point group associated with its full space group is D_3 .


Analysis of structural, dynamic, and magnetic symmetry:
=====================================================================
 Subroutine PRICEL returns:
 Original cell was already a primitive cell.
 

 Routine SETGRP: Setting up the symmetry group for a 
 hexagonal supercell.


 Subroutine GETGRP returns: Found  6 space group operations
 (whereof  2 operations were pure point group operations)
 out of a pool of 24 trial point group operations.


The magnetic configuration has the point symmetry C_2 .
 The point group associated with its full space group is D_3 .


 Subroutine INISYM returns: Found  6 space group operations
 (whereof  2 operations are pure point group operations),
 and found     1 'primitive' translations

 
 
 KPOINTS: Automatic mesh                          

Automatic generation of k-mesh.
Space group operators:
 irot       det(A)        alpha          n_x          n_y          n_z        tau_x        tau_y        tau_z
    1     1.000000     0.000000     1.000000     0.000000     0.000000     0.000000     0.000000     0.000000
    2     1.000000   180.000000     0.500000     0.000000    -0.866025     0.000000     0.000000     0.000000
    3     1.000000   120.000000     0.000000     1.000000     0.000000    -0.555556    -0.333333     0.111111
    4     1.000000   120.000000     0.000000    -1.000000     0.000000    -0.111111    -0.666667     0.555556
    5     1.000000   180.000000    -0.500000     0.000000    -0.866025    -0.111111    -0.666667     0.555556
    6     1.000000   180.000000     1.000000     0.000000     0.000000    -0.555556    -0.333333     0.111111
 
 Subroutine IBZKPT returns following result:
 ===========================================
 
 Found      1 irreducible k-points:
 
 Following reciprocal coordinates:
            Coordinates               Weight
  0.000000  0.000000  0.000000      1.000000
 
 Following cartesian coordinates:
            Coordinates               Weight
  0.000000  0.000000  0.000000      1.000000
 


--------------------------------------------------------------------------------------------------------




 Dimension of arrays:
   k-points           NKPTS =      1   k-points in BZ     NKDIM =      1   number of bands    NBANDS=    432
   number of dos      NEDOS =    301   number of ions     NIONS =    108
   non local maximal  LDIM  =      6   non local SUM 2l+1 LMDIM =     18
   total plane-waves  NPLWV = 458752
   max r-space proj   IRMAX =   8021   max aug-charges    IRDMAX=  25763
   dimension x,y,z NGX =    64 NGY =  112 NGZ =   64
   dimension x,y,z NGXF=   128 NGYF=  224 NGZF=  128
   support grid    NGXF=   128 NGYF=  224 NGZF=  128
   ions per type =              21   6  27  54
   NGX,Y,Z   is equivalent  to a cutoff of  12.18, 12.20, 12.18 a.u.
   NGXF,Y,Z  is equivalent  to a cutoff of  24.37, 24.40, 24.37 a.u.

 SYSTEM =  unknown system                          
 POSCAR =  ce74073_1                               

 Startparameter for this run:
   NWRITE =      1    write-flag & timer
   PREC   = accura    normal or accurate (medium, high low for compatibility)
   ISTART =      0    job   : 0-new  1-cont  2-samecut
   ICHARG =      2    charge: 1-file 2-atom 10-const
   ISPIN  =      2    spin polarized calculation?
   LNONCOLLINEAR =      F non collinear calculations
   LSORBIT =      F    spin-orbit coupling
   INIWAV =      1    electr: 0-lowe 1-rand  2-diag
   LASPH  =      F    aspherical Exc in radial PAW
   METAGGA=      F    non-selfconsistent MetaGGA calc.

 Electronic Relaxation 1
   ENCUT  =  500.0 eV  36.75 Ry    6.06 a.u.  15.92 27.82 15.92*2*pi/ulx,y,z
   ENINI  =  500.0     initial cutoff
   ENAUG  =  628.9 eV  augmentation charge cutoff
   NELM   =     80;   NELMIN=  2; NELMDL= -5     # of ELM steps 
   EDIFF  = 0.1E-04   stopping-criterion for ELM
   LREAL  =      T    real-space projection
   NLSPLINE    = F    spline interpolate recip. space projectors
   LCOMPAT=      F    compatible to vasp.4.4
   GGA_COMPAT  = T    GGA compatible to vasp.4.4-vasp.4.6
   LMAXPAW     = -100 max onsite density
   LMAXMIX     =    2 max onsite mixed and CHGCAR
   VOSKOWN=      1    Vosko Wilk Nusair interpolation
   ROPT   =   -0.00025  -0.00025  -0.00025  -0.00025
 Ionic relaxation
   EDIFFG = -.2E-01   stopping-criterion for IOM
   NSW    =     20    number of steps for IOM
   NBLOCK =      1;   KBLOCK =     20    inner block; outer block 
   IBRION =      1    ionic relax: 0-MD 1-quasi-New 2-CG
   NFREE  =      0    steps in history (QN), initial steepest desc. (CG)
   ISIF   =      3    stress and relaxation
   IWAVPR =     11    prediction:  0-non 1-charg 2-wave 3-comb
   ISYM   =      2    0-nonsym 1-usesym 2-fastsym
   LCORR  =      T    Harris-Foulkes like correction to forces

   POTIM  = 0.5000    time-step for ionic-motion
   TEIN   =    0.0    initial temperature
   TEBEG  =    0.0;   TEEND  =   0.0 temperature during run
   SMASS  =  -3.00    Nose mass-parameter (am)
   estimated Nose-frequenzy (Omega)   =  0.10E-29 period in steps =****** mass=  -0.174E-26a.u.
   SCALEE = 1.0000    scale energy and forces
   NPACO  =    256;   APACO  = 16.0  distance and # of slots for P.C.
   PSTRESS=    0.0 pullay stress

  Mass of Ions in am
   POMASS = 180.95 58.69  7.01 16.00
  Ionic Valenz
   ZVAL   =  11.00 10.00  3.00  6.00
  Atomic Wigner-Seitz radii
   RWIGS  =   1.34  1.15  1.23  0.73
  virtual crystal weights 
   VCA    =   1.00  1.00  1.00  1.00
   NELECT =     696.0000    total number of electrons
   NUPDOWN=      -1.0000    fix difference up-down

 DOS related values:
   EMIN   =  10.00;   EMAX   =-10.00  energy-range for DOS
   EFERMI =   0.00
   ISMEAR =     0;   SIGMA  =   0.05  broadening in eV -4-tet -1-fermi 0-gaus

 Electronic relaxation 2 (details)
   IALGO  =     38    algorithm
   LDIAG  =      T    sub-space diagonalisation (order eigenvalues)
   LSUBROT=      F    optimize rotation matrix (better conditioning)
   TURBO    =      0    0=normal 1=particle mesh
   IRESTART =      0    0=no restart 2=restart with 2 vectors
   NREBOOT  =      0    no. of reboots
   NMIN     =      0    reboot dimension
   EREF     =   0.00    reference energy to select bands
   IMIX   =      4    mixing-type and parameters
     AMIX     =   0.40;   BMIX     =  1.00
     AMIX_MAG =   1.60;   BMIX_MAG =  1.00
     AMIN     =   0.10
     WC   =   100.;   INIMIX=   1;  MIXPRE=   1;  MAXMIX= -45

 Intra band minimization:
   WEIMIN = 0.0010     energy-eigenvalue tresh-hold
   EBREAK =  0.58E-08  absolut break condition
   DEPER  =   0.30     relativ break condition  

   TIME   =   0.40     timestep for ELM

  volume/ion in A,a.u.               =       9.33        62.99
  Fermi-wavevector in a.u.,A,eV,Ry     =   1.446933  2.734306 28.485350  2.093614
  Thomas-Fermi vector in A             =   2.564945
 
 Write flags
   LWAVE        =      F    write WAVECAR
   LDOWNSAMPLE  =      F    k-point downsampling of WAVECAR
   LCHARG       =      T    write CHGCAR
   LVTOT        =      F    write LOCPOT, total local potential
   LVHAR        =      F    write LOCPOT, Hartree potential only
   LELF         =      F    write electronic localiz. function (ELF)
   LORBIT       =      0    0 simple, 1 ext, 2 COOP (PROOUT), +10 PAW based schemes


 Dipole corrections
   LMONO  =      F    monopole corrections only (constant potential shift)
   LDIPOL =      F    correct potential (dipole corrections)
   IDIPOL =      0    1-x, 2-y, 3-z, 4-all directions 
   EPSILON=  1.0000000 bulk dielectric constant

 Exchange correlation treatment:
   GGA     =    PS    GGA type
   LEXCH   =    14    internal setting for exchange type
   VOSKOWN=      1    Vosko Wilk Nusair interpolation
   LHFCALC =     F    Hartree Fock is set to
   LHFONE  =     F    Hartree Fock one center treatment
   AEXX    =    0.0000 exact exchange contribution

 Linear response parameters
   LEPSILON=     F    determine dielectric tensor
   LRPA    =     F    only Hartree local field effects (RPA)
   LNABLA  =     F    use nabla operator in PAW spheres
   LVEL    =     F    velocity operator in full k-point grid
   LINTERFAST=   F  fast interpolation
   KINTER  =     0    interpolate to denser k-point grid
   CSHIFT  =0.1000    complex shift for real part using Kramers Kronig
   OMEGAMAX=  -1.0    maximum frequency
   DEG_THRESHOLD= 0.2000000E-02 threshold for treating states as degnerate
   RTIME   =   -0.100 relaxation time in fs
  (WPLASMAI=    0.000 imaginary part of plasma frequency in eV, 0.658/RTIME)
   DFIELD  = 0.0000000 0.0000000 0.0000000 field for delta impulse in time
 
 Orbital magnetization related:
   ORBITALMAG=     F  switch on orbital magnetization
   LCHIMAG   =     F  perturbation theory with respect to B field
   DQ        =  0.001000  dq finite difference perturbation B field
   LLRAUG    =     F  two centre corrections for induced B field



--------------------------------------------------------------------------------------------------------


 quasi-Newton-method for relaxation of ions
 charge density and potential will be updated during run
 spin polarized calculation
 Variant of blocked Davidson
 Davidson routine will perform the subspace rotation
 perform sub-space diagonalisation
    after iterative eigenvector-optimisation
 modified Broyden-mixing scheme, WC =      100.0
 initial mixing is a Kerker type mixing with AMIX =  0.4000 and BMIX =      1.0000
 Hartree-type preconditioning will be used
 using additional bands           84
 real space projection scheme for non local part
 use partial core corrections
 calculate Harris-corrections to forces 
   (improved forces if not selfconsistent)
 use gradient corrections 
 use of overlap-Matrix (Vanderbilt PP)
 Gauss-broadening in eV      SIGMA  =   0.05


--------------------------------------------------------------------------------------------------------


  energy-cutoff  :      500.00
  volume of cell :     1008.07
      direct lattice vectors                 reciprocal lattice vectors
     8.733545275  0.000000000  0.000000000     0.114501038  0.000000000 -0.066107205
     0.000000000 15.260788589  0.000000000     0.000000000  0.065527413  0.000000000
     4.366772638  0.000000000  7.563472058     0.000000000  0.000000000  0.132214411

  length of vectors
     8.733545275 15.260788589  8.733545262     0.132214410  0.065527413  0.132214411


 
 k-points in units of 2pi/SCALE and weight: Automatic mesh                          
   0.00000000  0.00000000  0.00000000       1.000
 
 k-points in reciprocal lattice and weights: Automatic mesh                          
   0.00000000  0.00000000  0.00000000       1.000
 
 position of ions in fractional coordinates (direct lattice) 
   0.00059609  0.00000000  0.99940391
   0.88698548  0.33380474  0.23180731
   0.11769433  0.66639027  0.11323622
   0.32565165  0.00047141  0.99809659
   0.21351389  0.33305693  0.22880544
   0.44444445  0.66666667  0.11170720
   0.67537500  0.00027640  0.99787489
   0.76819269  0.66619526  0.11301452
   0.67323390  0.00000000  0.32676610
   0.56420285  0.33333333  0.55555556
   0.00212511  0.99972360  0.32462500
   0.88829279  0.33333333  0.55555556
   0.12069621  0.66713808  0.43676276
   0.21565499  0.33333333  0.55555556
   0.44444445  0.66666667  0.43579714
   0.32468603  0.00000000  0.67531397
   0.44444444  0.66666667  0.78434501
   0.56323723  0.33286192  0.87930380
   0.77119456  0.66694307  0.78648611
   0.00190341  0.99952859  0.67434835
   0.88676378  0.33360973  0.88230567
   0.55576183  0.33237154  0.22276872
   0.77723128  0.66762846  0.44423817
   0.33312707  0.00096179  0.33408610
   0.22297499  0.33429512  0.88834239
   0.66591389  0.99903821  0.66687294
   0.11165761  0.66570488  0.77702501
   0.01161668  0.50000000  0.98838332
   0.88456095  0.82678698  0.23080083
   0.11445352  0.17050050  0.10329401
   0.32908265  0.49345365  0.99567206
   0.22669692  0.83716716  0.22556463
   0.44444445  0.16666667  0.12272779
   0.66219197  0.49616617  0.00781710
   0.54804230  0.83679157  0.22579440
   0.76919917  0.17321302  0.11543905
   0.66621069  0.50000000  0.33378931
   0.56695639  0.83333333  0.55555556
   0.77420560  0.16320843  0.45195770
   0.99218290  0.50383383  0.33780803
   0.87727220  0.83333333  0.55555556
   0.11968973  0.16012032  0.44019376
   0.34084660  0.49654176  0.32939225
   0.22267820  0.83333333  0.55555556
   0.44444445  0.16666667  0.43304360
   0.32193249  0.50000000  0.67806751
   0.21828114  0.82987509  0.88531671
   0.44444444  0.16666667  0.77732180
   0.67060774  0.50345824  0.65915341
   0.55980623  0.83987968  0.88031028
   0.77443537  0.16283284  0.77330308
   0.00432794  0.50654635  0.67091735
   0.89670599  0.82949950  0.88554648
   0.11468329  0.17012491  0.78171886
   0.99791836  0.74303308  0.00424781
   0.99575219  0.25696692  0.00208164
   0.88795734  0.08902492  0.22326550
   0.89096070  0.58861041  0.21881318
   0.11094135  0.41564154  0.10963277
   0.11114616  0.90994647  0.11120605
   0.33322160  0.75569159  0.99906845
   0.33467056  0.25527708  0.00207181
   0.22387031  0.08230820  0.22205246
   0.22209223  0.57661313  0.22225727
   0.44227828  0.40969975  0.10902947
   0.44661062  0.92363359  0.10686330
   0.66679666  0.75672020  0.99990506
   0.66501858  0.25102513  0.00147834
   0.55473608  0.08143991  0.22239986
   0.55508594  0.57501399  0.22247395
   0.78118682  0.41138959  0.10903930
   0.77673450  0.91097508  0.11204266
   0.66684711  0.74968333  0.33499608
   0.66500392  0.25031667  0.33315289
   0.55384791  0.07766846  0.55298941
   0.55128176  0.58899820  0.55812171
   0.77752605  0.42498601  0.44491406
   0.77760014  0.91856009  0.44526392
   0.99852166  0.74897487  0.33498142
   0.00009494  0.24327980  0.33320334
   0.89313669  0.07636641  0.55338939
   0.89097052  0.59030025  0.55772173
   0.11215440  0.42235826  0.44433271
   0.10770208  0.92194375  0.44578167
   0.33380296  0.75831934  0.33311544
   0.33415282  0.25189342  0.33269150
   0.22388497  0.08301666  0.55371237
   0.22204178  0.58365000  0.55739875
   0.44187830  0.41100180  0.44871823
   0.44701060  0.92233154  0.44615208
   0.33760712  0.74433513  0.66495903
   0.33504097  0.25566487  0.66239288
   0.22200433  0.09165267  0.88863716
   0.22158039  0.58522675  0.88871125
   0.44260125  0.41635000  0.77795822
   0.44628763  0.91698334  0.77611503
   0.66730849  0.74810658  0.66584719
   0.66688455  0.24168066  0.66619705
   0.55421832  0.07805625  0.89229793
   0.55566728  0.57764174  0.88784561
   0.77774273  0.42338687  0.77790777
   0.77794754  0.91769180  0.77612969
   0.99792819  0.74472292  0.66532944
   0.00093155  0.24430841  0.66677840
   0.88879395  0.09005353  0.88885384
   0.89036723  0.58435846  0.88905865
   0.11128875  0.41477325  0.77841961
   0.11136284  0.90834733  0.77799567
 
 position of ions in cartesian coordinates  (Angst):
   4.36937563  0.00000000  7.55896355
   8.75877767  5.09412357  1.75326811
   1.52236559 10.16964103  0.85645899
   7.20255431  0.00719409  7.54907567
   2.86387456  5.08271140  1.73056355
   4.36937567 10.17385911  0.84489429
  10.25591091  0.00421808  7.54739885
   7.20255435 10.16666502  0.85478216
   7.30663201  0.00000000  2.47148627
   7.35347595  5.08692948  4.20192895
   1.43612331 15.25657051  2.45529212
  10.18393012  5.08692948  4.20192895
   2.96134948 10.18105320  3.30344293
   4.30941744  5.08692948  4.20192895
   5.78460275 10.17385911  3.29613949
   5.78460271  0.00000000  5.10771834
   7.30663197 10.17385911  5.93237157
   8.75877762  5.07973539  6.65058972
  10.16966863 10.17807719  5.94856572
   2.96134944 15.25359450  5.10041490
  11.59741988  5.09114756  6.67329428
   5.82655146  5.07225180  1.68490499
   8.72787166 10.18853678  3.35998299
   4.36825839  0.01467767  2.52685088
   5.82655141  5.10160715  6.71895284
   8.72787161 15.24611092  5.04387485
   4.36825834 10.15918144  5.87700695
   4.41750004  7.63039429  7.47560962
   8.73320785 12.61742131  1.74565563
   1.45064646  2.60197208  0.78126136
   7.22193173  7.53049183  7.53073781
   2.96485727 12.77583104  1.70605178
   4.41750008  2.54346482  0.92824821
   5.81741905  7.57188703  0.05912442
   5.77234505 12.77009924  1.70778964
   7.22193186  2.64336728  0.87312003
   7.27596325  7.63039429  2.52460612
   7.37752412 12.71732377  4.20192895
   8.73515618  2.49068935  3.41836944
  10.14040514  7.68890156  2.55500160
  10.08768130 12.71732377  4.20192895
   2.96754174  2.44356235  3.32939320
   4.41518028  7.57761883  2.49134908
   4.37075496 12.71732377  4.20192895
   5.77257867  2.54346482  3.27531317
   5.77257863  7.63039429  5.12854467
   5.77234500 12.66454830  6.69606820
   7.27596321  2.54346482  5.87925171
   8.73515613  7.68316976  4.98548840
   8.73320790 12.81722624  6.65820221
  10.14040510  2.48495755  5.84885624
   2.96754179  7.73029676  5.07446463
  11.69840250 12.65881650  6.69780606
   4.41518023  2.59624029  5.91250876
   8.73391440 11.33927075  0.03212819
   8.70553688  3.92151784  0.01574443
   8.72996531  1.35859048  1.68866237
   8.73675302  8.98265903  1.65498737
   1.44765268  6.34301767  0.82920439
   1.45631156 13.88650071  0.84110385
   7.27291070 11.53244959  7.55642631
   2.93190761  3.89572955  0.01567008
   2.92483409  1.25608804  1.67948758
   2.91019951  8.79957107  1.68103665
   4.33876429  6.25234127  0.82464135
   4.36714180 14.09537695  0.80825758
  10.18985688 11.54814699  7.56275398
   5.81442545  3.83084144  0.01118138
   5.81598229  1.24283725  1.68211513
   5.81936135  8.77516694  1.68267550
   7.29868029  6.27812956  0.82471570
   7.27291074 13.90219811  0.84743153
   7.28679114 11.44075881  2.53373349
   7.26264477  3.82002978  2.51979257
   7.25183482  1.18528195  4.18251995
   7.25183482  8.98857701  4.22133796
   8.73339750  6.48562165  3.36509506
   8.73557233 14.01795134  3.36774122
  10.18342182 11.42994715  2.53362261
   1.45585239  3.71264160  2.52017415
  10.21677537  1.16541164  4.18554519
  10.21677537  9.00844732  4.21831272
   2.91980545  6.44552011  3.36069804
   2.88724819 14.06958866  3.37165721
   4.36992265 11.57255113  2.51950932
   4.37112692  3.84409223  2.51630286
   4.37324555  1.26689970  4.18798804
   4.37324555  8.90695926  4.21586987
   5.81861463  6.27221158  3.39386779
   5.85223201 14.07550664  3.37445879
   5.85223197 11.35914106  5.02939904
   5.81861458  3.90164753  5.00999004
   5.81936130  1.39869202  6.72118233
   5.81598234  8.93102171  6.72174271
   7.26264472  6.35382933  5.88406526
   7.28679110 13.99388889  5.87012434
   8.73557220 11.41669636  5.03611662
   8.73339746  3.68823746  5.03876277
   8.73675298  1.19119993  6.74887046
   8.72996526  8.81526847  6.71519546
  10.18939771  6.46121751  5.88368368
  10.18342196 14.00470055  5.87023522
  11.62079342 11.36505904  5.03220063
   2.91980541  3.72833900  5.04315980
  11.64374483  1.37428788  6.72282118
  11.65837950  8.91777092  6.72437026
   4.37112679  6.32976688  5.88755497
   4.36992261 13.86209657  5.88434851
 


--------------------------------------------------------------------------------------------------------


 use serial FFT for orbitals x direction half grid
 k-point  1 :   0.0000 0.0000 0.0000  plane waves:   12766

 maximum and minimum number of plane-waves per node :     12766    12766

 maximum number of plane-waves:     12766
 maximum index in each direction: 
   IXMAX=   15   IYMAX=   27   IZMAX=   15
   IXMIN=    0   IYMIN=  -27   IZMIN=  -13

 The following grids will avoid any aliasing or wrap around errors in the Hartre
 e energy
  - symmetry arguments have not been applied
  - exchange correlation energies might require even more grid points
  - we recommend to set PREC=Normal or Accurate and rely on VASP defaults
 NGX is ok and might be reduce to    64
 NGY is ok and might be reduce to   112
 NGZ is ok and might be reduce to    60

 serial   3D FFT for wavefunctions
 parallel 3D FFT for charge:
    minimum data exchange during FFTs selected (reduces bandwidth)


 total amount of memory used by VASP MPI-rank0   155631. kBytes
=======================================================================

   base      :      30000. kBytes
   nonlr-proj:      43527. kBytes
   fftplans  :       9702. kBytes
   grid      :      59236. kBytes
   one-center:       1679. kBytes
   wavefun   :      11487. kBytes
 
     INWAV:  cpu time    0.0000: real time    0.0000
 Broyden mixing: mesh for mixing (old mesh)
   NGX = 31   NGY = 55   NGZ = 31
  (NGX  =128   NGY  =224   NGZ  =128)
  gives a total of  52855 points

 initial charge density was supplied:
 charge density of overlapping atoms calculated
 number of electron     696.0000000 magnetization      15.0000000
 keeping initial charge density in first step


--------------------------------------------------------------------------------------------------------


 Maximum index for non-local projection operator         7741
 Maximum index for augmentation-charges         1613 (set IRDMAX)


--------------------------------------------------------------------------------------------------------


 First call to EWALD:  gamma=   0.177
 Maximum number of real-space cells 3x 2x 3
 Maximum number of reciprocal cells 2x 4x 2

    FEWALD:  cpu time    0.0045: real time    0.0045


--------------------------------------- Iteration      1(   1)  ---------------------------------------


    POTLOK:  cpu time    0.2802: real time    0.2868
    SETDIJ:  cpu time    0.0400: real time    0.0401
     EDDAV:  cpu time    5.9683: real time    5.9994
    --------------------------------------------
      LOOP:  cpu time    6.2891: real time    6.3269

 eigenvalue-minimisations  :  1744
 total energy-change (2. order) : 0.1107977E+05  (-0.3748079E+05)
 number of electron     696.0000000 magnetization      15.0000000
 augmentation part      696.0000000 magnetization      15.0000000

 Free energy of the ion-electron system (eV)
  ---------------------------------------------------
  alpha Z        PSCENC =      4239.53165527
  Ewald energy   TEWEN  =    -45741.59486770
  -Hartree energ DENC   =    -11835.62437149
  -exchange      EXHF   =         0.00000000
  -V(xc)+E(xc)   XCENC  =      2583.53072205
  PAW double counting   =     43846.48770080   -44395.90475152
  entropy T*S    EENTRO =        -0.00228064
  eigenvalues    EBANDS =      5233.05923215
  atomic energy  EATOM  =     57150.28677355
  Solvation  Ediel_sol  =         0.00000000
  ---------------------------------------------------
  free energy    TOTEN  =     11079.76981246 eV

  energy without entropy =    11079.77209310  energy(sigma->0) =    11079.77095278


--------------------------------------------------------------------------------------------------------




--------------------------------------- Iteration      1(   2)  ---------------------------------------


     EDDAV:  cpu time    6.3499: real time    6.3649
    --------------------------------------------
      LOOP:  cpu time    6.3498: real time    6.3648

 eigenvalue-minimisations  :  1888
 total energy-change (2. order) :-0.1013526E+05  (-0.9534451E+04)
 number of electron     696.0000000 magnetization      15.0000000
 augmentation part      696.0000000 magnetization      15.0000000

 Free energy of the ion-electron system (eV)
  ---------------------------------------------------
  alpha Z        PSCENC =      4239.53165527
  Ewald energy   TEWEN  =    -45741.59486770
  -Hartree energ DENC   =    -11835.62437149
  -exchange      EXHF   =         0.00000000
  -V(xc)+E(xc)   XCENC  =      2583.53072205
  PAW double counting   =     43846.48770080   -44395.90475152
  entropy T*S    EENTRO =        -0.02372373
  eigenvalues    EBANDS =     -4902.18336524
  atomic energy  EATOM  =     57150.28677355
  Solvation  Ediel_sol  =         0.00000000
  ---------------------------------------------------
  free energy    TOTEN  =       944.50577198 eV

  energy without entropy =      944.52949571  energy(sigma->0) =      944.51763384


--------------------------------------------------------------------------------------------------------




--------------------------------------- Iteration      1(   3)  ---------------------------------------


     EDDAV:  cpu time    6.6824: real time    6.6983
    --------------------------------------------
      LOOP:  cpu time    6.6824: real time    6.6983

 eigenvalue-minimisations  :  2032
 total energy-change (2. order) :-0.1731247E+04  (-0.1628736E+04)
 number of electron     696.0000000 magnetization      15.0000000
 augmentation part      696.0000000 magnetization      15.0000000

 Free energy of the ion-electron system (eV)
  ---------------------------------------------------
  alpha Z        PSCENC =      4239.53165527
  Ewald energy   TEWEN  =    -45741.59486770
  -Hartree energ DENC   =    -11835.62437149
  -exchange      EXHF   =         0.00000000
  -V(xc)+E(xc)   XCENC  =      2583.53072205
  PAW double counting   =     43846.48770080   -44395.90475152
  entropy T*S    EENTRO =        -0.04169902
  eigenvalues    EBANDS =     -6633.41234261
  atomic energy  EATOM  =     57150.28677355
  Solvation  Ediel_sol  =         0.00000000
  ---------------------------------------------------
  free energy    TOTEN  =      -786.74118069 eV

  energy without entropy =     -786.69948166  energy(sigma->0) =     -786.72033117


--------------------------------------------------------------------------------------------------------




--------------------------------------- Iteration      1(   4)  ---------------------------------------


     EDDAV:  cpu time    7.6518: real time    7.6700
    --------------------------------------------
      LOOP:  cpu time    7.6518: real time    7.6700

 eigenvalue-minimisations  :  2400
 total energy-change (2. order) :-0.1821988E+03  (-0.1753921E+03)
 number of electron     696.0000000 magnetization      15.0000000
 augmentation part      696.0000000 magnetization      15.0000000

 Free energy of the ion-electron system (eV)
  ---------------------------------------------------
  alpha Z        PSCENC =      4239.53165527
  Ewald energy   TEWEN  =    -45741.59486770
  -Hartree energ DENC   =    -11835.62437149
  -exchange      EXHF   =         0.00000000
  -V(xc)+E(xc)   XCENC  =      2583.53072205
  PAW double counting   =     43846.48770080   -44395.90475152
  entropy T*S    EENTRO =        -0.07118337
  eigenvalues    EBANDS =     -6815.58168513
  atomic energy  EATOM  =     57150.28677355
  Solvation  Ediel_sol  =         0.00000000
  ---------------------------------------------------
  free energy    TOTEN  =      -968.94000754 eV

  energy without entropy =     -968.86882417  energy(sigma->0) =     -968.90441586


--------------------------------------------------------------------------------------------------------




--------------------------------------- Iteration      1(   5)  ---------------------------------------


     EDDAV:  cpu time    9.4862: real time    9.5086
    CHARGE:  cpu time    0.4978: real time    0.4990
    MIXING:  cpu time    0.0056: real time    0.0056
    --------------------------------------------
      LOOP:  cpu time    9.9893: real time   10.0130

 eigenvalue-minimisations  :  3120
 total energy-change (2. order) :-0.1716949E+02  (-0.1694842E+02)
 number of electron     696.0000000 magnetization      15.9958927
 augmentation part      165.9789652 magnetization      11.5933638

 Broyden mixing:
  rms(total) = 0.13769E+02    rms(broyden)= 0.13768E+02
  rms(prec ) = 0.14639E+02
  weight for this iteration     100.00

 Free energy of the ion-electron system (eV)
  ---------------------------------------------------
  alpha Z        PSCENC =      4239.53165527
  Ewald energy   TEWEN  =    -45741.59486770
  -Hartree energ DENC   =    -11835.62437149
  -exchange      EXHF   =         0.00000000
  -V(xc)+E(xc)   XCENC  =      2583.53072205
  PAW double counting   =     43846.48770080   -44395.90475152
  entropy T*S    EENTRO =        -0.07064065
  eigenvalues    EBANDS =     -6832.75171825
  atomic energy  EATOM  =     57150.28677355
  Solvation  Ediel_sol  =         0.00000000
  ---------------------------------------------------
  free energy    TOTEN  =      -986.10949794 eV

  energy without entropy =     -986.03885729  energy(sigma->0) =     -986.07417762


--------------------------------------------------------------------------------------------------------




--------------------------------------- Iteration      1(   6)  ---------------------------------------


    POTLOK:  cpu time    0.2689: real time    0.2695
    SETDIJ:  cpu time    0.0409: real time    0.0410
     EDDAV:  cpu time    8.0145: real time    8.0335
    CHARGE:  cpu time    0.4908: real time    0.4920
    MIXING:  cpu time    0.0061: real time    0.0061
    --------------------------------------------
      LOOP:  cpu time    8.8213: real time    8.8422

 eigenvalue-minimisations  :  2544
 total energy-change (2. order) :-0.1931138E+02  (-0.1262787E+03)
 number of electron     696.0000014 magnetization      14.5535591
 augmentation part      179.1238880 magnetization      15.2642634

 Broyden mixing:
  rms(total) = 0.17453E+02    rms(broyden)= 0.17452E+02
  rms(prec ) = 0.17961E+02
  weight for this iteration     100.00

 eigenvalues of (default mixing * dielectric matrix)
  average eigenvalue GAMMA=   0.3145
  0.3145

 Free energy of the ion-electron system (eV)
  ---------------------------------------------------
  alpha Z        PSCENC =      4239.53165527
  Ewald energy   TEWEN  =    -45741.59486770
  -Hartree energ DENC   =    -11873.77366422
  -exchange      EXHF   =         0.00000000
  -V(xc)+E(xc)   XCENC  =      2623.42568841
  PAW double counting   =     57863.98754495   -58360.63335989
  entropy T*S    EENTRO =        -0.00147343
  eigenvalues    EBANDS =     -6906.64917436
  atomic energy  EATOM  =     57150.28677355
  Solvation  Ediel_sol  =         0.00000000
  ---------------------------------------------------
  free energy    TOTEN  =     -1005.42087743 eV

  energy without entropy =    -1005.41940400  energy(sigma->0) =    -1005.42014071


--------------------------------------------------------------------------------------------------------




--------------------------------------- Iteration      1(   7)  ---------------------------------------


    POTLOK:  cpu time    0.2686: real time    0.2693
    SETDIJ:  cpu time    0.0408: real time    0.0409
     EDDAV:  cpu time    7.5761: real time    7.5941
    CHARGE:  cpu time    0.4957: real time    0.4968
    MIXING:  cpu time    0.0061: real time    0.0061
    --------------------------------------------
      LOOP:  cpu time    8.3874: real time    8.4073

 eigenvalue-minimisations  :  2384
 total energy-change (2. order) : 0.9973933E+02  (-0.3178253E+02)
 number of electron     696.0000012 magnetization      11.4084714
 augmentation part      175.3220505 magnetization      11.6253830

 Broyden mixing:
  rms(total) = 0.80351E+01    rms(broyden)= 0.80350E+01
  rms(prec ) = 0.85663E+01
  weight for this iteration     100.00

 eigenvalues of (default mixing * dielectric matrix)
  average eigenvalue GAMMA=   0.6934
  0.6934  0.6934

 Free energy of the ion-electron system (eV)
  ---------------------------------------------------
  alpha Z        PSCENC =      4239.53165527
  Ewald energy   TEWEN  =    -45741.59486770
  -Hartree energ DENC   =    -11973.77437883
  -exchange      EXHF   =         0.00000000
  -V(xc)+E(xc)   XCENC  =      2615.21364115
  PAW double counting   =     62242.16056879   -62824.19736143
  entropy T*S    EENTRO =        -0.00083324
  eigenvalues    EBANDS =     -6613.30674328
  atomic energy  EATOM  =     57150.28677355
  Solvation  Ediel_sol  =         0.00000000
  ---------------------------------------------------
  free energy    TOTEN  =      -905.68154571 eV

  energy without entropy =     -905.68071247  energy(sigma->0) =     -905.68112909


--------------------------------------------------------------------------------------------------------




--------------------------------------- Iteration      1(   8)  ---------------------------------------


    POTLOK:  cpu time    0.2660: real time    0.2666
    SETDIJ:  cpu time    0.0409: real time    0.0410
     EDDAV:  cpu time    7.2288: real time    7.2460
    CHARGE:  cpu time    0.4741: real time    0.4753
    MIXING:  cpu time    0.0069: real time    0.0069
    --------------------------------------------
      LOOP:  cpu time    8.0167: real time    8.0357

 eigenvalue-minimisations  :  2240
 total energy-change (2. order) :-0.8893333E+02  (-0.2957859E+02)
 number of electron     695.9999994 magnetization      10.1911244
 augmentation part      140.5534805 magnetization       6.0591707

 Broyden mixing:
  rms(total) = 0.16057E+02    rms(broyden)= 0.16056E+02
  rms(prec ) = 0.19725E+02
  weight for this iteration     100.00

 eigenvalues of (default mixing * dielectric matrix)
  average eigenvalue GAMMA=   0.5744
  0.9611  0.5438  0.2183

 Free energy of the ion-electron system (eV)
  ---------------------------------------------------
  alpha Z        PSCENC =      4239.53165527
  Ewald energy   TEWEN  =    -45741.59486770
  -Hartree energ DENC   =    -12031.14118266
  -exchange      EXHF   =         0.00000000
  -V(xc)+E(xc)   XCENC  =      2608.07162096
  PAW double counting   =     69623.21791040   -70295.15463725
  entropy T*S    EENTRO =        -0.08031090
  eigenvalues    EBANDS =     -6547.75183454
  atomic energy  EATOM  =     57150.28677355
  Solvation  Ediel_sol  =         0.00000000
  ---------------------------------------------------
  free energy    TOTEN  =      -994.61487288 eV

  energy without entropy =     -994.53456198  energy(sigma->0) =     -994.57471743


--------------------------------------------------------------------------------------------------------




--------------------------------------- Iteration      1(   9)  ---------------------------------------


    POTLOK:  cpu time    0.2646: real time    0.2652
    SETDIJ:  cpu time    0.0408: real time    0.0408
     EDDAV:  cpu time    7.4054: real time    7.4229
    CHARGE:  cpu time    0.4962: real time    0.4974
    MIXING:  cpu time    0.0065: real time    0.0065
    --------------------------------------------
      LOOP:  cpu time    8.2134: real time    8.2329

 eigenvalue-minimisations  :  2304
 total energy-change (2. order) : 0.1203573E+03  (-0.9620348E+01)
 number of electron     696.0000009 magnetization       6.6384734
 augmentation part      175.5746653 magnetization       5.9743826

 Broyden mixing:
  rms(total) = 0.38269E+01    rms(broyden)= 0.38264E+01
  rms(prec ) = 0.44274E+01
  weight for this iteration     100.00

 eigenvalues of (default mixing * dielectric matrix)
  average eigenvalue GAMMA=   0.8087
  1.9648  0.5490  0.5490  0.1720

 Free energy of the ion-electron system (eV)
  ---------------------------------------------------
  alpha Z        PSCENC =      4239.53165527
  Ewald energy   TEWEN  =    -45741.59486770
  -Hartree energ DENC   =    -11815.10903007
  -exchange      EXHF   =         0.00000000
  -V(xc)+E(xc)   XCENC  =      2598.53251913
  PAW double counting   =     73523.28336484   -74156.68315362
  entropy T*S    EENTRO =        -0.00149111
  eigenvalues    EBANDS =     -6672.50336242
  atomic energy  EATOM  =     57150.28677355
  Solvation  Ediel_sol  =         0.00000000
  ---------------------------------------------------
  free energy    TOTEN  =      -874.25759214 eV

  energy without entropy =     -874.25610103  energy(sigma->0) =     -874.25684658


--------------------------------------------------------------------------------------------------------




--------------------------------------- Iteration      1(  10)  ---------------------------------------


    POTLOK:  cpu time    0.2683: real time    0.2690
    SETDIJ:  cpu time    0.0409: real time    0.0410
     EDDAV:  cpu time    7.6179: real time    7.6359
    CHARGE:  cpu time    0.4976: real time    0.4988
    MIXING:  cpu time    0.0073: real time    0.0073
    --------------------------------------------
      LOOP:  cpu time    8.4319: real time    8.4519

 eigenvalue-minimisations  :  2400
 total energy-change (2. order) : 0.7756790E+01  (-0.2632649E+01)
 number of electron     696.0000010 magnetization       5.0534482
 augmentation part      173.2897105 magnetization       4.0189628

 Broyden mixing:
  rms(total) = 0.23011E+01    rms(broyden)= 0.23009E+01
  rms(prec ) = 0.27794E+01
  weight for this iteration     100.00

 eigenvalues of (default mixing * dielectric matrix)
  average eigenvalue GAMMA=   0.8704
  2.1946  0.7445  0.7445  0.4900  0.1784

 Free energy of the ion-electron system (eV)
  ---------------------------------------------------
  alpha Z        PSCENC =      4239.53165527
  Ewald energy   TEWEN  =    -45741.59486770
  -Hartree energ DENC   =    -11842.17207659
  -exchange      EXHF   =         0.00000000
  -V(xc)+E(xc)   XCENC  =      2601.66634502
  PAW double counting   =     81834.88835619   -82495.55318723
  entropy T*S    EENTRO =        -0.00000482
  eigenvalues    EBANDS =     -6613.55379626
  atomic energy  EATOM  =     57150.28677355
  Solvation  Ediel_sol  =         0.00000000
  ---------------------------------------------------
  free energy    TOTEN  =      -866.50080257 eV

  energy without entropy =     -866.50079775  energy(sigma->0) =     -866.50080016


--------------------------------------------------------------------------------------------------------




--------------------------------------- Iteration      1(  11)  ---------------------------------------


    POTLOK:  cpu time    0.2660: real time    0.2667
    SETDIJ:  cpu time    0.0412: real time    0.0413
     EDDAV:  cpu time    7.7272: real time    7.7455
    CHARGE:  cpu time    0.4937: real time    0.4949
    MIXING:  cpu time    0.0073: real time    0.0073
    --------------------------------------------
      LOOP:  cpu time    8.5354: real time    8.5557

 eigenvalue-minimisations  :  2448
 total energy-change (2. order) : 0.1027956E+00  (-0.1927943E+00)
 number of electron     696.0000010 magnetization       3.9714814
 augmentation part      173.3274841 magnetization       3.3605369

 Broyden mixing:
  rms(total) = 0.21115E+01    rms(broyden)= 0.21115E+01
  rms(prec ) = 0.26049E+01
  weight for this iteration     100.00

 eigenvalues of (default mixing * dielectric matrix)
  average eigenvalue GAMMA=   0.8733
  2.2185  0.9730  0.1769  0.8297  0.5209  0.5209

 Free energy of the ion-electron system (eV)
  ---------------------------------------------------
  alpha Z        PSCENC =      4239.53165527
  Ewald energy   TEWEN  =    -45741.59486770
  -Hartree energ DENC   =    -11851.02408240
  -exchange      EXHF   =         0.00000000
  -V(xc)+E(xc)   XCENC  =      2601.45848199
  PAW double counting   =     83539.73407720   -84196.68761099
  entropy T*S    EENTRO =        -0.00002557
  eigenvalues    EBANDS =     -6608.10240828
  atomic energy  EATOM  =     57150.28677355
  Solvation  Ediel_sol  =         0.00000000
  ---------------------------------------------------
  free energy    TOTEN  =      -866.39800694 eV

  energy without entropy =     -866.39798137  energy(sigma->0) =     -866.39799416


--------------------------------------------------------------------------------------------------------




--------------------------------------- Iteration      1(  12)  ---------------------------------------


    POTLOK:  cpu time    0.2705: real time    0.2711
    SETDIJ:  cpu time    0.0406: real time    0.0407
     EDDAV:  cpu time    8.4997: real time    8.5198
    CHARGE:  cpu time    0.4910: real time    0.4922
    MIXING:  cpu time    0.0074: real time    0.0074
    --------------------------------------------
      LOOP:  cpu time    9.3092: real time    9.3312

 eigenvalue-minimisations  :  2736
 total energy-change (2. order) : 0.2035414E+01  (-0.6693150E-01)
 number of electron     696.0000010 magnetization       3.4956901
 augmentation part      172.5693324 magnetization       3.0470359

 Broyden mixing:
  rms(total) = 0.17140E+01    rms(broyden)= 0.17139E+01
  rms(prec ) = 0.21040E+01
  weight for this iteration     100.00

 eigenvalues of (default mixing * dielectric matrix)
  average eigenvalue GAMMA=   0.8684
  2.2225  0.1771  0.7559  0.7559  0.8176  0.8176  0.5320

 Free energy of the ion-electron system (eV)
  ---------------------------------------------------
  alpha Z        PSCENC =      4239.53165527
  Ewald energy   TEWEN  =    -45741.59486770
  -Hartree energ DENC   =    -11867.55117071
  -exchange      EXHF   =         0.00000000
  -V(xc)+E(xc)   XCENC  =      2601.86092577
  PAW double counting   =     83906.36698306   -84560.71940629
  entropy T*S    EENTRO =        -0.00000311
  eigenvalues    EBANDS =     -6592.54348280
  atomic energy  EATOM  =     57150.28677355
  Solvation  Ediel_sol  =         0.00000000
  ---------------------------------------------------
  free energy    TOTEN  =      -864.36259298 eV

  energy without entropy =     -864.36258986  energy(sigma->0) =     -864.36259142


--------------------------------------------------------------------------------------------------------




--------------------------------------- Iteration      1(  13)  ---------------------------------------


    POTLOK:  cpu time    0.2655: real time    0.2661
    SETDIJ:  cpu time    0.0412: real time    0.0413
     EDDAV:  cpu time    8.1497: real time    8.1690
    CHARGE:  cpu time    0.4946: real time    0.4957
    MIXING:  cpu time    0.0077: real time    0.0077
    --------------------------------------------
      LOOP:  cpu time    8.9587: real time    8.9799

 eigenvalue-minimisations  :  2608
 total energy-change (2. order) : 0.7985374E+00  (-0.2713833E-01)
 number of electron     696.0000010 magnetization       2.1372271
 augmentation part      172.1904400 magnetization       1.6715096

 Broyden mixing:
  rms(total) = 0.15051E+01    rms(broyden)= 0.15050E+01
  rms(prec ) = 0.18439E+01
  weight for this iteration     100.00

 eigenvalues of (default mixing * dielectric matrix)
  average eigenvalue GAMMA=   1.0621
  2.1695  1.6846  1.6846  0.1771  0.8225  0.8225  0.5678  0.5678

 Free energy of the ion-electron system (eV)
  ---------------------------------------------------
  alpha Z        PSCENC =      4239.53165527
  Ewald energy   TEWEN  =    -45741.59486770
  -Hartree energ DENC   =    -11873.54549594
  -exchange      EXHF   =         0.00000000
  -V(xc)+E(xc)   XCENC  =      2602.00455020
  PAW double counting   =     83968.06840943   -84620.77646070
  entropy T*S    EENTRO =        -0.00000086
  eigenvalues    EBANDS =     -6587.53861884
  atomic energy  EATOM  =     57150.28677355
  Solvation  Ediel_sol  =         0.00000000
  ---------------------------------------------------
  free energy    TOTEN  =      -863.56405560 eV

  energy without entropy =     -863.56405474  energy(sigma->0) =     -863.56405517


--------------------------------------------------------------------------------------------------------




--------------------------------------- Iteration      1(  14)  ---------------------------------------


    POTLOK:  cpu time    0.2691: real time    0.2697
    SETDIJ:  cpu time    0.0409: real time    0.0410
     EDDAV:  cpu time    7.8810: real time    7.8997
    CHARGE:  cpu time    0.4990: real time    0.5001
    MIXING:  cpu time    0.0076: real time    0.0076
    --------------------------------------------
      LOOP:  cpu time    8.6976: real time    8.7182

 eigenvalue-minimisations  :  2512
 total energy-change (2. order) : 0.1470757E+01  (-0.7887685E-01)
 number of electron     696.0000010 magnetization       1.5560668
 augmentation part      170.9659749 magnetization       0.8718433

 Broyden mixing:
  rms(total) = 0.82638E+00    rms(broyden)= 0.82608E+00
  rms(prec ) = 0.99670E+00
  weight for this iteration     100.00

 eigenvalues of (default mixing * dielectric matrix)
  average eigenvalue GAMMA=   1.0804
  2.1465  2.0823  2.0823  0.1771  0.8043  0.8043  0.5731  0.5731  0.4803

 Free energy of the ion-electron system (eV)
  ---------------------------------------------------
  alpha Z        PSCENC =      4239.53165527
  Ewald energy   TEWEN  =    -45741.59486770
  -Hartree energ DENC   =    -11887.81992378
  -exchange      EXHF   =         0.00000000
  -V(xc)+E(xc)   XCENC  =      2602.32463703
  PAW double counting   =     83992.51218161   -84638.98017870
  entropy T*S    EENTRO =        -0.00445874
  eigenvalues    EBANDS =     -6578.34911673
  atomic energy  EATOM  =     57150.28677355
  Solvation  Ediel_sol  =         0.00000000
  ---------------------------------------------------
  free energy    TOTEN  =      -862.09329820 eV

  energy without entropy =     -862.08883947  energy(sigma->0) =     -862.09106883


--------------------------------------------------------------------------------------------------------




--------------------------------------- Iteration      1(  15)  ---------------------------------------


    POTLOK:  cpu time    0.2652: real time    0.2658
    SETDIJ:  cpu time    0.0413: real time    0.0414
     EDDAV:  cpu time    7.7019: real time    7.7202
    CHARGE:  cpu time    0.4952: real time    0.4964
    MIXING:  cpu time    0.0084: real time    0.0085
    --------------------------------------------
      LOOP:  cpu time    8.5121: real time    8.5322

 eigenvalue-minimisations  :  2432
 total energy-change (2. order) : 0.2962695E+00  (-0.3922130E-01)
 number of electron     696.0000010 magnetization       1.5194650
 augmentation part      170.5685592 magnetization       0.7206272

 Broyden mixing:
  rms(total) = 0.59482E+00    rms(broyden)= 0.59467E+00
  rms(prec ) = 0.69897E+00
  weight for this iteration     100.00

 eigenvalues of (default mixing * dielectric matrix)
  average eigenvalue GAMMA=   1.0437
  2.2176  2.2176  2.2036  0.1771  0.7749  0.7749  0.5665  0.5665  0.4689  0.4689

 Free energy of the ion-electron system (eV)
  ---------------------------------------------------
  alpha Z        PSCENC =      4239.53165527
  Ewald energy   TEWEN  =    -45741.59486770
  -Hartree energ DENC   =    -11891.85825406
  -exchange      EXHF   =         0.00000000
  -V(xc)+E(xc)   XCENC  =      2602.33117919
  PAW double counting   =     83988.70631660   -84632.31531565
  entropy T*S    EENTRO =        -0.03179847
  eigenvalues    EBANDS =     -6576.85271744
  atomic energy  EATOM  =     57150.28677355
  Solvation  Ediel_sol  =         0.00000000
  ---------------------------------------------------
  free energy    TOTEN  =      -861.79702872 eV

  energy without entropy =     -861.76523025  energy(sigma->0) =     -861.78112948


--------------------------------------------------------------------------------------------------------




--------------------------------------- Iteration      1(  16)  ---------------------------------------


    POTLOK:  cpu time    0.2566: real time    0.2572
    SETDIJ:  cpu time    0.0408: real time    0.0409
     EDDAV:  cpu time    7.5742: real time    7.5922
    CHARGE:  cpu time    0.5008: real time    0.5020
    MIXING:  cpu time    0.0088: real time    0.0088
    --------------------------------------------
      LOOP:  cpu time    8.3812: real time    8.4010

 eigenvalue-minimisations  :  2368
 total energy-change (2. order) :-0.1297841E+00  (-0.2874421E-01)
 number of electron     696.0000010 magnetization       1.5646484
 augmentation part      170.3340583 magnetization       0.9539855

 Broyden mixing:
  rms(total) = 0.64444E+00    rms(broyden)= 0.64419E+00
  rms(prec ) = 0.70246E+00
  weight for this iteration     100.00

 eigenvalues of (default mixing * dielectric matrix)
  average eigenvalue GAMMA=   0.9968
  2.1800  2.1800  2.1728  0.1771  0.7781  0.7781  0.6112  0.6112  0.5449  0.5449
  0.3861

 Free energy of the ion-electron system (eV)
  ---------------------------------------------------
  alpha Z        PSCENC =      4239.53165527
  Ewald energy   TEWEN  =    -45741.59486770
  -Hartree energ DENC   =    -11891.39088164
  -exchange      EXHF   =         0.00000000
  -V(xc)+E(xc)   XCENC  =      2602.48043874
  PAW double counting   =     83934.91618937   -84578.57319671
  entropy T*S    EENTRO =        -0.08374083
  eigenvalues    EBANDS =     -6577.49918280
  atomic energy  EATOM  =     57150.28677355
  Solvation  Ediel_sol  =         0.00000000
  ---------------------------------------------------
  free energy    TOTEN  =      -861.92681277 eV

  energy without entropy =     -861.84307193  energy(sigma->0) =     -861.88494235


--------------------------------------------------------------------------------------------------------




--------------------------------------- Iteration      1(  17)  ---------------------------------------


    POTLOK:  cpu time    0.2644: real time    0.2651
    SETDIJ:  cpu time    0.0410: real time    0.0411
     EDDAV:  cpu time    7.4964: real time    7.5141
    CHARGE:  cpu time    0.5003: real time    0.5015
    MIXING:  cpu time    0.0091: real time    0.0091
    --------------------------------------------
      LOOP:  cpu time    8.3113: real time    8.3310

 eigenvalue-minimisations  :  2352
 total energy-change (2. order) : 0.7973632E-01  (-0.4304124E-02)
 number of electron     696.0000010 magnetization       2.0689608
 augmentation part      170.3342196 magnetization       1.3224505

 Broyden mixing:
  rms(total) = 0.68085E+00    rms(broyden)= 0.68084E+00
  rms(prec ) = 0.73674E+00
  weight for this iteration     100.00

 eigenvalues of (default mixing * dielectric matrix)
  average eigenvalue GAMMA=   0.9656
  2.1862  2.2073  2.2073  0.7766  0.7766  0.1771  0.6228  0.6228  0.5366  0.5366
  0.4683  0.4683

 Free energy of the ion-electron system (eV)
  ---------------------------------------------------
  alpha Z        PSCENC =      4239.53165527
  Ewald energy   TEWEN  =    -45741.59486770
  -Hartree energ DENC   =    -11892.01314443
  -exchange      EXHF   =         0.00000000
  -V(xc)+E(xc)   XCENC  =      2602.36960977
  PAW double counting   =     83969.36640773   -84612.69885888
  entropy T*S    EENTRO =        -0.07274387
  eigenvalues    EBANDS =     -6577.02190788
  atomic energy  EATOM  =     57150.28677355
  Solvation  Ediel_sol  =         0.00000000
  ---------------------------------------------------
  free energy    TOTEN  =      -861.84707645 eV

  energy without entropy =     -861.77433258  energy(sigma->0) =     -861.81070451


--------------------------------------------------------------------------------------------------------




--------------------------------------- Iteration      1(  18)  ---------------------------------------


    POTLOK:  cpu time    0.2658: real time    0.2664
    SETDIJ:  cpu time    0.0408: real time    0.0409
     EDDAV:  cpu time    7.7381: real time    7.7564
    CHARGE:  cpu time    0.4931: real time    0.4942
    MIXING:  cpu time    0.0084: real time    0.0084
    --------------------------------------------
      LOOP:  cpu time    8.5461: real time    8.5664

 eigenvalue-minimisations  :  2432
 total energy-change (2. order) : 0.8017518E-01  (-0.9261290E-02)
 number of electron     696.0000010 magnetization       3.4202515
 augmentation part      170.5955973 magnetization       2.4874496

 Broyden mixing:
  rms(total) = 0.69071E+00    rms(broyden)= 0.69061E+00
  rms(prec ) = 0.78716E+00
  weight for this iteration     100.00

 eigenvalues of (default mixing * dielectric matrix)
  average eigenvalue GAMMA=   1.1406
  1.9294  2.6805  2.6805  2.1489  0.7437  0.7437  0.1771  0.7657  0.7657  0.6107
  0.6107  0.5594  0.4116

 Free energy of the ion-electron system (eV)
  ---------------------------------------------------
  alpha Z        PSCENC =      4239.53165527
  Ewald energy   TEWEN  =    -45741.59486770
  -Hartree energ DENC   =    -11890.92490464
  -exchange      EXHF   =         0.00000000
  -V(xc)+E(xc)   XCENC  =      2602.28720206
  PAW double counting   =     83978.20931921   -84622.22713252
  entropy T*S    EENTRO =        -0.02312641
  eigenvalues    EBANDS =     -6577.31182008
  atomic energy  EATOM  =     57150.28677355
  Solvation  Ediel_sol  =         0.00000000
  ---------------------------------------------------
  free energy    TOTEN  =      -861.76690127 eV

  energy without entropy =     -861.74377486  energy(sigma->0) =     -861.75533807


--------------------------------------------------------------------------------------------------------




--------------------------------------- Iteration      1(  19)  ---------------------------------------


    POTLOK:  cpu time    0.2577: real time    0.2583
    SETDIJ:  cpu time    0.0414: real time    0.0415
     EDDAV:  cpu time    7.5413: real time    7.5592
    CHARGE:  cpu time    0.5009: real time    0.5020
    MIXING:  cpu time    0.0099: real time    0.0100
    --------------------------------------------
      LOOP:  cpu time    8.3512: real time    8.3710

 eigenvalue-minimisations  :  2352
 total energy-change (2. order) : 0.2843417E+00  (-0.7337711E-01)
 number of electron     696.0000010 magnetization       3.6104949
 augmentation part      169.8511756 magnetization       2.3356169

 Broyden mixing:
  rms(total) = 0.48211E+00    rms(broyden)= 0.48065E+00
  rms(prec ) = 0.50755E+00
  weight for this iteration     100.00

 eigenvalues of (default mixing * dielectric matrix)
  average eigenvalue GAMMA=   1.0633
  1.9841  2.6522  2.6522  2.1466  0.7456  0.7456  0.1771  0.7713  0.7713  0.6005
  0.6005  0.5447  0.4218  0.0726

 Free energy of the ion-electron system (eV)
  ---------------------------------------------------
  alpha Z        PSCENC =      4239.53165527
  Ewald energy   TEWEN  =    -45741.59486770
  -Hartree energ DENC   =    -11893.55967770
  -exchange      EXHF   =         0.00000000
  -V(xc)+E(xc)   XCENC  =      2602.38094048
  PAW double counting   =     83921.29988299   -84564.56597232
  entropy T*S    EENTRO =        -0.10008967
  eigenvalues    EBANDS =     -6575.16120444
  atomic energy  EATOM  =     57150.28677355
  Solvation  Ediel_sol  =         0.00000000
  ---------------------------------------------------
  free energy    TOTEN  =      -861.48255955 eV

  energy without entropy =     -861.38246988  energy(sigma->0) =     -861.43251471


--------------------------------------------------------------------------------------------------------




--------------------------------------- Iteration      1(  20)  ---------------------------------------


    POTLOK:  cpu time    0.2663: real time    0.2670
    SETDIJ:  cpu time    0.0409: real time    0.0410
     EDDAV:  cpu time    7.3392: real time    7.3566
    CHARGE:  cpu time    0.5028: real time    0.5040
    MIXING:  cpu time    0.0100: real time    0.0101
    --------------------------------------------
      LOOP:  cpu time    8.1592: real time    8.1785

 eigenvalue-minimisations  :  2288
 total energy-change (2. order) :-0.2391767E+00  (-0.3757639E-01)
 number of electron     696.0000009 magnetization       2.4659963
 augmentation part      169.9310238 magnetization       0.6222872

 Broyden mixing:
  rms(total) = 0.80903E+00    rms(broyden)= 0.80843E+00
  rms(prec ) = 0.83113E+00
  weight for this iteration     100.00

 eigenvalues of (default mixing * dielectric matrix)
  average eigenvalue GAMMA=   0.9762
[...]
     10.18433     10.19075      5.92646        -0.065744     -0.005713     -0.117101
      2.98234     15.29015      5.06868         0.149256      0.009970     -0.149574
     11.62485      5.09265      6.69765         0.134284     -0.005713      0.001614
      5.83696      5.14203      1.70669         0.030882      0.163336      0.060964
      8.71317     10.15229      3.36728        -0.068237     -0.163336      0.003738
      4.38609     -0.04392      2.54435         0.037356     -0.163336      0.057227
      5.83696      5.05418      6.70318         0.030882     -0.163336     -0.060964
      8.71317     15.33823      5.04260        -0.068237      0.163336     -0.003738
      4.38609     10.24013      5.86552         0.037356      0.163336     -0.057227
      4.41865      7.64716      7.48445         0.003816      0.000000     -0.006610
      8.73772     12.64567      1.75265        -0.017951     -0.008558      0.022674
      1.44430      2.60941      0.77380        -0.026843      0.003093     -0.010066
      7.22299      7.54756      7.53175        -0.010661     -0.008558     -0.026883
      2.97762     12.80562      1.70489         0.022138      0.003093     -0.018213
      4.41865      2.54905      0.92542         0.003816      0.000000      0.006610
      5.81420      7.58680      0.06719        -0.026843     -0.003093      0.010066
      5.77463     12.79460      1.70831         0.015989     -0.012430      0.009787
      7.22299      2.64864      0.87812        -0.010661      0.008558      0.026883
      7.28116      7.64716      2.52643        -0.011681      0.000000      0.020232
      7.38534     12.74526      4.20494        -0.003833      0.000000      0.000000
      8.74294      2.49971      3.42206        -0.016470      0.012430     -0.008954
     10.14441      7.70752      2.56724         0.004704      0.003093      0.028279
     10.09893     12.74526      4.20494        -0.007632      0.000000      0.000000
      2.97551      2.44946      3.33040         0.028612     -0.008558      0.004209
      4.41866      7.59781      2.49118         0.000481      0.012430      0.018740
      4.37390     12.74526      4.20494         0.023362      0.000000      0.000000
      5.77544      2.54905      3.27546         0.001917      0.000000      0.003320
      5.77544      7.64716      5.13441         0.001917      0.000000     -0.003320
      5.77463     12.69592      6.70156         0.015989      0.012430     -0.009787
      7.28116      2.54905      5.88344        -0.011681      0.000000     -0.020232
      8.74294      7.69650      4.98781        -0.016470     -0.012430      0.008954
      8.73772     12.84485      6.65722        -0.017951      0.008558     -0.022674
     10.14441      2.48869      5.84263         0.004704     -0.003093     -0.028279
      2.97551      7.74675      5.07947         0.028612      0.008558     -0.004209
     11.71741     12.68490      6.70498         0.022138     -0.003093      0.018213
      4.41866      2.59839      5.91869         0.000481     -0.012430     -0.018740
      8.74184     11.39081      0.06269         0.010109      0.085141      0.101097
      8.68448      3.90351      0.02958        -0.092607     -0.085141      0.041794
      8.73328      1.34159      1.69546         0.005530      0.054664     -0.000424
      8.74581      8.97274      1.64192         0.035234     -0.064306      0.011170
      1.44174      6.31109      0.82716        -0.000179     -0.161626     -0.014145
      1.46685     13.94585      0.84953         0.050670      0.069483      0.047049
      7.27474     11.53780      7.55650        -0.002397      0.054664      0.005001
      2.94495      3.87464      0.02523        -0.027290     -0.064306      0.024929
      2.93268      1.21299      1.67600         0.012339     -0.161626      0.006917
      2.90076      8.84775      1.68656        -0.066081      0.069483      0.020357
      4.31458      6.29270      0.81141        -0.092607      0.085141     -0.041794
      4.37194     14.09972      0.77829         0.010109     -0.085141     -0.101097
     10.20665     11.54467      7.56034         0.050670     -0.069483     -0.047049
      5.81164      3.88512      0.01383        -0.000179      0.161626      0.014145
      5.82548      1.23775      1.67187        -0.007744      0.037875      0.041921
      5.81742      8.79934      1.68176        -0.021510     -0.049472     -0.031563
      7.31485      6.32157      0.81575        -0.027290      0.064306     -0.024929
      7.27474     13.95272      0.85337        -0.002397     -0.054664     -0.005001
      7.27934     11.47448      2.52982        -0.082983      0.182625     -0.037509
      7.27913      3.81983      2.52970         0.073976     -0.182625      0.053111
      7.24600      1.20157      4.17707         0.039561      0.028452     -0.005995
      7.24600      8.99464      4.23280         0.039561     -0.028452      0.005995
      8.74454      6.49498      3.37173         0.038089      0.049472      0.002846
      8.74907     14.05657      3.35981        -0.032432     -0.037875      0.027667
     10.19190     11.40919      2.54277        -0.012160     -0.161626      0.007227
      1.45892      3.74964      2.50984         0.015411      0.069483     -0.067406
     10.24970      1.19460      4.17182         0.082498      0.085141     -0.059303
     10.24970      9.00161      4.23805         0.082498     -0.085141      0.059303
      2.92820      6.43970      3.36284        -0.003132      0.054664     -0.004577
      2.87557     14.07084      3.37877        -0.007944     -0.064306     -0.036099
      4.37426     11.59308      2.51497        -0.016580      0.049472     -0.034409
      4.36168      3.86036      2.51700         0.040176     -0.037875      0.014254
      4.37775      1.27827      4.20482         0.009008      0.182625      0.090620
      4.37775      8.91794      4.20506         0.009008     -0.182625     -0.090620
      5.82098      6.29968      3.41006        -0.024972      0.028452     -0.031263
      5.86924     14.09274      3.38219        -0.014589     -0.028452     -0.037258
      5.86924     11.39778      5.02768        -0.014589      0.028452      0.037258
      5.82098      3.89653      4.99981        -0.024972     -0.028452      0.031263
      5.81742      1.39687      6.72811        -0.021510      0.049472      0.031563
      5.82548      8.95846      6.73800        -0.007744     -0.037875     -0.041921
      7.27913      6.37638      5.88017         0.073976      0.182625     -0.053111
      7.27934     14.01604      5.88005        -0.082983     -0.182625      0.037509
      8.74907     11.43395      5.05006        -0.032432      0.037875     -0.027667
      8.74454      3.70123      5.03814         0.038089     -0.049472     -0.002846
      8.74581      1.22347      6.76795         0.035234      0.064306     -0.011170
      8.73328      8.85461      6.71441         0.005530     -0.054664      0.000424
     10.19871      6.44656      5.90003         0.015411     -0.069483      0.067406
     10.19190     14.08133      5.86710        -0.012160      0.161626     -0.007227
     11.61536     11.41968      5.03110        -0.007944      0.064306      0.036099
      2.92820      3.75651      5.04703        -0.003132     -0.054664      0.004577
     11.64055      1.34846      6.72332        -0.066081     -0.069483     -0.020357
     11.67248      8.98322      6.73388         0.012339      0.161626     -0.006917
      4.36168      6.33585      5.89287         0.040176      0.037875     -0.014254
      4.37426     13.89744      5.89491        -0.016580     -0.049472      0.034409
 -----------------------------------------------------------------------------------
    total drift:                                0.001048     -0.000314     -0.001038


--------------------------------------------------------------------------------------------------------



  FREE ENERGIE OF THE ION-ELECTRON SYSTEM (eV)
  ---------------------------------------------------
  free  energy   TOTEN  =      -862.2853832960 eV

  energy  without entropy=     -862.2821680901  energy(sigma->0) =     -862.28377569
 
 d Force = 0.4862215E-01[ 0.589E-01, 0.383E-01]  d Energy = 0.5554007E-01-0.692E-02
 d Force = 0.1054617E+02[ 0.103E+02, 0.108E+02]  d Ewald  = 0.6680377E+02-0.563E+02


--------------------------------------------------------------------------------------------------------


    POTLOK:  cpu time    0.3199: real time    0.3206


--------------------------------------------------------------------------------------------------------


 Quasi-Newton relaxation of ions (Broydens 2nd method)
  g(Force)  = 0.609E-01   g(Stress)= 0.313E-03

 retain information from N=  1 steps
 eigenvalues of (default step * inverse Hessian matrix)
  average eigenvalue of G=   0.5217
 eigenvalue spectrum of G is  0.5217


--------------------------------------------------------------------------------------------------------


     LOOP+:  cpu time  194.6414: real time  195.1495
    4ORBIT:  cpu time    0.0000: real time    0.0000

volume of typ            1:    20.9 %

volume of typ            2:     3.8 %

volume of typ            3:    20.8 %

volume of typ            4:     8.7 %
 
total charge     
 
# of ion       s       p       d       tot
------------------------------------------
    1        0.213   6.050   2.330   8.593
    2        0.235   6.095   2.146   8.477
    3        0.241   6.104   2.119   8.464
    4        0.235   6.095   2.146   8.477
    5        0.241   6.104   2.119   8.464
    6        0.213   6.050   2.330   8.593
    7        0.241   6.104   2.119   8.464
    8        0.235   6.095   2.146   8.477
    9        0.241   6.105   2.121   8.466
   10        0.232   6.089   2.173   8.494
   11        0.241   6.104   2.119   8.464
   12        0.213   6.050   2.330   8.593
   13        0.235   6.095   2.146   8.477
   14        0.241   6.105   2.121   8.466
   15        0.232   6.089   2.173   8.494
   16        0.232   6.089   2.173   8.494
   17        0.241   6.105   2.121   8.466
   18        0.235   6.095   2.146   8.477
   19        0.241   6.104   2.119   8.464
   20        0.235   6.095   2.146   8.477
   21        0.241   6.104   2.119   8.464
   22        0.187   0.212   8.092   8.491
   23        0.187   0.212   8.092   8.491
   24        0.187   0.212   8.092   8.491
   25        0.187   0.212   8.092   8.491
   26        0.187   0.212   8.092   8.491
   27        0.187   0.212   8.092   8.491
   28        2.075   0.254   0.099   2.428
   29        2.080   0.271   0.109   2.460
   30        2.078   0.266   0.108   2.453
   31        2.080   0.271   0.109   2.460
   32        2.078   0.266   0.108   2.453
   33        2.075   0.254   0.099   2.428
   34        2.078   0.266   0.108   2.453
   35        2.080   0.270   0.111   2.461
   36        2.080   0.271   0.109   2.460
   37        2.075   0.251   0.101   2.427
   38        2.075   0.258   0.101   2.434
   39        2.080   0.270   0.111   2.461
   40        2.078   0.266   0.108   2.453
   41        2.075   0.254   0.099   2.428
   42        2.080   0.271   0.109   2.460
   43        2.080   0.270   0.111   2.461
   44        2.075   0.251   0.101   2.427
   45        2.075   0.258   0.101   2.434
   46        2.075   0.258   0.101   2.434
   47        2.080   0.270   0.111   2.461
   48        2.075   0.251   0.101   2.427
   49        2.080   0.270   0.111   2.461
   50        2.080   0.271   0.109   2.460
   51        2.078   0.266   0.108   2.453
   52        2.080   0.271   0.109   2.460
   53        2.078   0.266   0.108   2.453
   54        2.080   0.270   0.111   2.461
   55        1.246   2.842   0.006   4.093
   56        1.246   2.842   0.006   4.093
   57        1.246   2.839   0.007   4.092
   58        1.245   2.838   0.006   4.089
   59        1.247   2.833   0.006   4.086
   60        1.245   2.838   0.007   4.090
   61        1.246   2.839   0.007   4.092
   62        1.245   2.838   0.006   4.089
   63        1.247   2.833   0.006   4.086
   64        1.245   2.838   0.007   4.090
   65        1.246   2.842   0.006   4.093
   66        1.246   2.842   0.006   4.093
   67        1.245   2.838   0.007   4.090
   68        1.247   2.833   0.006   4.086
   69        1.247   2.838   0.006   4.091
   70        1.243   2.847   0.007   4.096
   71        1.245   2.838   0.006   4.089
   72        1.246   2.839   0.007   4.092
   73        1.247   2.833   0.006   4.086
   74        1.247   2.833   0.006   4.086
   75        1.245   2.838   0.006   4.089
   76        1.245   2.838   0.006   4.089
   77        1.243   2.847   0.007   4.096
   78        1.247   2.838   0.006   4.091
   79        1.247   2.833   0.006   4.086
   80        1.245   2.838   0.007   4.090
   81        1.246   2.842   0.006   4.093
   82        1.246   2.842   0.006   4.093
   83        1.246   2.839   0.007   4.092
   84        1.245   2.838   0.006   4.089
   85        1.243   2.847   0.007   4.096
   86        1.247   2.838   0.006   4.091
   87        1.247   2.833   0.006   4.086
   88        1.247   2.833   0.006   4.086
   89        1.245   2.838   0.006   4.089
   90        1.245   2.838   0.006   4.089
   91        1.245   2.838   0.006   4.089
   92        1.245   2.838   0.006   4.089
   93        1.243   2.847   0.007   4.096
   94        1.247   2.838   0.006   4.091
   95        1.247   2.833   0.006   4.086
   96        1.247   2.833   0.006   4.086
   97        1.247   2.838   0.006   4.091
   98        1.243   2.847   0.007   4.096
   99        1.245   2.838   0.006   4.089
  100        1.246   2.839   0.007   4.092
  101        1.245   2.838   0.007   4.090
  102        1.247   2.833   0.006   4.086
  103        1.245   2.838   0.006   4.089
  104        1.246   2.839   0.007   4.092
  105        1.245   2.838   0.007   4.090
  106        1.247   2.833   0.006   4.086
  107        1.247   2.838   0.006   4.091
  108        1.243   2.847   0.007   4.096
--------------------------------------------------
tot         129.41  289.61   97.21  516.23
 
magnetization (x)
 
# of ion       s       p       d       tot
------------------------------------------
    1       -0.000  -0.000   0.003   0.003
    2       -0.002  -0.002  -0.156  -0.160
    3       -0.000  -0.000   0.000  -0.000
    4       -0.002  -0.002  -0.156  -0.160
    5       -0.000  -0.000   0.000  -0.000
    6       -0.000  -0.000   0.003   0.003
    7       -0.000  -0.000   0.000  -0.000
    8       -0.002  -0.002  -0.156  -0.160
    9        0.001   0.000   0.096   0.097
   10       -0.003  -0.002  -0.206  -0.211
   11       -0.000  -0.000   0.000  -0.000
   12       -0.000  -0.000   0.003   0.003
   13       -0.002  -0.002  -0.156  -0.160
   14        0.001   0.000   0.096   0.097
   15       -0.003  -0.002  -0.206  -0.211
   16       -0.003  -0.002  -0.206  -0.211
   17        0.001   0.000   0.096   0.097
   18       -0.002  -0.002  -0.156  -0.160
   19       -0.000  -0.000   0.000  -0.000
   20       -0.002  -0.002  -0.156  -0.160
   21       -0.000  -0.000   0.000  -0.000
   22        0.000   0.000   0.267   0.268
   23        0.000   0.000   0.267   0.268
   24        0.000   0.000   0.267   0.268
   25        0.000   0.000   0.267   0.268
   26        0.000   0.000   0.267   0.268
   27        0.000   0.000   0.267   0.268
   28        0.001   0.002   0.000   0.003
   29       -0.000   0.001  -0.000   0.000
   30        0.000   0.000  -0.000   0.000
   31       -0.000   0.001  -0.000   0.000
   32        0.000   0.000  -0.000   0.000
   33        0.001   0.002   0.000   0.003
   34        0.000   0.000  -0.000   0.000
   35       -0.001  -0.001  -0.000  -0.002
   36       -0.000   0.001  -0.000   0.000
   37       -0.000  -0.000  -0.000  -0.001
   38        0.001   0.001   0.000   0.002
   39       -0.001  -0.001  -0.000  -0.002
   40        0.000   0.000  -0.000   0.000
   41        0.001   0.002   0.000   0.003
   42       -0.000   0.001  -0.000   0.000
   43       -0.001  -0.001  -0.000  -0.002
   44       -0.000  -0.000  -0.000  -0.001
   45        0.001   0.001   0.000   0.002
   46        0.001   0.001   0.000   0.002
   47       -0.001  -0.001  -0.000  -0.002
   48       -0.000  -0.000  -0.000  -0.001
   49       -0.001  -0.001  -0.000  -0.002
   50       -0.000   0.001  -0.000   0.000
   51        0.000   0.000  -0.000   0.000
   52       -0.000   0.001  -0.000   0.000
   53        0.000   0.000  -0.000   0.000
   54       -0.001  -0.001  -0.000  -0.002
   55       -0.002  -0.024  -0.000  -0.026
   56       -0.002  -0.024  -0.000  -0.026
   57       -0.000   0.007   0.000   0.007
   58        0.002   0.026   0.000   0.029
   59        0.002   0.015  -0.000   0.017
   60       -0.000  -0.006  -0.000  -0.006
   61       -0.000   0.007   0.000   0.007
   62        0.002   0.026   0.000   0.029
   63        0.002   0.015  -0.000   0.017
   64       -0.000  -0.006  -0.000  -0.006
   65       -0.002  -0.024  -0.000  -0.026
   66       -0.002  -0.024  -0.000  -0.026
   67       -0.000  -0.006  -0.000  -0.006
   68        0.002   0.015  -0.000   0.017
   69        0.003   0.035   0.000   0.038
   70       -0.000  -0.013  -0.000  -0.014
   71        0.002   0.026   0.000   0.029
   72       -0.000   0.007   0.000   0.007
   73       -0.002  -0.041  -0.001  -0.044
   74       -0.002  -0.041  -0.001  -0.044
   75        0.002   0.018   0.000   0.020
   76        0.002   0.018   0.000   0.020
   77       -0.000  -0.013  -0.000  -0.014
   78        0.003   0.035   0.000   0.038
   79        0.002   0.015  -0.000   0.017
   80       -0.000  -0.006  -0.000  -0.006
   81       -0.002  -0.024  -0.000  -0.026
   82       -0.002  -0.024  -0.000  -0.026
   83       -0.000   0.007   0.000   0.007
   84        0.002   0.026   0.000   0.029
   85       -0.000  -0.013  -0.000  -0.014
   86        0.003   0.035   0.000   0.038
   87       -0.002  -0.041  -0.001  -0.044
   88       -0.002  -0.041  -0.001  -0.044
   89        0.002   0.018   0.000   0.020
   90        0.002   0.018   0.000   0.020
   91        0.002   0.018   0.000   0.020
   92        0.002   0.018   0.000   0.020
   93       -0.000  -0.013  -0.000  -0.014
   94        0.003   0.035   0.000   0.038
   95       -0.002  -0.041  -0.001  -0.044
   96       -0.002  -0.041  -0.001  -0.044
   97        0.003   0.035   0.000   0.038
   98       -0.000  -0.013  -0.000  -0.014
   99        0.002   0.026   0.000   0.029
  100       -0.000   0.007   0.000   0.007
  101       -0.000  -0.006  -0.000  -0.006
  102        0.002   0.015  -0.000   0.017
  103        0.002   0.026   0.000   0.029
  104       -0.000   0.007   0.000   0.007
  105       -0.000  -0.006  -0.000  -0.006
  106        0.002   0.015  -0.000   0.017
  107        0.003   0.035   0.000   0.038
  108       -0.000  -0.013  -0.000  -0.014
--------------------------------------------------
tot           0.01    0.10    0.34    0.45
 

 total amount of memory used by VASP MPI-rank0   163092. kBytes
=======================================================================

   base      :      30000. kBytes
   nonlr-proj:      50988. kBytes
   fftplans  :       9702. kBytes
   grid      :      59236. kBytes
   one-center:       1679. kBytes
   wavefun   :      11487. kBytes
 
  
  
 General timing and accounting informations for this job:
 ========================================================
  
                  Total CPU time used (sec):     5787.636
                            User time (sec):     5767.482
                          System time (sec):       20.154
                         Elapsed time (sec):     5807.896
  
                   Maximum memory used (kb):      232076.
                   Average memory used (kb):           0.
  
                          Minor page faults:        41961
                          Major page faults:           54
                 Voluntary context switches:         1457
