 vasp.5.4.4.18Apr17-6-g9f103f2a35 (build May 12 2020 05:39:39) gamma-only       
  
 MD_VERSION_INFO: Compiled 2020-05-12T12:39:39-UTC in devlin.sd.materialsdesign.
 com:/home/medea2/data/build/wwolf/vasp-gpu5.4.4/13047/x86_64/src/src/build/gam 
 from svn 13047
 
 This VASP executable licensed from Materials Design, Inc.
 
 executed on                        Lin64 date 2023.04.03  15:04:00
 running on   16 total cores
 distrk:  each k-point on   16 cores,    1 groups
 distr:  one band on NCORES_PER_BAND=   1 cores,   16 groups


--------------------------------------------------------------------------------------------------------


 INCAR:
 POTCAR:    PAW_PBE Ta_pv 07Sep2000               
 POTCAR:    PAW_PBE Ni 02Aug2007                  
 POTCAR:    PAW_PBE Li_sv 10Sep2004               
 POTCAR:    PAW_PBE O 08Apr2002                   

 ----------------------------------------------------------------------------- 
|                                                                             |
|           W    W    AA    RRRRR   N    N  II  N    N   GGGG   !!!           |
|           W    W   A  A   R    R  NN   N  II  NN   N  G    G  !!!           |
|           W    W  A    A  R    R  N N  N  II  N N  N  G       !!!           |
|           W WW W  AAAAAA  RRRRR   N  N N  II  N  N N  G  GGG   !            |
|           WW  WW  A    A  R   R   N   NN  II  N   NN  G    G                |
|           W    W  A    A  R    R  N    N  II  N    N   GGGG   !!!           |
|                                                                             |
|      For optimal performance we recommend to set                            |
|        NCORE= 4 - approx SQRT( number of cores)                             |
|      NCORE specifies how many cores store one orbital (NPAR=cpu/NCORE).     |
|      This setting can  greatly improve the performance of VASP for DFT.     |
|      The default,   NCORE=1            might be grossly inefficient         |
|      on modern multi-core architectures or massively parallel machines.     |
|      Do your own testing !!!!                                               |
|      Unfortunately you need to use the default for GW and RPA calculations. |
|      (for HF NCORE is supported but not extensively tested yet)             |
|                                                                             |
 ----------------------------------------------------------------------------- 

 POTCAR:    PAW_PBE Ta_pv 07Sep2000               
  local pseudopotential read in
  partial core-charges read in
  partial kinetic energy density read in
  atomic valenz-charges read in
  non local Contribution for L=           1  read in
    real space projection operators read in
  non local Contribution for L=           1  read in
    real space projection operators read in
  non local Contribution for L=           2  read in
    real space projection operators read in
  non local Contribution for L=           2  read in
    real space projection operators read in
  non local Contribution for L=           0  read in
    real space projection operators read in
  non local Contribution for L=           0  read in
    real space projection operators read in
    PAW grid and wavefunctions read in
 
   number of l-projection  operators is LMAX  =           6
   number of lm-projection operators is LMMAX =          18
 
 POTCAR:    PAW_PBE Ni 02Aug2007                  
  local pseudopotential read in
  partial core-charges read in
  partial kinetic energy density read in
  atomic valenz-charges read in
  non local Contribution for L=           2  read in
    real space projection operators read in
  non local Contribution for L=           2  read in
    real space projection operators read in
  non local Contribution for L=           0  read in
    real space projection operators read in
  non local Contribution for L=           0  read in
    real space projection operators read in
  non local Contribution for L=           1  read in
    real space projection operators read in
  non local Contribution for L=           1  read in
    real space projection operators read in
    PAW grid and wavefunctions read in
 
   number of l-projection  operators is LMAX  =           6
   number of lm-projection operators is LMMAX =          18
 
 POTCAR:    PAW_PBE Li_sv 10Sep2004               
  local pseudopotential read in
  atomic valenz-charges read in
  non local Contribution for L=           0  read in
    real space projection operators read in
  non local Contribution for L=           0  read in
    real space projection operators read in
  non local Contribution for L=           1  read in
    real space projection operators read in
    PAW grid and wavefunctions read in
 
   number of l-projection  operators is LMAX  =           3
   number of lm-projection operators is LMMAX =           5
 
 POTCAR:    PAW_PBE O 08Apr2002                   
  local pseudopotential read in
  partial core-charges read in
  partial kinetic energy density read in
  kinetic energy density of atom read in
  atomic valenz-charges read in
  non local Contribution for L=           0  read in
    real space projection operators read in
  non local Contribution for L=           0  read in
    real space projection operators read in
  non local Contribution for L=           1  read in
    real space projection operators read in
  non local Contribution for L=           1  read in
    real space projection operators read in
    PAW grid and wavefunctions read in
 
   number of l-projection  operators is LMAX  =           4
   number of lm-projection operators is LMMAX =           8
 
 Optimization of the real space projectors (new method)

 maximal supplied QI-value         = 15.12
 optimisation between [QCUT,QGAM] = [ 11.34, 22.83] = [ 36.00,145.93] Ry 
 Optimized for a Real-space Cutoff    1.61 Angstroem

   l    n(q)    QCUT    max X(q) W(low)/X(q) W(high)/X(q)  e(spline) 
   1     11    11.338     4.092    0.40E-05    0.64E-05    0.47E-07
   1     11    11.338     4.834    0.13E-04    0.44E-04    0.21E-06
   2     10    11.338    62.294    0.15E-03    0.31E-03    0.77E-06
   2     10    11.338    50.966    0.15E-03    0.31E-03    0.77E-06
   0     11    11.338   103.792    0.33E-04    0.19E-04    0.90E-07
   0     11    11.338    56.335    0.26E-04    0.17E-04    0.79E-07
 Optimization of the real space projectors (new method)

 maximal supplied QI-value         = 16.25
 optimisation between [QCUT,QGAM] = [ 11.38, 22.75] = [ 36.24,144.96] Ry 
 Optimized for a Real-space Cutoff    1.47 Angstroem

   l    n(q)    QCUT    max X(q) W(low)/X(q) W(high)/X(q)  e(spline) 
   2      9    11.376    60.317    0.17E-03    0.16E-04    0.16E-06
   2      9    11.376    55.921    0.17E-03    0.16E-04    0.17E-06
   0     10    11.376    51.690    0.45E-04    0.60E-04    0.21E-06
   0     10    11.376    30.015    0.37E-04    0.55E-04    0.19E-06
   1     10    11.376    18.849    0.83E-04    0.11E-03    0.92E-07
   1     10    11.376    14.624    0.69E-04    0.92E-04    0.82E-07
 Optimization of the real space projectors (new method)

 maximal supplied QI-value         = 22.11
 optimisation between [QCUT,QGAM] = [ 11.28, 22.77] = [ 35.61,145.23] Ry 
 Optimized for a Real-space Cutoff    1.10 Angstroem

   l    n(q)    QCUT    max X(q) W(low)/X(q) W(high)/X(q)  e(spline) 
   0      7    11.276    10.506    0.54E-04    0.58E-04    0.16E-07
   0      7    11.276     8.367    0.11E-03    0.14E-03    0.35E-07
   1      7    11.276     8.983    0.23E-03    0.43E-03    0.86E-07
 Optimization of the real space projectors (new method)

 maximal supplied QI-value         = 24.76
 optimisation between [QCUT,QGAM] = [ 11.39, 22.77] = [ 36.31,145.25] Ry 
 Optimized for a Real-space Cutoff    1.10 Angstroem

   l    n(q)    QCUT    max X(q) W(low)/X(q) W(high)/X(q)  e(spline) 
   0      7    11.387    20.381    0.22E-03    0.48E-03    0.18E-06
   0      7    11.387    15.268    0.22E-03    0.52E-03    0.19E-06
   1      7    11.387     5.964    0.22E-03    0.73E-03    0.24E-06
   1      7    11.387     5.382    0.19E-03    0.60E-03    0.21E-06

 ----------------------------------------------------------------------------- 
|                                                                             |
|  ADVICE TO THIS USER RUNNING 'VASP/VAMP'   (HEAR YOUR MASTER'S VOICE ...):  |
|                                                                             |
|      You enforced a specific xc-type in the INCAR file,                     |
|      a different type was found on the POTCAR file                          |
|          I HOPE YOU KNOW, WHAT YOU ARE  DOING                               |
|                                                                             |
 ----------------------------------------------------------------------------- 

  PAW_PBE Ta_pv 07Sep2000               :
 energy of atom  1       EATOM=-1047.1984
 kinetic energy error for atom=    0.0019 (will be added to EATOM!!)
  PAW_PBE Ni 02Aug2007                  :
 energy of atom  2       EATOM=-1077.6739
 kinetic energy error for atom=    0.0030 (will be added to EATOM!!)
  PAW_PBE Li_sv 10Sep2004               :
 energy of atom  3       EATOM= -202.7858
 kinetic energy error for atom=    0.0143 (will be added to EATOM!!)
  PAW_PBE O 08Apr2002                   :
 energy of atom  4       EATOM= -432.3788
 kinetic energy error for atom=    0.0224 (will be added to EATOM!!)
 
 
 POSCAR: ce219124_1                              
  positions in direct lattice
  No initial velocities read in
 exchange correlation table for  LEXCH =       14
   RHO(1)=    0.500       N(1)  =     2000
   RHO(2)=  100.500       N(2)  =     4000
 


--------------------------------------------------------------------------------------------------------


 ion  position               nearest neighbor table
   1  0.995  0.001  0.969- 105 1.95 108 1.96  93 2.03  72 2.03  57 2.17  60 2.18  27 2.59  17 2.82
                            54 2.90  53 2.93  24 3.07   7 3.15   4 3.19  21 3.20
   2  0.889  0.333  0.238-  77 2.06  80 2.06  56 2.09  59 2.10  74 2.11  71 2.14   5 2.81   8 2.85
                            22 2.88  39 3.00  28 3.00  18 3.02  30 3.04  25 3.06  40 3.06  36 3.07
   3  0.072  0.666  0.154-  58 1.96  79 1.97  55 2.02  64 2.04  94 2.23  61 2.25  20 2.62  23 2.71
                            19 2.72  29 2.90  40 2.91  32 3.05   6 3.07  16 3.15
   4  0.336  0.002  0.005-  66 1.95  60 1.99  99 2.01  63 2.02  96 2.02  93 2.10  21 2.84  17 2.87
                            30 3.04  48 3.07   9 3.07  12 3.07  32 3.08  50 3.08  33 3.10  24 3.14
   5  0.206  0.333  0.238-  80 2.06  83 2.06  86 2.10  59 2.10  62 2.12  65 2.12   2 2.81  10 2.81
                            22 2.97  25 3.04  18 3.04  30 3.05  43 3.05  42 3.07  40 3.07  33 3.09
   6  0.439  0.664  0.109-  61 1.95  85 1.99 100 2.01  64 2.02  67 2.02  70 2.10  23 2.84  26 2.87
                            43 3.04  34 3.07   3 3.07  14 3.07  32 3.08  50 3.08  31 3.10  19 3.14
   7  0.662  0.998  0.338-  69 1.97  75 1.98  57 2.00  78 2.03  90 2.03  72 2.09  24 2.73  35 3.02
                            29 3.03  21 3.05   1 3.15   9 3.15  12 3.17  17 3.18
   8  0.568  0.334  0.554-  98 2.05  89 2.07  77 2.08  74 2.10  95 2.11  92 2.12  22 2.78   2 2.85
                            13 2.87  49 2.99  18 3.00  45 3.02  46 3.02  25 3.02  39 3.05  48 3.05
   9  0.291  0.000  0.372-  87 1.96  84 1.97  90 2.02  63 2.04  69 2.23  66 2.25  27 2.62  21 2.71
                            24 2.72  44 2.90  42 2.91  32 3.05   4 3.07   7 3.15
  10  0.206  0.333  0.555- 104 2.06  83 2.06  89 2.09  86 2.10 107 2.11  92 2.14   5 2.81  15 2.85
                            22 2.88  52 3.00  45 3.00  25 3.02  43 3.04  18 3.06  42 3.06  46 3.07
  11  0.476  0.666  0.449-  76 1.95  73 1.96  70 2.03  91 2.03  88 2.17  85 2.18  20 2.59  26 2.82
                            37 2.90  38 2.93  19 3.07  16 3.15   6 3.19  23 3.20
  12  0.695  0.998  0.678- 102 1.95  81 1.96  99 2.03  78 2.03  96 2.18  75 2.21  17 2.54  27 2.70
                            51 2.91  50 2.97  41 2.99  21 3.03   4 3.07  39 3.10   7 3.17  24 3.19
  13  0.566  0.333  0.879-  98 2.07 101 2.07  62 2.08  65 2.08  68 2.10  95 2.10  22 2.75   8 2.87
                            15 2.87  25 2.99  18 2.99  33 3.05  31 3.05  51 3.09  49 3.09   5 3.21
  14  0.766  0.669  0.749-  97 1.95  82 1.96 100 2.03 103 2.03  67 2.18 106 2.21  26 2.54  20 2.70
                            49 2.91  50 2.97  41 2.99  23 3.03   6 3.07  52 3.10  16 3.17  19 3.19
  15  0.890  0.333  0.877- 101 2.05  56 2.07 104 2.08 107 2.10  68 2.11  71 2.12  22 2.78  10 2.85
                            13 2.87  51 2.99  25 3.00  28 3.02  36 3.02  18 3.02  52 3.05  34 3.05
  16  0.107  0.669  0.782-  94 1.97 106 1.98  88 2.00 103 2.03  55 2.03  91 2.09  19 2.73  47 3.02
                            44 3.03  23 3.05  11 3.15   3 3.15  14 3.17  26 3.18
  17  0.675  0.010  0.973- 105 2.00 102 2.10  69 2.23  99 2.25  66 2.32  12 2.54  51 2.76  27 2.82
                             1 2.82   4 2.87   7 3.18
  18  0.557  0.330  0.221-  86 2.03  65 2.04  74 2.05  71 2.06  68 2.06  89 2.07  13 2.99   8 3.00
                             2 3.02  15 3.02   5 3.04  10 3.06
  19  0.802  0.673  0.090- 106 2.07  67 2.10  58 2.18  55 2.20  73 2.20   3 2.72  16 2.73  20 2.99
                            11 3.07   6 3.14  14 3.19
  20  0.773  0.666  0.441-  73 2.06  82 2.10  58 2.21  97 2.27  76 2.28  79 2.30  11 2.59   3 2.62
                            14 2.70  26 2.82  19 2.99  23 3.07
  21  0.014  1.000  0.320-  60 2.04  57 2.12  81 2.13  84 2.17  63 2.36   9 2.71   4 2.84  12 3.03
                             7 3.05  27 3.07   1 3.20
  22  0.873  0.333  0.571-  98 2.13 101 2.13 104 2.23  77 2.23  80 2.42  83 2.42  13 2.75   8 2.78
                            15 2.78   2 2.88  10 2.88   5 2.97
  23  0.124  0.667  0.430-  85 2.04  88 2.12  82 2.13  79 2.17  64 2.36   3 2.71   6 2.84  14 3.03
                            16 3.05  20 3.07  11 3.20
  24  0.355  0.994  0.642-  75 2.07  96 2.10  87 2.18  90 2.20 108 2.20   9 2.72   7 2.73  27 2.99
                             1 3.07   4 3.14  12 3.19
  25  0.224  0.337  0.887-  59 2.03  62 2.04 107 2.05  92 2.06  95 2.06  56 2.07  13 2.99  15 3.00
                            10 3.02   8 3.02   5 3.04   2 3.06
  26  0.471  0.657  0.770-  76 2.00  97 2.10  94 2.23 100 2.25  61 2.32  14 2.54  49 2.76  20 2.82
                            11 2.82   6 2.87  16 3.18
  27  0.004  0.001  0.672- 108 2.06  81 2.10  87 2.21 102 2.27 105 2.28  84 2.30   1 2.59   9 2.62
                            12 2.70  17 2.82  24 2.99  21 3.07
  28  0.002  0.491  0.002-  59 2.04  58 2.09 107 2.09  71 2.15  94 2.25   2 3.00  15 3.02
  29  0.876  0.830  0.237-  72 1.89  73 2.01  79 2.02   3 2.90   7 3.03
  30  0.111  0.168  0.108-  93 1.89  80 1.94  56 2.22  62 2.24   4 3.04   2 3.04   5 3.05
  31  0.329  0.495  0.992-  64 1.92  95 2.05  59 2.10  65 2.25  94 2.28  13 3.05   5 3.09   6 3.10

  32  0.216  0.833  0.229-  79 1.95  84 1.95  61 2.13  66 2.13   3 3.05   9 3.05   6 3.08   4 3.08

  33  0.453  0.172  0.115-  63 1.92  68 2.05  86 2.10  62 2.25  69 2.28  13 3.05   5 3.09   4 3.10

  34  0.666  0.498  0.020- 100 1.94  71 2.08 101 2.14  70 2.24  65 2.24  15 3.05   6 3.07
  35  0.569  0.834  0.208-  90 1.96  73 2.14  67 2.19  72 2.24  85 2.24  66 2.26   7 3.02
  36  0.770  0.173  0.111- 105 2.00  68 2.03  74 2.10  56 2.23  57 2.26  15 3.02   2 3.07
  37  0.678  0.505  0.318-  58 1.97  77 2.08  70 2.14  71 2.19  76 2.22  11 2.90   2 3.08
  38  0.556  0.829  0.572-  78 1.88  97 1.90  73 2.21  91 2.22  96 2.23  11 2.93
  39  0.786  0.166  0.448-  80 2.08  81 2.10  98 2.12  75 2.17  74 2.23   2 3.00   8 3.05  12 3.10

  40  0.989  0.504  0.355-  82 1.99  83 2.08  77 2.08  58 2.15   3 2.91   2 3.06   5 3.07
  41  0.907  0.833  0.538-  79 1.96  84 1.96  97 2.24 102 2.24 103 2.27  78 2.27  14 2.99  12 2.99

  42  0.090  0.163  0.456-  81 1.99  80 2.08 104 2.08  87 2.15   9 2.91  10 3.06   5 3.07
  43  0.337  0.499  0.333-  70 1.89  83 1.94  89 2.22  65 2.24   6 3.04  10 3.04   5 3.05
  44  0.207  0.837  0.568-  91 1.89 108 2.01  84 2.02   9 2.90  16 3.03
  45  0.442  0.175  0.442-  86 2.04  87 2.09  74 2.09  92 2.15  69 2.25  10 3.00   8 3.02
  46  0.333  0.494  0.674-  76 2.00  95 2.03 107 2.10  89 2.23  88 2.26   8 3.02  10 3.07
  47  0.236  0.833  0.876-  55 1.96 108 2.14  96 2.19  91 2.24  60 2.24  61 2.26  16 3.02
  48  0.425  0.169  0.778-  99 1.94  92 2.08  98 2.14  93 2.24  62 2.24   8 3.05   4 3.07
  49  0.664  0.504  0.656-  76 1.98  77 2.08  95 2.17  82 2.20 101 2.24  26 2.76  14 2.91   8 2.99
                            13 3.09
  50  0.560  0.833  0.885-  97 1.99 102 1.99  67 2.14  96 2.14  14 2.97  12 2.97   6 3.08   4 3.08

  51  0.788  0.163  0.780- 105 1.98 104 2.08  68 2.17  81 2.20  98 2.24  17 2.76  12 2.91  15 2.99
                            13 3.09
  52  0.997  0.501  0.658-  83 2.08  82 2.10 101 2.12 106 2.17 107 2.23  10 3.00  15 3.05  14 3.10

  53  0.872  0.837  0.889- 103 1.88 102 1.90 108 2.21  72 2.22  67 2.23   1 2.93
  54  0.127  0.161  0.767-  87 1.97 104 2.08  93 2.14  92 2.19 105 2.22   1 2.90  10 3.08
  55  0.044  0.749  0.989-  47 1.96   3 2.02  16 2.03  19 2.20
  56  0.997  0.264  0.004-  25 2.07  15 2.07   2 2.09  30 2.22  36 2.23
  57  0.878  0.069  0.216-   7 2.00  21 2.12   1 2.17  36 2.26
  58  0.890  0.577  0.214-   3 1.96  37 1.97  28 2.09  40 2.15  19 2.18  20 2.21
  59  0.112  0.411  0.107-  25 2.03  28 2.04   5 2.10   2 2.10  31 2.10
  60  0.121  0.931  0.092-   4 1.99  21 2.04   1 2.18  47 2.24
  61  0.324  0.741  0.019-   6 1.95  32 2.13   3 2.25  47 2.26  26 2.32
  62  0.334  0.263  0.001-  25 2.04  13 2.08   5 2.12  48 2.24  30 2.24  33 2.25
  63  0.269  0.086  0.206-  33 1.92   4 2.02   9 2.04  21 2.36
  64  0.239  0.580  0.176-  31 1.92   6 2.02   3 2.04  23 2.36
  65  0.443  0.404  0.111-  18 2.04  13 2.08   5 2.12  34 2.24  43 2.24  31 2.25
  66  0.425  0.925  0.121-   4 1.95  32 2.13   9 2.25  35 2.26  17 2.32
  67  0.657  0.739  0.995-   6 2.02  19 2.10  50 2.14  14 2.18  35 2.19  53 2.23
  68  0.667  0.252  0.000-  36 2.03  33 2.05  18 2.06  13 2.10  15 2.11  51 2.17
  69  0.546  0.069  0.238-   7 1.97   9 2.23  17 2.23  45 2.25  33 2.28
  70  0.517  0.584  0.252-  43 1.89  11 2.03   6 2.10  37 2.14  34 2.24
  71  0.778  0.406  0.110-  18 2.06  34 2.08  15 2.12   2 2.14  28 2.15  37 2.19
  72  0.808  0.915  0.126-  29 1.89   1 2.03   7 2.09  53 2.22  35 2.24
  73  0.668  0.750  0.332-  11 1.96  29 2.01  20 2.06  35 2.14  19 2.20  38 2.21
  74  0.666  0.253  0.333-  18 2.05  45 2.09  36 2.10   8 2.10   2 2.11  39 2.23
  75  0.575  0.072  0.548-   7 1.98  24 2.07  39 2.17  12 2.21
  76  0.536  0.576  0.569-  11 1.95  49 1.98  46 2.00  26 2.00  37 2.22  20 2.28
  77  0.773  0.422  0.439-   2 2.06  37 2.08   8 2.08  40 2.08  49 2.08  22 2.23
  78  0.728  0.918  0.480-  38 1.88   7 2.03  12 2.03  41 2.27
  79  0.008  0.760  0.329-  32 1.95  41 1.96   3 1.97  29 2.02  23 2.17  20 2.30
  80  0.011  0.241  0.314-  30 1.94   5 2.06   2 2.06  42 2.08  39 2.08  22 2.42
  81  0.894  0.077  0.550-  12 1.96  42 1.99  39 2.10  27 2.10  21 2.13  51 2.20
  82  0.894  0.590  0.550-  14 1.96  40 1.99  52 2.10  20 2.10  23 2.13  49 2.20
  83  0.130  0.425  0.434-  43 1.94   5 2.06  10 2.06  40 2.08  52 2.08  22 2.42
  84  0.116  0.907  0.436-  32 1.95  41 1.96   9 1.97  44 2.02  21 2.17  27 2.30
  85  0.352  0.736  0.324-   6 1.99  23 2.04  11 2.18  35 2.24
  86  0.338  0.255  0.332-  18 2.03  45 2.04   5 2.10  10 2.10  33 2.10
  87  0.231  0.089  0.554-   9 1.96  54 1.97  45 2.09  42 2.15  24 2.18  27 2.21
  88  0.229  0.597  0.566-  16 2.00  23 2.12  11 2.17  46 2.26
  89  0.440  0.402  0.448-  18 2.07   8 2.07  10 2.09  43 2.22  46 2.23
  90  0.455  0.918  0.400-  35 1.96   9 2.02   7 2.03  24 2.20
  91  0.318  0.752  0.637-  44 1.89  11 2.03  16 2.09  38 2.22  47 2.24
  92  0.334  0.260  0.666-  25 2.06  48 2.08   8 2.12  10 2.14  45 2.15  54 2.19
  93  0.192  0.083  0.928-  30 1.89   1 2.03   4 2.10  54 2.14  48 2.24
  94  0.206  0.598  0.898-  16 1.97   3 2.23  26 2.23  28 2.25  31 2.28
  95  0.444  0.414  0.778-  46 2.03  31 2.05  25 2.06  13 2.10   8 2.11  49 2.17
  96  0.449  0.928  0.788-   4 2.02  24 2.10  50 2.14  12 2.18  47 2.19  38 2.23
  97  0.658  0.758  0.674-  38 1.90  14 1.95  50 1.99  26 2.10  41 2.24  20 2.27
  98  0.656  0.247  0.671-   8 2.05  13 2.07  39 2.12  22 2.13  48 2.14  51 2.24
  99  0.533  0.085  0.861-  48 1.94   4 2.01  12 2.03  17 2.25
 100  0.583  0.582  0.911-  34 1.94   6 2.01  14 2.03  26 2.25
 101  0.774  0.420  0.788-  15 2.05  13 2.07  52 2.12  22 2.13  34 2.14  49 2.24
 102  0.770  0.909  0.787-  53 1.90  12 1.95  50 1.99  17 2.10  41 2.24  27 2.27
 103  0.964  0.749  0.717-  53 1.88  16 2.03  14 2.03  41 2.27
 104  0.006  0.244  0.671-  10 2.06  54 2.08  15 2.08  42 2.08  51 2.08  22 2.23
 105  0.875  0.091  0.909-   1 1.95  51 1.98  36 2.00  17 2.00  54 2.22  27 2.28
 106  0.896  0.595  0.869-  16 1.98  19 2.07  52 2.17  14 2.21
 107  0.111  0.414  0.778-  25 2.05  28 2.09  46 2.10  15 2.10  10 2.11  52 2.23
 108  0.112  0.917  0.776-   1 1.96  44 2.01  27 2.06  47 2.14  24 2.20  53 2.21
 
  LATTYP: Found a base centered monoclinic cell.
 ALAT       =    15.3066875404
 B/A-ratio  =     0.5829963859
 C/A-ratio  =     2.2329017728
 COS(beta)  =    -0.7746679396
  
  Lattice vectors:
  
 A1 = (   8.8589214966,   0.0089176668,  -0.0374250011)
 A2 = (   4.3970497540,   0.0089176668,   7.6907635905)
 A3 = ( -26.5265407978, -15.1640495681, -15.3151055536)


Analysis of symmetry for initial positions (statically):
=====================================================================
 Subroutine PRICEL returns:
 Original cell was already a primitive cell.
 

 Routine SETGRP: Setting up the symmetry group for a 
 base centered monoclinic supercell.


 Subroutine GETGRP returns: Found  2 space group operations
 (whereof  1 operations were pure point group operations)
 out of a pool of  4 trial point group operations.


The static configuration has the point symmetry C_1 .
 The point group associated with its full space group is C_2 .


Analysis of symmetry for dynamics (positions and initial velocities):
=====================================================================
 Subroutine PRICEL returns:
 Original cell was already a primitive cell.
 

 Routine SETGRP: Setting up the symmetry group for a 
 base centered monoclinic supercell.


 Subroutine GETGRP returns: Found  2 space group operations
 (whereof  1 operations were pure point group operations)
 out of a pool of  4 trial point group operations.


The dynamic configuration has the point symmetry C_1 .
 The point group associated with its full space group is C_2 .


Analysis of structural, dynamic, and magnetic symmetry:
=====================================================================
 Subroutine PRICEL returns:
 Original cell was already a primitive cell.
 

 Routine SETGRP: Setting up the symmetry group for a 
 base centered monoclinic supercell.


 Subroutine GETGRP returns: Found  2 space group operations
 (whereof  1 operations were pure point group operations)
 out of a pool of  4 trial point group operations.


The magnetic configuration has the point symmetry C_1 .
 The point group associated with its full space group is C_2 .


 Subroutine INISYM returns: Found  2 space group operations
 (whereof  1 operations are pure point group operations),
 and found     1 'primitive' translations

 
 
 KPOINTS: Automatic mesh                          

Automatic generation of k-mesh.
Space group operators:
 irot       det(A)        alpha          n_x          n_y          n_z        tau_x        tau_y        tau_z
    1     1.000000     0.000000     1.000000     0.000000     0.000000     0.000000     0.000000     0.000000
    2     1.000000   180.000000     0.500000     0.000000    -0.866025    -0.555556    -0.333333    -0.555556
 
 Subroutine IBZKPT returns following result:
 ===========================================
 
 Found      1 irreducible k-points:
 
 Following reciprocal coordinates:
            Coordinates               Weight
  0.000000  0.000000  0.000000      1.000000
 
 Following cartesian coordinates:
            Coordinates               Weight
  0.000000  0.000000  0.000000      1.000000
 


--------------------------------------------------------------------------------------------------------




 Dimension of arrays:
   k-points           NKPTS =      1   k-points in BZ     NKDIM =      1   number of bands    NBANDS=    432
   number of dos      NEDOS =    301   number of ions     NIONS =    108
   non local maximal  LDIM  =      6   non local SUM 2l+1 LMDIM =     18
   total plane-waves  NPLWV = 548800
   max r-space proj   IRMAX =   9354   max aug-charges    IRDMAX=  30036
   dimension x,y,z NGX =    70 NGY =  112 NGZ =   70
   dimension x,y,z NGXF=   140 NGYF=  224 NGZF=  140
   support grid    NGXF=   140 NGYF=  224 NGZF=  140
   ions per type =              16  11  27  54
   NGX,Y,Z   is equivalent  to a cutoff of  13.14, 12.31, 13.14 a.u.
   NGXF,Y,Z  is equivalent  to a cutoff of  26.27, 24.62, 26.27 a.u.

 SYSTEM =  unknown system                          
 POSCAR =  ce219124_1                              

 Startparameter for this run:
   NWRITE =      1    write-flag & timer
   PREC   = accura    normal or accurate (medium, high low for compatibility)
   ISTART =      0    job   : 0-new  1-cont  2-samecut
   ICHARG =      2    charge: 1-file 2-atom 10-const
   ISPIN  =      2    spin polarized calculation?
   LNONCOLLINEAR =      F non collinear calculations
   LSORBIT =      F    spin-orbit coupling
   INIWAV =      1    electr: 0-lowe 1-rand  2-diag
   LASPH  =      F    aspherical Exc in radial PAW
   METAGGA=      F    non-selfconsistent MetaGGA calc.

 Electronic Relaxation 1
   ENCUT  =  500.0 eV  36.75 Ry    6.06 a.u.  16.15 27.58 16.15*2*pi/ulx,y,z
   ENINI  =  500.0     initial cutoff
   ENAUG  =  628.9 eV  augmentation charge cutoff
   NELM   =     80;   NELMIN=  2; NELMDL= -5     # of ELM steps 
   EDIFF  = 0.1E-04   stopping-criterion for ELM
   LREAL  =      T    real-space projection
   NLSPLINE    = F    spline interpolate recip. space projectors
   LCOMPAT=      F    compatible to vasp.4.4
   GGA_COMPAT  = T    GGA compatible to vasp.4.4-vasp.4.6
   LMAXPAW     = -100 max onsite density
   LMAXMIX     =    2 max onsite mixed and CHGCAR
   VOSKOWN=      1    Vosko Wilk Nusair interpolation
   ROPT   =   -0.00025  -0.00025  -0.00025  -0.00025
 Ionic relaxation
   EDIFFG = -.2E-01   stopping-criterion for IOM
   NSW    =     20    number of steps for IOM
   NBLOCK =      1;   KBLOCK =     20    inner block; outer block 
   IBRION =      1    ionic relax: 0-MD 1-quasi-New 2-CG
   NFREE  =      0    steps in history (QN), initial steepest desc. (CG)
   ISIF   =      3    stress and relaxation
   IWAVPR =     11    prediction:  0-non 1-charg 2-wave 3-comb
   ISYM   =      2    0-nonsym 1-usesym 2-fastsym
   LCORR  =      T    Harris-Foulkes like correction to forces

   POTIM  = 0.5000    time-step for ionic-motion
   TEIN   =    0.0    initial temperature
   TEBEG  =    0.0;   TEEND  =   0.0 temperature during run
   SMASS  =  -3.00    Nose mass-parameter (am)
   estimated Nose-frequenzy (Omega)   =  0.10E-29 period in steps =****** mass=  -0.179E-26a.u.
   SCALEE = 1.0000    scale energy and forces
   NPACO  =    256;   APACO  = 16.0  distance and # of slots for P.C.
   PSTRESS=    0.0 pullay stress

  Mass of Ions in am
   POMASS = 180.95 58.69  7.01 16.00
  Ionic Valenz
   ZVAL   =  11.00 10.00  3.00  6.00
  Atomic Wigner-Seitz radii
   RWIGS  =   1.34  1.15  1.23  0.73
  virtual crystal weights 
   VCA    =   1.00  1.00  1.00  1.00
   NELECT =     691.0000    total number of electrons
   NUPDOWN=      -1.0000    fix difference up-down

 DOS related values:
   EMIN   =  10.00;   EMAX   =-10.00  energy-range for DOS
   EFERMI =   0.00
   ISMEAR =     0;   SIGMA  =   0.05  broadening in eV -4-tet -1-fermi 0-gaus

 Electronic relaxation 2 (details)
   IALGO  =     38    algorithm
   LDIAG  =      T    sub-space diagonalisation (order eigenvalues)
   LSUBROT=      F    optimize rotation matrix (better conditioning)
   TURBO    =      0    0=normal 1=particle mesh
   IRESTART =      0    0=no restart 2=restart with 2 vectors
   NREBOOT  =      0    no. of reboots
   NMIN     =      0    reboot dimension
   EREF     =   0.00    reference energy to select bands
   IMIX   =      4    mixing-type and parameters
     AMIX     =   0.40;   BMIX     =  1.00
     AMIX_MAG =   1.60;   BMIX_MAG =  1.00
     AMIN     =   0.10
     WC   =   100.;   INIMIX=   1;  MIXPRE=   1;  MAXMIX= -45

 Intra band minimization:
   WEIMIN = 0.0010     energy-eigenvalue tresh-hold
   EBREAK =  0.58E-08  absolut break condition
   DEPER  =   0.30     relativ break condition  

   TIME   =   0.40     timestep for ELM

  volume/ion in A,a.u.               =       9.57        64.56
  Fermi-wavevector in a.u.,A,eV,Ry     =   1.431652  2.705431 27.886888  2.049628
  Thomas-Fermi vector in A             =   2.551366
 
 Write flags
   LWAVE        =      F    write WAVECAR
   LDOWNSAMPLE  =      F    k-point downsampling of WAVECAR
   LCHARG       =      T    write CHGCAR
   LVTOT        =      F    write LOCPOT, total local potential
   LVHAR        =      F    write LOCPOT, Hartree potential only
   LELF         =      F    write electronic localiz. function (ELF)
   LORBIT       =      0    0 simple, 1 ext, 2 COOP (PROOUT), +10 PAW based schemes


 Dipole corrections
   LMONO  =      F    monopole corrections only (constant potential shift)
   LDIPOL =      F    correct potential (dipole corrections)
   IDIPOL =      0    1-x, 2-y, 3-z, 4-all directions 
   EPSILON=  1.0000000 bulk dielectric constant

 Exchange correlation treatment:
   GGA     =    PS    GGA type
   LEXCH   =    14    internal setting for exchange type
   VOSKOWN=      1    Vosko Wilk Nusair interpolation
   LHFCALC =     F    Hartree Fock is set to
   LHFONE  =     F    Hartree Fock one center treatment
   AEXX    =    0.0000 exact exchange contribution

 Linear response parameters
   LEPSILON=     F    determine dielectric tensor
   LRPA    =     F    only Hartree local field effects (RPA)
   LNABLA  =     F    use nabla operator in PAW spheres
   LVEL    =     F    velocity operator in full k-point grid
   LINTERFAST=   F  fast interpolation
   KINTER  =     0    interpolate to denser k-point grid
   CSHIFT  =0.1000    complex shift for real part using Kramers Kronig
   OMEGAMAX=  -1.0    maximum frequency
   DEG_THRESHOLD= 0.2000000E-02 threshold for treating states as degnerate
   RTIME   =   -0.100 relaxation time in fs
  (WPLASMAI=    0.000 imaginary part of plasma frequency in eV, 0.658/RTIME)
   DFIELD  = 0.0000000 0.0000000 0.0000000 field for delta impulse in time
 
 Orbital magnetization related:
   ORBITALMAG=     F  switch on orbital magnetization
   LCHIMAG   =     F  perturbation theory with respect to B field
   DQ        =  0.001000  dq finite difference perturbation B field
   LLRAUG    =     F  two centre corrections for induced B field



--------------------------------------------------------------------------------------------------------


 quasi-Newton-method for relaxation of ions
 charge density and potential will be updated during run
 spin polarized calculation
 Variant of blocked Davidson
 Davidson routine will perform the subspace rotation
 perform sub-space diagonalisation
    after iterative eigenvector-optimisation
 modified Broyden-mixing scheme, WC =      100.0
 initial mixing is a Kerker type mixing with AMIX =  0.4000 and BMIX =      1.0000
 Hartree-type preconditioning will be used
 using additional bands           86
 real space projection scheme for non local part
 use partial core corrections
 calculate Harris-corrections to forces 
   (improved forces if not selfconsistent)
 use gradient corrections 
 use of overlap-Matrix (Vanderbilt PP)
 Gauss-broadening in eV      SIGMA  =   0.05


--------------------------------------------------------------------------------------------------------


  energy-cutoff  :      500.00
  volume of cell :     1033.21
      direct lattice vectors                 reciprocal lattice vectors
     8.858921497  0.008917667 -0.037425001     0.112608647 -0.000072794 -0.064381796
     0.014598297 15.128378901  0.008428375    -0.000066702  0.066101021 -0.000038510
     4.397049754  0.008917667  7.690763590     0.000548052 -0.000072795  0.129712846

  length of vectors
     8.859005037 15.128388292  8.859005061     0.129714025  0.066101066  0.129714025


 
 k-points in units of 2pi/SCALE and weight: Automatic mesh                          
   0.00000000  0.00000000  0.00000000       1.000
 
 k-points in reciprocal lattice and weights: Automatic mesh                          
   0.00000000  0.00000000  0.00000000       1.000
 
 position of ions in fractional coordinates (direct lattice) 
   0.99521150  0.00052191  0.96856555
   0.88938262  0.33331347  0.23807559
   0.07237586  0.66620447  0.15354014
   0.33593273  0.00239124  0.00533293
   0.20598561  0.33333333  0.23845883
   0.43911152  0.66427543  0.10851171
   0.66210526  0.99759666  0.33784221
   0.56780146  0.33390066  0.55418739
   0.29090431  0.00046220  0.37206858
   0.20636885  0.33335319  0.55506183
   0.47587890  0.66614476  0.44923294
   0.69531407  0.99802818  0.67798433
   0.56572536  0.33333333  0.87871908
   0.76646012  0.66863849  0.74913037
   0.89025706  0.33276600  0.87664298
   0.10660223  0.66907001  0.78233919
   0.67474462  0.00969447  0.97298806
   0.55737922  0.32975139  0.22070977
   0.80216990  0.67289026  0.08970272
   0.77278521  0.66595747  0.44089812
   0.01423779  0.99954597  0.32020824
   0.87341286  0.33333333  0.57103158
   0.12423621  0.66712070  0.43020665
   0.35474172  0.99377641  0.64227455
   0.22373467  0.33691527  0.88706523
   0.47145638  0.65697220  0.76969983
   0.00354632  0.00070920  0.67165924
   0.00237438  0.49140175  0.00218989
   0.87632950  0.82979873  0.23716310
   0.11145682  0.16758155  0.10777352
   0.32929700  0.49472426  0.99193590
   0.21558020  0.83333333  0.22886424
   0.45250855  0.17194241  0.11514744
   0.66611090  0.49812538  0.01976723
   0.56856759  0.83384903  0.20835382
   0.77038135  0.17306558  0.11108721
   0.67787808  0.50526392  0.31792901
   0.55552163  0.82942508  0.57201114
   0.78643953  0.16593084  0.44775360
   0.98878431  0.50354300  0.35470891
   0.90690174  0.83333333  0.53754270
   0.08973554  0.16312367  0.45566013
   0.33667093  0.49908512  0.33298762
   0.20728134  0.83686793  0.56811495
   0.44225456  0.17526492  0.44207006
   0.33335723  0.49360109  0.67406310
   0.23609062  0.83281763  0.87587686
   0.42467721  0.16854129  0.77833355
   0.66396495  0.50367116  0.65648120
   0.55963211  0.83333333  0.88481233
   0.78796325  0.16299551  0.78047949
   0.99669084  0.50073583  0.65800492
   0.87243331  0.83724158  0.88892281
   0.12651543  0.16140275  0.76656637
   0.04426532  0.74884856  0.98944567
   0.99673975  0.26434961  0.00420459
   0.87840969  0.06943047  0.21563196
   0.89018904  0.57741250  0.21360441
   0.11240101  0.41137992  0.10664636
   0.12088613  0.93100163  0.09230293
   0.32363000  0.74140488  0.01939110
   0.33361042  0.26300965  0.00099377
   0.26877755  0.08637406  0.20586910
   0.23857534  0.58029260  0.17566689
   0.44345068  0.40365702  0.11083402
   0.42505335  0.92526179  0.12081444
   0.65678983  0.73872060  0.99538181
   0.66679153  0.25239321  0.00035188
   0.54624861  0.06879981  0.23845774
   0.51679892  0.58387414  0.25231045
   0.77846303  0.40643131  0.11007028
   0.80756904  0.91462653  0.12647158
   0.66837035  0.74952648  0.33220735
   0.66610473  0.25298628  0.33303082
   0.57545384  0.07153850  0.54815643
   0.53582991  0.57589033  0.56906141
   0.77303764  0.42225874  0.43865117
   0.72793887  0.91751989  0.48049138
   0.00842112  0.75952271  0.32880093
   0.01062671  0.24125235  0.31415420
   0.89444617  0.07673336  0.55031684
   0.89412760  0.58993330  0.54999827
   0.13029025  0.42541432  0.43381773
   0.11564352  0.90714396  0.43602332
   0.35214152  0.73566504  0.32355831
   0.33779809  0.25528675  0.33204343
   0.23084003  0.08925416  0.55425541
   0.22881248  0.59723619  0.56603476
   0.44023986  0.40231706  0.44770469
   0.45499878  0.91781811  0.40017912
   0.31797286  0.75204014  0.63687541
   0.33437416  0.26023536  0.66598142
   0.19213399  0.08279252  0.92764553
   0.20598670  0.59786685  0.89819584
   0.44409256  0.41427346  0.77765292
   0.44906263  0.92794607  0.78765462
   0.65756641  0.75780299  0.67410081
   0.65597481  0.24692914  0.67058475
   0.53348021  0.08476716  0.86139214
   0.58305230  0.58189950  0.91096423
   0.77385970  0.41973753  0.78846963
   0.77034364  0.90886368  0.78687803
   0.96395306  0.74914678  0.71650558
   0.00579327  0.24440793  0.67140681
   0.87538304  0.09077633  0.90861453
   0.89628802  0.59512816  0.86899060
   0.11141362  0.41368039  0.77833972
   0.11223709  0.91714019  0.77607410
 
 position of ions in cartesian coordinates  (Angst):
  13.07533908  0.02540796  7.41176727
   8.93066683  5.05254676  1.80050722
   1.32602115 10.08060829  1.18374727
   2.99948575  0.03921888  0.02846218
   2.87819179  5.04675632  1.82903093
   4.37688316 10.05429392  0.82370292
   7.36561074 15.10093746  2.58189340
   7.47177247  5.06138122  4.24368847
   4.21310925  0.01290451  2.85060829
   4.27370631  5.04988355  4.26393558
   6.20079798 10.08594017  3.44274909
   9.15543310 15.11079508  5.19660683
   8.88035417  5.05567399  6.73965789
  10.09373453 10.12893196  5.73833534
  11.74621802  5.04996676  6.71154072
   4.39413241 10.12987191  6.01843534
  10.25592805  0.16135555  7.45785054
   5.91306440  4.99554271  1.67934601
   7.51061055 10.18769223  0.66553257
   8.79441632 10.08568016  3.36753466
   1.54869470 15.12449264  2.47053757
  10.25321633  5.05567399  4.36179087
   3.00197770 10.09739906  3.30959084
   5.98124964 15.04311713  4.93468144
   5.88743622  5.10688761  6.81667535
   7.57059418  9.94999259  5.90747238
   2.98474602  0.01675030  5.16544568
   0.03783713  7.43415257  0.02089478
   8.81826584 12.56343935  1.79816256
   1.46371915  2.53719221  0.82610183
   7.28602991  7.49615837  7.62059028
   2.92830077 12.61094577  1.75909632
   4.51755681  2.60627209  0.87008580
   5.99521345  7.54194592  0.13129428
   5.96521053 12.62171240  1.58814932
   7.31573035  2.62606231  0.82697261
   7.41059436  7.65270430  2.42400582
   7.44859215 12.55791184  4.38540276
   8.93822322  2.52127074  3.41553311
  10.32658617  7.62977012  2.69522117
  10.40993856 12.61986344  4.10719667
   2.80090169  2.47266034  3.50239085
   4.45399026  7.55632059  2.55253563
   4.34653567 12.66736986  4.36853370
   5.86426105  2.65936023  3.38478214
   5.92428025  7.47636815  5.17574431
   5.95494012 12.60909682  6.73434547
   7.18701383  2.56048454  5.97150631
   8.77594661  7.63150345  5.02823795
   8.86046601 12.61986344  6.79096187
  10.41469118  2.47984468  5.97436751
  11.73019617  7.59007739  5.02747951
  11.64967833 12.68181504  6.81090095
   4.49377694  2.44972616  5.89210625
   4.75371675 11.33808305  7.61424768
   8.85238604  4.00810715 -0.00273844
   8.73092051  1.06012676  1.62608513
   8.83377328  8.74515834  1.61433234
   1.47068652  6.22546469  0.81945260
   1.49037235 14.08644657  0.71320268
   2.96309964 11.21931289  0.14326935
   2.96363767  3.98189353 -0.00262578
   3.28755681  1.31093225  1.57395957
   2.89440755  8.78258040  1.34697476
   4.42173017  6.11161927  0.83920428
   4.31024861 14.00257881  0.92104613
  10.20597695 11.19037865  7.63689204
   5.91228556  3.82424948 -0.02012118
   5.88868846  1.04782734  1.81405862
   5.69622623  8.83992788  1.92603993
   7.38626057  6.15657050  0.82081608
   7.72364455 13.84514616  0.95014857
   7.39271452 11.34804340  2.53623172
   7.36901577  3.83618226  2.53846460
   7.50921583  1.09228152  4.19480811
   7.25747346  8.72214017  4.36131716
   8.78321504  6.39889565  3.34819047
   8.57489204 13.89136492  3.67583570
   1.53144383 11.49335457  2.53481660
   1.47901471  3.65265325  2.41772134
  10.34471911  1.17373526  4.19952880
  10.34798800  8.93761272  4.20141612
   3.06795956  6.44085955  3.33509904
   2.95493585 13.72853713  3.35667006
   4.55303553 11.13544514  2.48143203
   4.45626499  3.86804811  2.54317708
   4.48338528  1.35727197  4.25476041
   4.52463343  9.04230356  4.34970995
   5.87450330  6.09432332  3.43010583
   5.80380456 13.89272632  3.06839039
   5.62824797 11.38566321  4.89249656
   5.89434687  3.94585997  5.11158506
   5.78221211  1.26250243  7.12780966
   5.78295964  9.05460297  6.90514186
   7.35960739  6.27818099  5.96761625
   7.45511357 14.04934838  6.04868038
   8.80044664 11.47620613  5.16612759
   8.76342860  3.74746741  5.13484013
   8.51488085  1.29482872  6.60551226
   9.17926434  8.81651926  6.98909427
  10.32862998  6.36388073  6.03850953
  10.29762354 13.76352090  6.03052304
  11.70103144 11.34836211  5.48071317
   3.00709921  3.70353482  5.16547420
  11.75149811  1.38920781  6.95594343
  11.76982797  9.01906647  6.65467365
   4.41544202  6.26624821  5.98534378
   4.42012468 13.88276596  5.97213196
 


--------------------------------------------------------------------------------------------------------


 use serial FFT for orbitals x direction half grid
 k-point  1 :   0.0000 0.0000 0.0000  plane waves:   13097

 maximum and minimum number of plane-waves per node :     13097    13097

 maximum number of plane-waves:     13097
 maximum index in each direction: 
   IXMAX=   16   IYMAX=   27   IZMAX=   16
   IXMIN=    0   IYMIN=  -27   IZMIN=  -14

 The following grids will avoid any aliasing or wrap around errors in the Hartre
 e energy
  - symmetry arguments have not been applied
  - exchange correlation energies might require even more grid points
  - we recommend to set PREC=Normal or Accurate and rely on VASP defaults
 NGX is ok and might be reduce to    70
 NGY is ok and might be reduce to   112
 NGZ is ok and might be reduce to    64

 serial   3D FFT for wavefunctions
 parallel 3D FFT for charge:
    minimum data exchange during FFTs selected (reduces bandwidth)


 total amount of memory used by VASP MPI-rank0   176001. kBytes
=======================================================================

   base      :      30000. kBytes
   nonlr-proj:      49155. kBytes
   fftplans  :      11817. kBytes
   grid      :      71572. kBytes
   one-center:       1679. kBytes
   wavefun   :      11778. kBytes
 
     INWAV:  cpu time    0.0000: real time    0.0000
 Broyden mixing: mesh for mixing (old mesh)
   NGX = 33   NGY = 55   NGZ = 33
  (NGX  =140   NGY  =224   NGZ  =140)
  gives a total of  59895 points

 initial charge density was supplied:
 charge density of overlapping atoms calculated
 number of electron     691.0000000 magnetization      27.5000000
 keeping initial charge density in first step


--------------------------------------------------------------------------------------------------------


 Maximum index for non-local projection operator         9044
 Maximum index for augmentation-charges         2142 (set IRDMAX)


--------------------------------------------------------------------------------------------------------


 First call to EWALD:  gamma=   0.175
 Maximum number of real-space cells 3x 2x 3
 Maximum number of reciprocal cells 2x 4x 2

    FEWALD:  cpu time    0.0046: real time    0.0046


--------------------------------------- Iteration      1(   1)  ---------------------------------------


    POTLOK:  cpu time    0.3456: real time    0.3491
    SETDIJ:  cpu time    0.0426: real time    0.0427
     EDDAV:  cpu time    7.2681: real time    7.2894
    --------------------------------------------
      LOOP:  cpu time    7.6569: real time    7.6819

 eigenvalue-minimisations  :  1728
 total energy-change (2. order) : 0.1137465E+05  (-0.3542497E+05)
 number of electron     691.0000000 magnetization      27.5000000
 augmentation part      691.0000000 magnetization      27.5000000

 Free energy of the ion-electron system (eV)
  ---------------------------------------------------
  alpha Z        PSCENC =      3580.25349405
  Ewald energy   TEWEN  =    -43988.30298513
  -Hartree energ DENC   =    -13411.23467696
  -exchange      EXHF   =         0.00000000
  -V(xc)+E(xc)   XCENC  =      2616.92792626
  PAW double counting   =     44552.30397901   -45517.06092417
  entropy T*S    EENTRO =        -0.02587553
  eigenvalues    EBANDS =      6245.60573365
  atomic energy  EATOM  =     57296.18046829
  Solvation  Ediel_sol  =         0.00000000
  ---------------------------------------------------
  free energy    TOTEN  =     11374.64713947 eV

  energy without entropy =    11374.67301500  energy(sigma->0) =    11374.66007724


--------------------------------------------------------------------------------------------------------




--------------------------------------- Iteration      1(   2)  ---------------------------------------


     EDDAV:  cpu time    7.3228: real time    7.3402
    --------------------------------------------
      LOOP:  cpu time    7.3226: real time    7.3400

 eigenvalue-minimisations  :  1840
 total energy-change (2. order) :-0.1014996E+05  (-0.9569101E+04)
 number of electron     691.0000000 magnetization      27.5000000
 augmentation part      691.0000000 magnetization      27.5000000

 Free energy of the ion-electron system (eV)
  ---------------------------------------------------
  alpha Z        PSCENC =      3580.25349405
  Ewald energy   TEWEN  =    -43988.30298513
  -Hartree energ DENC   =    -13411.23467696
  -exchange      EXHF   =         0.00000000
  -V(xc)+E(xc)   XCENC  =      2616.92792626
  PAW double counting   =     44552.30397901   -45517.06092417
  entropy T*S    EENTRO =        -0.03118529
  eigenvalues    EBANDS =     -3904.35256041
  atomic energy  EATOM  =     57296.18046829
  Solvation  Ediel_sol  =         0.00000000
  ---------------------------------------------------
  free energy    TOTEN  =      1224.68353565 eV

  energy without entropy =     1224.71472094  energy(sigma->0) =     1224.69912830


--------------------------------------------------------------------------------------------------------




--------------------------------------- Iteration      1(   3)  ---------------------------------------


     EDDAV:  cpu time    8.0854: real time    8.1046
    --------------------------------------------
      LOOP:  cpu time    8.0855: real time    8.1046

 eigenvalue-minimisations  :  1936
 total energy-change (2. order) :-0.1909618E+04  (-0.1758279E+04)
 number of electron     691.0000000 magnetization      27.5000000
 augmentation part      691.0000000 magnetization      27.5000000

 Free energy of the ion-electron system (eV)
  ---------------------------------------------------
  alpha Z        PSCENC =      3580.25349405
  Ewald energy   TEWEN  =    -43988.30298513
  -Hartree energ DENC   =    -13411.23467696
  -exchange      EXHF   =         0.00000000
  -V(xc)+E(xc)   XCENC  =      2616.92792626
  PAW double counting   =     44552.30397901   -45517.06092417
  entropy T*S    EENTRO =        -0.05698905
  eigenvalues    EBANDS =     -5813.94477711
  atomic energy  EATOM  =     57296.18046829
  Solvation  Ediel_sol  =         0.00000000
  ---------------------------------------------------
  free energy    TOTEN  =      -684.93448482 eV

  energy without entropy =     -684.87749577  energy(sigma->0) =     -684.90599029


--------------------------------------------------------------------------------------------------------




--------------------------------------- Iteration      1(   4)  ---------------------------------------


     EDDAV:  cpu time    9.1247: real time    9.1463
    --------------------------------------------
      LOOP:  cpu time    9.1248: real time    9.1464

 eigenvalue-minimisations  :  2256
 total energy-change (2. order) :-0.2411049E+03  (-0.2310505E+03)
 number of electron     691.0000000 magnetization      27.5000000
 augmentation part      691.0000000 magnetization      27.5000000

 Free energy of the ion-electron system (eV)
  ---------------------------------------------------
  alpha Z        PSCENC =      3580.25349405
  Ewald energy   TEWEN  =    -43988.30298513
  -Hartree energ DENC   =    -13411.23467696
  -exchange      EXHF   =         0.00000000
  -V(xc)+E(xc)   XCENC  =      2616.92792626
  PAW double counting   =     44552.30397901   -45517.06092417
  entropy T*S    EENTRO =        -0.05744243
  eigenvalues    EBANDS =     -6055.04921973
  atomic energy  EATOM  =     57296.18046829
  Solvation  Ediel_sol  =         0.00000000
  ---------------------------------------------------
  free energy    TOTEN  =      -926.03938082 eV

  energy without entropy =     -925.98193839  energy(sigma->0) =     -926.01065960


--------------------------------------------------------------------------------------------------------




--------------------------------------- Iteration      1(   5)  ---------------------------------------


     EDDAV:  cpu time   12.1376: real time   12.1664
    CHARGE:  cpu time    0.6098: real time    0.6112
    MIXING:  cpu time    0.0060: real time    0.0060
    --------------------------------------------
      LOOP:  cpu time   12.7529: real time   12.7832

 eigenvalue-minimisations  :  3184
 total energy-change (2. order) :-0.2396218E+02  (-0.2345495E+02)
 number of electron     690.9999984 magnetization      26.3620264
 augmentation part      176.8829117 magnetization      22.0563569

 Broyden mixing:
  rms(total) = 0.13754E+02    rms(broyden)= 0.13753E+02
  rms(prec ) = 0.14714E+02
  weight for this iteration     100.00

 Free energy of the ion-electron system (eV)
  ---------------------------------------------------
  alpha Z        PSCENC =      3580.25349405
  Ewald energy   TEWEN  =    -43988.30298513
  -Hartree energ DENC   =    -13411.23467696
  -exchange      EXHF   =         0.00000000
  -V(xc)+E(xc)   XCENC  =      2616.92792626
  PAW double counting   =     44552.30397901   -45517.06092417
  entropy T*S    EENTRO =        -0.05203199
  eigenvalues    EBANDS =     -6079.01680610
  atomic energy  EATOM  =     57296.18046829
  Solvation  Ediel_sol  =         0.00000000
  ---------------------------------------------------
  free energy    TOTEN  =      -950.00155674 eV

  energy without entropy =     -949.94952475  energy(sigma->0) =     -949.97554075


--------------------------------------------------------------------------------------------------------




--------------------------------------- Iteration      1(   6)  ---------------------------------------


    POTLOK:  cpu time    0.3501: real time    0.3509
    SETDIJ:  cpu time    0.0439: real time    0.0440
     EDDAV:  cpu time   10.0237: real time   10.0475
    CHARGE:  cpu time    0.6122: real time    0.6136
    MIXING:  cpu time    0.0074: real time    0.0074
    --------------------------------------------
      LOOP:  cpu time   11.0372: real time   11.0635

 eigenvalue-minimisations  :  2528
 total energy-change (2. order) :-0.3013319E+02  (-0.1308587E+03)
 number of electron     690.9999984 magnetization      23.8385098
 augmentation part      199.7814248 magnetization      23.7699379

 Broyden mixing:
  rms(total) = 0.16316E+02    rms(broyden)= 0.16315E+02
  rms(prec ) = 0.17036E+02
  weight for this iteration     100.00

 eigenvalues of (default mixing * dielectric matrix)
  average eigenvalue GAMMA=   0.3324
  0.3324

 Free energy of the ion-electron system (eV)
  ---------------------------------------------------
  alpha Z        PSCENC =      3580.25349405
  Ewald energy   TEWEN  =    -43988.30298513
  -Hartree energ DENC   =    -13351.13261893
  -exchange      EXHF   =         0.00000000
  -V(xc)+E(xc)   XCENC  =      2646.45929023
  PAW double counting   =     57077.50895838   -57949.42217283
  entropy T*S    EENTRO =        -0.01902860
  eigenvalues    EBANDS =     -6291.66015648
  atomic energy  EATOM  =     57296.18046829
  Solvation  Ediel_sol  =         0.00000000
  ---------------------------------------------------
  free energy    TOTEN  =      -980.13475102 eV

  energy without entropy =     -980.11572242  energy(sigma->0) =     -980.12523672


--------------------------------------------------------------------------------------------------------




--------------------------------------- Iteration      1(   7)  ---------------------------------------


    POTLOK:  cpu time    0.3521: real time    0.3530
    SETDIJ:  cpu time    0.0445: real time    0.0446
     EDDAV:  cpu time    9.7429: real time    9.7660
    CHARGE:  cpu time    0.6142: real time    0.6157
    MIXING:  cpu time    0.0078: real time    0.0078
    --------------------------------------------
      LOOP:  cpu time   10.7614: real time   10.7871

 eigenvalue-minimisations  :  2448
 total energy-change (2. order) : 0.1385754E+03  (-0.3619846E+02)
 number of electron     690.9999985 magnetization      18.7424864
 augmentation part      191.6638910 magnetization      18.7504563

 Broyden mixing:
  rms(total) = 0.66558E+01    rms(broyden)= 0.66557E+01
  rms(prec ) = 0.72425E+01
  weight for this iteration     100.00

 eigenvalues of (default mixing * dielectric matrix)
  average eigenvalue GAMMA=   0.7126
  0.7320  0.6933

 Free energy of the ion-electron system (eV)
  ---------------------------------------------------
  alpha Z        PSCENC =      3580.25349405
  Ewald energy   TEWEN  =    -43988.30298513
  -Hartree energ DENC   =    -13551.78273490
  -exchange      EXHF   =         0.00000000
  -V(xc)+E(xc)   XCENC  =      2645.18430314
  PAW double counting   =     61626.66291519   -62629.65943164
  entropy T*S    EENTRO =        -0.03377745
  eigenvalues    EBANDS =     -5820.06156165
  atomic energy  EATOM  =     57296.18046829
  Solvation  Ediel_sol  =         0.00000000
  ---------------------------------------------------
  free energy    TOTEN  =      -841.55931010 eV

  energy without entropy =     -841.52553265  energy(sigma->0) =     -841.54242138


--------------------------------------------------------------------------------------------------------




--------------------------------------- Iteration      1(   8)  ---------------------------------------


    POTLOK:  cpu time    0.3498: real time    0.3507
    SETDIJ:  cpu time    0.0449: real time    0.0450
     EDDAV:  cpu time   10.1771: real time   10.2013
    CHARGE:  cpu time    0.5963: real time    0.5977
    MIXING:  cpu time    0.0082: real time    0.0082
    --------------------------------------------
      LOOP:  cpu time   11.1763: real time   11.2029

 eigenvalue-minimisations  :  2576
 total energy-change (2. order) :-0.1081387E+03  (-0.4955901E+02)
 number of electron     690.9999981 magnetization      17.0121980
 augmentation part      148.6087685 magnetization      12.7631170

 Broyden mixing:
  rms(total) = 0.17065E+02    rms(broyden)= 0.17064E+02
  rms(prec ) = 0.21997E+02
  weight for this iteration     100.00

 eigenvalues of (default mixing * dielectric matrix)
  average eigenvalue GAMMA=   0.6154
  1.1907  0.4469  0.2087

 Free energy of the ion-electron system (eV)
  ---------------------------------------------------
  alpha Z        PSCENC =      3580.25349405
  Ewald energy   TEWEN  =    -43988.30298513
  -Hartree energ DENC   =    -13649.24047428
  -exchange      EXHF   =         0.00000000
  -V(xc)+E(xc)   XCENC  =      2642.34033098
  PAW double counting   =     69106.87142286   -70201.02433769
  entropy T*S    EENTRO =        -0.10850466
  eigenvalues    EBANDS =     -5736.66745650
  atomic energy  EATOM  =     57296.18046829
  Solvation  Ediel_sol  =         0.00000000
  ---------------------------------------------------
  free energy    TOTEN  =      -949.69804207 eV

  energy without entropy =     -949.58953742  energy(sigma->0) =     -949.64378975


--------------------------------------------------------------------------------------------------------




--------------------------------------- Iteration      1(   9)  ---------------------------------------


    POTLOK:  cpu time    0.3285: real time    0.3293
    SETDIJ:  cpu time    0.0452: real time    0.0453
     EDDAV:  cpu time    9.7149: real time    9.7379
    CHARGE:  cpu time    0.5786: real time    0.5800
    MIXING:  cpu time    0.0086: real time    0.0086
    --------------------------------------------
      LOOP:  cpu time   10.6758: real time   10.7012

 eigenvalue-minimisations  :  2448
 total energy-change (2. order) : 0.6217437E+02  (-0.2366968E+02)
 number of electron     690.9999990 magnetization      15.6077413
 augmentation part      181.1471417 magnetization      10.8384944

 Broyden mixing:
  rms(total) = 0.97987E+01    rms(broyden)= 0.97982E+01
  rms(prec ) = 0.12282E+02
  weight for this iteration     100.00

 eigenvalues of (default mixing * dielectric matrix)
  average eigenvalue GAMMA=   0.5899
  1.4449  0.3974  0.3974  0.1199

 Free energy of the ion-electron system (eV)
  ---------------------------------------------------
  alpha Z        PSCENC =      3580.25349405
  Ewald energy   TEWEN  =    -43988.30298513
  -Hartree energ DENC   =    -13468.41807293
  -exchange      EXHF   =         0.00000000
  -V(xc)+E(xc)   XCENC  =      2633.53951371
  PAW double counting   =     72137.28762992   -73193.88253800
  entropy T*S    EENTRO =        -0.06479717
  eigenvalues    EBANDS =     -5884.11638767
  atomic energy  EATOM  =     57296.18046829
  Solvation  Ediel_sol  =         0.00000000
  ---------------------------------------------------
  free energy    TOTEN  =      -887.52367492 eV

  energy without entropy =     -887.45887776  energy(sigma->0) =     -887.49127634


--------------------------------------------------------------------------------------------------------




--------------------------------------- Iteration      1(  10)  ---------------------------------------


    POTLOK:  cpu time    0.3500: real time    0.3508
    SETDIJ:  cpu time    0.0446: real time    0.0447
     EDDAV:  cpu time    9.2519: real time    9.2739
    CHARGE:  cpu time    0.6131: real time    0.6146
    MIXING:  cpu time    0.0084: real time    0.0085
    --------------------------------------------
      LOOP:  cpu time   10.2680: real time   10.2924

 eigenvalue-minimisations  :  2304
 total energy-change (2. order) : 0.4361638E+02  (-0.3067994E+01)
 number of electron     690.9999985 magnetization      12.2144557
 augmentation part      191.2140600 magnetization      10.8960499

 Broyden mixing:
  rms(total) = 0.48922E+01    rms(broyden)= 0.48918E+01
  rms(prec ) = 0.57892E+01
  weight for this iteration     100.00

 eigenvalues of (default mixing * dielectric matrix)
  average eigenvalue GAMMA=   0.6209
  1.8049  0.4936  0.4936  0.1978  0.1144

 Free energy of the ion-electron system (eV)
  ---------------------------------------------------
  alpha Z        PSCENC =      3580.25349405
  Ewald energy   TEWEN  =    -43988.30298513
  -Hartree energ DENC   =    -13389.47822140
  -exchange      EXHF   =         0.00000000
  -V(xc)+E(xc)   XCENC  =      2630.72274992
  PAW double counting   =     74440.02886196   -75481.63661219
  entropy T*S    EENTRO =        -0.01589103
  eigenvalues    EBANDS =     -5931.65915751
  atomic energy  EATOM  =     57296.18046829
  Solvation  Ediel_sol  =         0.00000000
  ---------------------------------------------------
  free energy    TOTEN  =      -843.90729304 eV

  energy without entropy =     -843.89140201  energy(sigma->0) =     -843.89934752


--------------------------------------------------------------------------------------------------------




--------------------------------------- Iteration      1(  11)  ---------------------------------------


    POTLOK:  cpu time    0.3484: real time    0.3492
    SETDIJ:  cpu time    0.0447: real time    0.0448
     EDDAV:  cpu time    9.6036: real time    9.6263
    CHARGE:  cpu time    0.6137: real time    0.6151
    MIXING:  cpu time    0.0088: real time    0.0088
    --------------------------------------------
      LOOP:  cpu time   10.6191: real time   10.6443

 eigenvalue-minimisations  :  2400
 total energy-change (2. order) : 0.4441475E+01  (-0.2448243E+02)
 number of electron     690.9999983 magnetization       9.6448624
 augmentation part      189.0205200 magnetization       8.6433480

 Broyden mixing:
  rms(total) = 0.40040E+01    rms(broyden)= 0.40033E+01
  rms(prec ) = 0.44850E+01
  weight for this iteration     100.00

 eigenvalues of (default mixing * dielectric matrix)
  average eigenvalue GAMMA=   0.6179
  2.0443  0.5388  0.5388  0.2350  0.2350  0.1153

 Free energy of the ion-electron system (eV)
  ---------------------------------------------------
  alpha Z        PSCENC =      3580.25349405
  Ewald energy   TEWEN  =    -43988.30298513
  -Hartree energ DENC   =    -13415.39855411
  -exchange      EXHF   =         0.00000000
  -V(xc)+E(xc)   XCENC  =      2633.12573344
  PAW double counting   =     78452.40118713   -79510.04666538
  entropy T*S    EENTRO =        -0.03378842
  eigenvalues    EBANDS =     -5887.64470810
  atomic energy  EATOM  =     57296.18046829
  Solvation  Ediel_sol  =         0.00000000
  ---------------------------------------------------
  free energy    TOTEN  =      -839.46581824 eV

  energy without entropy =     -839.43202981  energy(sigma->0) =     -839.44892402


--------------------------------------------------------------------------------------------------------




--------------------------------------- Iteration      1(  12)  ---------------------------------------


    POTLOK:  cpu time    0.3321: real time    0.3330
    SETDIJ:  cpu time    0.0423: real time    0.0424
     EDDAV:  cpu time    9.6051: real time    9.6278
    CHARGE:  cpu time    0.6179: real time    0.6193
    MIXING:  cpu time    0.0090: real time    0.0090
    --------------------------------------------
      LOOP:  cpu time   10.6065: real time   10.6316

 eigenvalue-minimisations  :  2400
 total energy-change (2. order) : 0.7451477E+01  (-0.3850050E+01)
 number of electron     690.9999984 magnetization       9.3040056
 augmentation part      187.6326468 magnetization       6.6700102

 Broyden mixing:
  rms(total) = 0.35163E+01    rms(broyden)= 0.35156E+01
  rms(prec ) = 0.42006E+01
  weight for this iteration     100.00

 eigenvalues of (default mixing * dielectric matrix)
  average eigenvalue GAMMA=   0.5658
  2.0528  0.5483  0.5483  0.2574  0.2574  0.1155  0.1806

 Free energy of the ion-electron system (eV)
  ---------------------------------------------------
  alpha Z        PSCENC =      3580.25349405
  Ewald energy   TEWEN  =    -43988.30298513
  -Hartree energ DENC   =    -13440.87189867
  -exchange      EXHF   =         0.00000000
  -V(xc)+E(xc)   XCENC  =      2634.77756906
  PAW double counting   =     80761.15144162   -81830.36568361
  entropy T*S    EENTRO =        -0.04105525
  eigenvalues    EBANDS =     -5844.79569200
  atomic energy  EATOM  =     57296.18046829
  Solvation  Ediel_sol  =         0.00000000
  ---------------------------------------------------
  free energy    TOTEN  =      -832.01434165 eV

  energy without entropy =     -831.97328640  energy(sigma->0) =     -831.99381403


--------------------------------------------------------------------------------------------------------




--------------------------------------- Iteration      1(  13)  ---------------------------------------


    POTLOK:  cpu time    0.3469: real time    0.3478
    SETDIJ:  cpu time    0.0444: real time    0.0445
     EDDAV:  cpu time    9.7757: real time    9.7989
    CHARGE:  cpu time    0.6166: real time    0.6181
    MIXING:  cpu time    0.0094: real time    0.0095
    --------------------------------------------
      LOOP:  cpu time   10.7930: real time   10.8187

 eigenvalue-minimisations  :  2496
 total energy-change (2. order) : 0.2101817E+01  (-0.6725588E+01)
 number of electron     690.9999984 magnetization       7.9570547
 augmentation part      188.4110098 magnetization       7.4862901

 Broyden mixing:
  rms(total) = 0.26043E+01    rms(broyden)= 0.26035E+01
  rms(prec ) = 0.30915E+01
  weight for this iteration     100.00

 eigenvalues of (default mixing * dielectric matrix)
  average eigenvalue GAMMA=   0.5706
  2.0697  0.6403  0.6403  0.3828  0.3828  0.2044  0.1135  0.1312

 Free energy of the ion-electron system (eV)
  ---------------------------------------------------
  alpha Z        PSCENC =      3580.25349405
  Ewald energy   TEWEN  =    -43988.30298513
  -Hartree energ DENC   =    -13444.42333599
  -exchange      EXHF   =         0.00000000
  -V(xc)+E(xc)   XCENC  =      2634.75430801
  PAW double counting   =     80977.96027180   -82048.23057070
  entropy T*S    EENTRO =        -0.03892703
  eigenvalues    EBANDS =     -5838.06524756
  atomic energy  EATOM  =     57296.18046829
  Solvation  Ediel_sol  =         0.00000000
  ---------------------------------------------------
  free energy    TOTEN  =      -829.91252424 eV

  energy without entropy =     -829.87359721  energy(sigma->0) =     -829.89306073


--------------------------------------------------------------------------------------------------------




--------------------------------------- Iteration      1(  14)  ---------------------------------------


    POTLOK:  cpu time    0.3486: real time    0.3494
    SETDIJ:  cpu time    0.0451: real time    0.0452
     EDDAV:  cpu time    9.6022: real time    9.6250
    CHARGE:  cpu time    0.5647: real time    0.5660
    MIXING:  cpu time    0.0082: real time    0.0082
    --------------------------------------------
      LOOP:  cpu time   10.5687: real time   10.5938

 eigenvalue-minimisations  :  2400
 total energy-change (2. order) : 0.3060466E+01  (-0.1507075E+01)
 number of electron     690.9999985 magnetization       7.5079254
 augmentation part      187.9400417 magnetization       6.9826857

 Broyden mixing:
  rms(total) = 0.24545E+01    rms(broyden)= 0.24539E+01
  rms(prec ) = 0.29000E+01
  weight for this iteration     100.00

 eigenvalues of (default mixing * dielectric matrix)
  average eigenvalue GAMMA=   0.5384
  2.0930  0.6605  0.6605  0.3998  0.3998  0.1973  0.1973  0.1160  0.1216

 Free energy of the ion-electron system (eV)
  ---------------------------------------------------
  alpha Z        PSCENC =      3580.25349405
  Ewald energy   TEWEN  =    -43988.30298513
  -Hartree energ DENC   =    -13457.70228390
  -exchange      EXHF   =         0.00000000
  -V(xc)+E(xc)   XCENC  =      2635.08791122
  PAW double counting   =     81313.01217176   -82383.47309440
  entropy T*S    EENTRO =        -0.03694920
  eigenvalues    EBANDS =     -5821.87079070
  atomic energy  EATOM  =     57296.18046829
  Solvation  Ediel_sol  =         0.00000000
  ---------------------------------------------------
  free energy    TOTEN  =      -826.85205801 eV

  energy without entropy =     -826.81510881  energy(sigma->0) =     -826.83358341


--------------------------------------------------------------------------------------------------------




--------------------------------------- Iteration      1(  15)  ---------------------------------------


    POTLOK:  cpu time    0.3122: real time    0.3130
    SETDIJ:  cpu time    0.0450: real time    0.0451
     EDDAV:  cpu time    9.4511: real time    9.4736
    CHARGE:  cpu time    0.6168: real time    0.6182
    MIXING:  cpu time    0.0085: real time    0.0085
    --------------------------------------------
      LOOP:  cpu time   10.4336: real time   10.4584

 eigenvalue-minimisations  :  2400
 total energy-change (2. order) : 0.1155585E+01  (-0.1169811E+01)
 number of electron     690.9999985 magnetization       6.5287299
 augmentation part      188.1583163 magnetization       5.2637923

 Broyden mixing:
  rms(total) = 0.19791E+01    rms(broyden)= 0.19787E+01
  rms(prec ) = 0.24546E+01
  weight for this iteration     100.00

 eigenvalues of (default mixing * dielectric matrix)
  average eigenvalue GAMMA=   0.5469
  2.0784  0.6963  0.6963  0.5331  0.5331  0.2684  0.2684  0.1618  0.1123  0.1207

 Free energy of the ion-electron system (eV)
  ---------------------------------------------------
  alpha Z        PSCENC =      3580.25349405
  Ewald energy   TEWEN  =    -43988.30298513
  -Hartree energ DENC   =    -13459.90015392
  -exchange      EXHF   =         0.00000000
  -V(xc)+E(xc)   XCENC  =      2635.11513848
  PAW double counting   =     81403.64218184   -82473.69580894
  entropy T*S    EENTRO =        -0.04447040
  eigenvalues    EBANDS =     -5818.94433744
  atomic energy  EATOM  =     57296.18046829
  Solvation  Ediel_sol  =         0.00000000
  ---------------------------------------------------
  free energy    TOTEN  =      -825.69647317 eV

  energy without entropy =     -825.65200278  energy(sigma->0) =     -825.67423797


--------------------------------------------------------------------------------------------------------




--------------------------------------- Iteration      1(  16)  ---------------------------------------


    POTLOK:  cpu time    0.3453: real time    0.3461
    SETDIJ:  cpu time    0.0450: real time    0.0451
     EDDAV:  cpu time    9.0059: real time    9.0273
    CHARGE:  cpu time    0.6116: real time    0.6130
    MIXING:  cpu time    0.0098: real time    0.0098
    --------------------------------------------
      LOOP:  cpu time   10.0176: real time   10.0413

 eigenvalue-minimisations  :  2384
 total energy-change (2. order) : 0.8525564E+00  (-0.4338889E+00)
 number of electron     690.9999985 magnetization       6.2701974
 augmentation part      187.4493815 magnetization       5.0295633

 Broyden mixing:
  rms(total) = 0.19575E+01    rms(broyden)= 0.19573E+01
  rms(prec ) = 0.23867E+01
  weight for this iteration     100.00

 eigenvalues of (default mixing * dielectric matrix)
  average eigenvalue GAMMA=   0.5184
  2.0851  0.6520  0.6520  0.6167  0.6167  0.2682  0.2682  0.1543  0.1543  0.1148
  0.1205

 Free energy of the ion-electron system (eV)
  ---------------------------------------------------
  alpha Z        PSCENC =      3580.25349405
  Ewald energy   TEWEN  =    -43988.30298513
  -Hartree energ DENC   =    -13466.43237585
  -exchange      EXHF   =         0.00000000
  -V(xc)+E(xc)   XCENC  =      2635.06969935
  PAW double counting   =     81445.67801883   -82513.37390378
  entropy T*S    EENTRO =        -0.01863861
  eigenvalues    EBANDS =     -5813.89769395
  atomic energy  EATOM  =     57296.18046829
  Solvation  Ediel_sol  =         0.00000000
  ---------------------------------------------------
  free energy    TOTEN  =      -824.84391679 eV

  energy without entropy =     -824.82527818  energy(sigma->0) =     -824.83459749


--------------------------------------------------------------------------------------------------------




--------------------------------------- Iteration      1(  17)  ---------------------------------------


    POTLOK:  cpu time    0.3518: real time    0.3527
    SETDIJ:  cpu time    0.0442: real time    0.0443
     EDDAV:  cpu time    9.7078: real time    9.7308
    CHARGE:  cpu time    0.5852: real time    0.5866
    MIXING:  cpu time    0.0105: real time    0.0105
    --------------------------------------------
      LOOP:  cpu time   10.6995: real time   10.7249

 eigenvalue-minimisations  :  2432
 total energy-change (2. order) : 0.2885418E+00  (-0.2558182E+00)
 number of electron     690.9999985 magnetization       5.8848115
 augmentation part      187.5056082 magnetization       4.5851205

 Broyden mixing:
  rms(total) = 0.19427E+01    rms(broyden)= 0.19422E+01
  rms(prec ) = 0.23737E+01
  weight for this iteration     100.00

 eigenvalues of (default mixing * dielectric matrix)
  average eigenvalue GAMMA=   0.5051
  2.0912  0.6797  0.6797  0.6389  0.6389  0.3191  0.3191  0.2068  0.1828  0.1136
  0.1190  0.0731

 Free energy of the ion-electron system (eV)
  ---------------------------------------------------
  alpha Z        PSCENC =      3580.25349405
  Ewald energy   TEWEN  =    -43988.30298513
  -Hartree energ DENC   =    -13467.26239180
  -exchange      EXHF   =         0.00000000
  -V(xc)+E(xc)   XCENC  =      2635.05936880
  PAW double counting   =     81466.50638644   -82533.45714075
  entropy T*S    EENTRO =        -0.03388848
  eigenvalues    EBANDS =     -5813.49868641
  atomic energy  EATOM  =     57296.18046829
  Solvation  Ediel_sol  =         0.00000000
  ---------------------------------------------------
  free energy    TOTEN  =      -824.55537499 eV

  energy without entropy =     -824.52148651  energy(sigma->0) =     -824.53843075


--------------------------------------------------------------------------------------------------------




--------------------------------------- Iteration      1(  18)  ---------------------------------------


    POTLOK:  cpu time    0.3463: real time    0.3472
    SETDIJ:  cpu time    0.0439: real time    0.0440
     EDDAV:  cpu time    9.6685: real time    9.6916
    CHARGE:  cpu time    0.6117: real time    0.6131
    MIXING:  cpu time    0.0109: real time    0.0109
    --------------------------------------------
      LOOP:  cpu time   10.6814: real time   10.7068

 eigenvalue-minimisations  :  2432
 total energy-change (2. order) : 0.3735212E+00  (-0.4963330E-01)
 number of electron     690.9999985 magnetization       4.6947730
 augmentation part      187.4376922 magnetization       3.2703680

 Broyden mixing:
  rms(total) = 0.16028E+01    rms(broyden)= 0.16028E+01
  rms(prec ) = 0.20166E+01
  weight for this iteration     100.00

 eigenvalues of (default mixing * dielectric matrix)
  average eigenvalue GAMMA=   0.5664
  2.0788  0.9555  0.9555  0.6887  0.6887  0.4692  0.4692  0.3376  0.2424  0.1671
  0.1192  0.1127  0.0792

 Free energy of the ion-electron system (eV)
  ---------------------------------------------------
  alpha Z        PSCENC =      3580.25349405
  Ewald energy   TEWEN  =    -43988.30298513
  -Hartree energ DENC   =    -13469.36256179
  -exchange      EXHF   =         0.00000000
  -V(xc)+E(xc)   XCENC  =      2635.11238961
  PAW double counting   =     81480.69753823   -82546.51553686
  entropy T*S    EENTRO =        -0.05729746
  eigenvalues    EBANDS =     -5812.18736272
  atomic energy  EATOM  =     57296.18046829
  Solvation  Ediel_sol  =         0.00000000
  ---------------------------------------------------
  free energy    TOTEN  =      -824.18185378 eV

  energy without entropy =     -824.12455631  energy(sigma->0) =     -824.15320504


--------------------------------------------------------------------------------------------------------




--------------------------------------- Iteration      1(  19)  ---------------------------------------


    POTLOK:  cpu time    0.3479: real time    0.3488
    SETDIJ:  cpu time    0.0447: real time    0.0448
     EDDAV:  cpu time    9.7395: real time    9.7627
    CHARGE:  cpu time    0.6136: real time    0.6152
    MIXING:  cpu time    0.0113: real time    0.0113
    --------------------------------------------
      LOOP:  cpu time   10.7571: real time   10.7828

 eigenvalue-minimisations  :  2464
 total energy-change (2. order) : 0.9238066E+00  (-0.1638273E+00)
 number of electron     690.9999985 magnetization       4.6040725
 augmentation part      186.3457397 magnetization       3.8806094

 Broyden mixing:
  rms(total) = 0.12842E+01    rms(broyden)= 0.12840E+01
  rms(prec ) = 0.15299E+01
  weight for this iteration     100.00

 eigenvalues of (default mixing * dielectric matrix)
  average eigenvalue GAMMA=   0.5406
  2.0940  0.9636  0.9636  0.6816  0.6816  0.4844  0.4844  0.3239  0.2478  0.1712
  0.1601  0.1189  0.1126  0.0800

 Free energy of the ion-electron system (eV)
  ---------------------------------------------------
  alpha Z        PSCENC =      3580.25349405
  Ewald energy   TEWEN  =    -43988.30298513
  -Hartree energ DENC   =    -13478.44765320
  -exchange      EXHF   =         0.00000000
  -V(xc)+E(xc)   XCENC  =      2635.45782781
  PAW double counting   =     81414.15963497   -82476.57971840
  entropy T*S    EENTRO =        -0.04908373
  eigenvalues    EBANDS =     -5805.93003186
  atomic energy  EATOM  =     57296.18046829
  Solvation  Ediel_sol  =         0.00000000
  ---------------------------------------------------
  free energy    TOTEN  =      -823.25804719 eV

  energy without entropy =     -823.20896347  energy(sigma->0) =     -823.23350533


--------------------------------------------------------------------------------------------------------




--------------------------------------- Iteration      1(  20)  ---------------------------------------


    POTLOK:  cpu time    0.3478: real time    0.3486
    SETDIJ:  cpu time    0.0443: real time    0.0444
     EDDAV:  cpu time    9.3322: real time    9.3543
    CHARGE:  cpu time    0.6096: real time    0.6110
    MIXING:  cpu time    0.0113: real time    0.0113
    --------------------------------------------
      LOOP:  cpu time   10.3451: real time   10.3696

 eigenvalue-minimisations  :  2336
 total energy-change (2. order) : 0.1260964E-01  (-0.1344124E-01)
 number of electron     690.9999985 magnetization       4.7511206
 augmentation part      186.3211044 magnetization       3.9933579

 Broyden mixing:
  rms(total) = 0.12695E+01    rms(broyden)= 0.12695E+01
  rms(prec ) = 0.15095E+01
  weight for this iteration     100.00

 eigenvalues of (default mixing * dielectric matrix)
  average eigenvalue GAMMA=   0.6027
  2.1964  1.1443  1.1443  0.8926  0.7156  0.6128  0.4802  0.4802  0.3285  0.3285
  0.2382  0.1671  0.1191  0.1127  0.0796

 Free energy of the ion-electron system (eV)
  ---------------------------------------------------
  alpha Z        PSCENC =      3580.25349405
  Ewald energy   TEWEN  =    -43988.30298513
  -Hartree energ DENC   =    -13478.81410909
  -exchange      EXHF   =         0.00000000
  -V(xc)+E(xc)   XCENC  =      2635.47995613
  PAW double counting   =     81417.16366286   -82479.46280470
  entropy T*S    EENTRO =        -0.04705149
  eigenvalues    EBANDS =     -5805.69606847
  atomic energy  EATOM  =     57296.18046829
  Solvation  Ediel_sol  =         0.00000000
  ---------------------------------------------------
  free energy    TOTEN  =      -823.24543755 eV

  energy without entropy =     -823.19838606  energy(sigma->0) =     -823.22191180


--------------------------------------------------------------------------------------------------------




--------------------------------------- Iteration      1(  21)  ---------------------------------------


    POTLOK:  cpu time    0.3487: real time    0.3496
    SETDIJ:  cpu time    0.0447: real time    0.0448
     EDDAV:  cpu time    9.6645: real time    9.6874
    CHARGE:  cpu time    0.6118: real time    0.6132
    MIXING:  cpu time    0.0124: real time    0.0124
    --------------------------------------------
      LOOP:  cpu time   10.6820: real time   10.7074

 eigenvalue-minimisations  :  2448
 total energy-change (2. order) :-0.1271389E+00  (-0.1052731E+00)
 number of electron     690.9999985 magnetization       4.6463997
 augmentation part      186.4797755 magnetization       3.9827251

 Broyden mixing:
  rms(total) = 0.16223E+01    rms(broyden)= 0.16221E+01
  rms(prec ) = 0.18774E+01
  weight for this iteration     100.00

 eigenvalues of (default mixing * dielectric matrix)
  average eigenvalue GAMMA=   0.5909
  2.2025  1.1482  1.1597  1.1597  0.6965  0.6317  0.4795  0.4795  0.3221  0.3221
  0.2355  0.1663  0.1127  0.1192  0.1398  0.0795

 Free energy of the ion-electron system (eV)
  ---------------------------------------------------
  alpha Z        PSCENC =      3580.25349405
[...]
      7.89116     10.28593      0.57885         0.054496      0.159171      0.107103
      8.88143     10.13831      3.35622         0.033456     -0.048595     -0.065318
      1.67333     14.97792      2.50257        -0.016669     -0.078405     -0.014351
     10.09079      5.10625      4.70624        -0.028477      0.000000      0.049323
      3.07249     10.13538      3.31038         0.020763      0.078405      0.007260
      6.00228     14.89336      4.68791        -0.120002     -0.159171      0.006357
      5.87956      5.13810      6.83117        -0.023702     -0.038876     -0.027761
      7.81907      9.78236      5.68883         0.050498      0.210015     -0.654613
      2.98892      0.00819      5.15378         0.039839      0.048595     -0.061633
      0.09090      7.46701      0.06694        -0.020634      0.070402      0.034356
      8.94590     12.56384      1.84107         0.006576      0.019047      0.015562
      1.47359      2.53359      0.83190         0.019657     -0.004904      0.001995
      7.27722      7.50901      7.65438        -0.025776      0.029986     -0.045697
      3.01248     12.55665      1.79871        -0.014769      0.000000      0.025580
      4.57169      2.63750      0.89274         0.052463     -0.029986     -0.000525
      6.07857      7.55664      0.09788         0.022214      0.051070     -0.058411
      6.00783     12.52876      1.63271        -0.001109     -0.074844      0.032786
      7.35353      2.65849      0.88856        -0.009866      0.045496      0.126581
      7.48275      7.69239      2.47033         0.034172      0.035506      0.032718
      7.51497     12.51810      4.44400         0.006962     -0.035986     -0.007979
      8.95888      2.51077      3.38716         0.044670     -0.036835     -0.060759
     10.38859      7.65794      2.66021         0.030274      0.017969     -0.009617
     10.46015     12.62264      4.19692        -0.018954      0.000000      0.032829
      2.83811      2.48857      3.50054        -0.006809     -0.017969     -0.031026
      4.50625      7.54693      2.58281        -0.011557      0.004904     -0.016026
      4.38180     12.61545      4.40559        -0.016765     -0.019047      0.002086
      5.86007      2.61350      3.39777        -0.019436     -0.070402      0.035048
      5.88992      7.48802      5.24315        -0.104689     -0.045496      0.071835
      6.03128     12.65053      6.84586        -0.027839      0.074844      0.017354
      7.21215      2.58986      5.95196         0.039479     -0.051070     -0.048443
      8.83596      7.60599      5.00500        -0.006284     -0.059352     -0.062371
      8.90414     12.62264      6.89202        -0.003464      0.000000      0.006001
     10.45948      2.60651      5.94233         0.057157      0.059352     -0.025743
     11.79911      7.70172      5.02696         0.030284      0.036835     -0.069065
     11.71876     12.72718      6.87106         0.003429      0.035986     -0.010019
      4.45546      2.45411      5.92213        -0.045420     -0.035506     -0.013235
      4.70888     11.46669      7.70497         0.045149      0.053336     -0.058362
      8.86927      4.04481      0.00410         0.005635      0.023295      0.013420
      8.77667      1.07336      1.67588         0.010030     -0.016961      0.029168
      8.97421      8.75577      1.69654         0.055639      0.050913      0.060480
      1.49230      6.19474      0.81439        -0.005131      0.000031     -0.039786
      1.56091     13.98970      0.74536        -0.071295     -0.060012     -0.001115
      3.01801     11.18758      0.27976         0.060172     -0.057146      0.020624
      3.03956      3.97146      0.03118         0.003180     -0.019372      0.020667
      3.29165      1.36636      1.57119        -0.002530      0.022810     -0.039772
      2.95697      8.71416      1.37797         0.035709     -0.022810     -0.017695
      4.41671      6.10906      0.82627        -0.019488      0.019372      0.007579
      4.32517     13.92573      1.03445        -0.047947      0.057146     -0.041798
     10.21352     11.15266      7.69296         0.001597     -0.022813      0.025089
      5.96415      3.85820     -0.03567         0.013215      0.039369      0.042945
      5.91264      1.09757      1.82881         0.005941      0.060856      0.063045
      5.79051      8.85346      1.93643         0.054956     -0.001189     -0.008718
      7.48833      6.18001      0.76726         0.024165      0.060123     -0.014098
      7.70472     13.86524      1.01493        -0.027136      0.053278      0.060368
      7.40782     11.24476      2.63340        -0.012608      0.037810      0.057518
      7.45633      3.88480      2.56924         0.051379      0.015661      0.018950
      7.59744      1.23793      4.18176         0.030991      0.057617      0.000060
      7.16673      8.53027      4.35789        -0.149071     -0.187908      0.013719
      8.84451      6.38860      3.33630        -0.011806     -0.029718      0.016150
      8.76824     13.86158      3.67596         0.003692      0.028520      0.055795
      1.62218     11.33530      2.57270        -0.007165      0.021913     -0.015092
      1.52593      3.65695      2.45867         0.004797     -0.009796      0.022690
     10.36281      1.18944      4.17791        -0.010339     -0.011135     -0.048722
     10.41233      9.02305      4.20650         0.047364      0.011135     -0.015407
      3.07126      6.42356      3.35087        -0.022049      0.009796      0.007190
      3.03733     13.77800      3.38974         0.016652     -0.021913     -0.001341
      4.65049     11.12360      2.52913         0.036613      0.060012      0.061186
      4.51206      3.88577      2.55785         0.037021     -0.000031     -0.015449
      4.37985      1.39073      4.24360        -0.080197     -0.050913     -0.017945
      4.49652      9.07314      4.40434        -0.030276      0.016961      0.005898
      5.89802      6.10170      3.48826        -0.014440     -0.023295      0.001830
      5.92502     13.71260      3.20750         0.027969     -0.053336     -0.068281
      5.71785     11.31405      5.06742        -0.038712     -0.053278      0.053685
      5.92758      3.96650      5.06576         0.000127     -0.060123     -0.027977
      5.76396      1.29304      7.12070        -0.019928      0.001189     -0.051953
      5.79609      9.04893      6.96112        -0.057569     -0.060856      0.026377
      7.38503      6.28830      5.98428        -0.043799     -0.039369      0.010028
      7.55581     14.09262      6.15853        -0.022526      0.022813      0.011162
      8.94600     11.50907      5.24867        -0.059821     -0.062517      0.211248
      8.76570      3.72586      5.17567        -0.014422     -0.036299      0.062755
      8.59658      1.37907      6.70092         0.038241     -0.126761      0.077238
      9.11045      8.83342      6.99761        -0.086010      0.126761      0.005501
     10.34680      6.48663      6.08852        -0.047137      0.036299      0.043867
     10.30639     13.73621      6.03410        -0.153036      0.062517      0.157430
     11.75728     11.38370      5.40168        -0.050166     -0.028520      0.024700
      3.02463      3.75790      5.17579        -0.008084      0.029718      0.018299
     11.85450      1.68222      7.06438         0.062654      0.187908      0.135959
     11.79168      8.97456      6.60330        -0.015547     -0.057617     -0.026809
      4.38301      6.26170      5.99447        -0.042101     -0.015661     -0.035020
      4.46466     13.93453      6.13377        -0.043508     -0.037810      0.039678
 -----------------------------------------------------------------------------------
    total drift:                                0.006956      0.002361     -0.010266


--------------------------------------------------------------------------------------------------------



  FREE ENERGIE OF THE ION-ELECTRON SYSTEM (eV)
  ---------------------------------------------------
  free  energy   TOTEN  =      -825.6245820291 eV

  energy  without entropy=     -825.6072013217  energy(sigma->0) =     -825.61589168
 
 d Force =-0.5566074E-01[-0.550E-01,-0.563E-01]  d Energy =-0.5751034E-01 0.185E-02
 d Force = 0.9514592E+01[ 0.933E+01, 0.970E+01]  d Ewald  = 0.1984685E+02-0.103E+02


--------------------------------------------------------------------------------------------------------


    POTLOK:  cpu time    0.3634: real time    0.3643


--------------------------------------------------------------------------------------------------------


 Quasi-Newton relaxation of ions (Broydens 2nd method)
  g(Force)  = 0.841E-01   g(Stress)= 0.439E-02

 retain information from N=  3 steps
 eigenvalues of (default step * inverse Hessian matrix)
  average eigenvalue of G=   1.0695
 eigenvalue spectrum of G is  0.9518  1.6327  0.6240


--------------------------------------------------------------------------------------------------------


     LOOP+:  cpu time  103.0198: real time  103.3558
    4ORBIT:  cpu time    0.0000: real time    0.0000

volume of typ            1:    15.6 %

volume of typ            2:     6.8 %

volume of typ            3:    20.3 %

volume of typ            4:     8.5 %
 
total charge     
 
# of ion       s       p       d       tot
------------------------------------------
    1        0.273   6.142   2.001   8.415
    2        0.247   6.110   2.097   8.455
    3        0.264   6.137   2.043   8.444
    4        0.281   6.170   1.952   8.403
    5        0.242   6.102   2.124   8.467
    6        0.281   6.170   1.952   8.403
    7        0.278   6.165   1.989   8.432
    8        0.247   6.111   2.083   8.440
    9        0.264   6.137   2.043   8.444
   10        0.247   6.110   2.097   8.455
   11        0.273   6.142   2.001   8.415
   12        0.275   6.151   2.008   8.434
   13        0.249   6.114   2.110   8.473
   14        0.275   6.151   2.008   8.434
   15        0.247   6.111   2.083   8.440
   16        0.278   6.165   1.989   8.432
   17        0.211   0.211   8.164   8.585
   18        0.198   0.216   8.028   8.442
   19        0.194   0.209   8.188   8.591
   20        0.197   0.204   8.077   8.478
   21        0.193   0.190   8.070   8.454
   22        0.205   0.227   8.172   8.604
   23        0.193   0.190   8.070   8.454
   24        0.194   0.209   8.188   8.591
   25        0.198   0.216   8.028   8.442
   26        0.211   0.211   8.164   8.585
   27        0.197   0.204   8.077   8.478
   28        2.070   0.243   0.090   2.403
   29        2.073   0.246   0.092   2.411
   30        2.079   0.262   0.100   2.441
   31        2.079   0.264   0.103   2.446
   32        2.088   0.293   0.116   2.497
   33        2.079   0.264   0.103   2.446
   34        2.071   0.241   0.092   2.404
   35        2.065   0.230   0.087   2.381
   36        2.086   0.288   0.113   2.487
   37        2.075   0.256   0.096   2.428
   38        2.079   0.265   0.100   2.444
   39        2.072   0.252   0.096   2.420
   40        2.076   0.260   0.100   2.436
   41        2.071   0.245   0.093   2.409
   42        2.076   0.260   0.100   2.436
   43        2.079   0.262   0.100   2.441
   44        2.073   0.246   0.092   2.411
   45        2.070   0.243   0.090   2.403
   46        2.086   0.288   0.113   2.487
   47        2.065   0.230   0.087   2.381
   48        2.071   0.241   0.092   2.404
   49        2.074   0.259   0.096   2.429
   50        2.081   0.276   0.105   2.462
   51        2.074   0.259   0.096   2.429
   52        2.072   0.252   0.096   2.420
   53        2.079   0.265   0.100   2.444
   54        2.075   0.256   0.096   2.428
   55        1.249   2.844   0.008   4.101
   56        1.249   2.839   0.005   4.093
   57        1.246   2.840   0.005   4.091
   58        1.251   2.816   0.005   4.072
   59        1.246   2.836   0.006   4.089
   60        1.249   2.842   0.006   4.097
   61        1.250   2.846   0.005   4.101
   62        1.246   2.838   0.005   4.089
   63        1.251   2.847   0.005   4.104
   64        1.251   2.847   0.005   4.104
   65        1.246   2.838   0.005   4.089
   66        1.250   2.846   0.005   4.101
   67        1.247   2.845   0.005   4.097
   68        1.247   2.838   0.006   4.092
   69        1.253   2.838   0.005   4.095
   70        1.244   2.859   0.004   4.107
   71        1.243   2.841   0.004   4.088
   72        1.247   2.851   0.004   4.102
   73        1.252   2.821   0.006   4.080
   74        1.245   2.832   0.006   4.084
   75        1.250   2.842   0.005   4.097
   76        1.250   2.846   0.007   4.103
   77        1.251   2.832   0.006   4.089
   78        1.250   2.855   0.005   4.109
   79        1.249   2.832   0.006   4.087
   80        1.249   2.841   0.006   4.095
   81        1.251   2.824   0.005   4.080
   82        1.251   2.824   0.005   4.080
   83        1.249   2.841   0.006   4.095
   84        1.249   2.832   0.006   4.087
   85        1.249   2.842   0.006   4.097
   86        1.246   2.836   0.006   4.089
   87        1.251   2.816   0.005   4.072
   88        1.246   2.840   0.005   4.091
   89        1.249   2.839   0.005   4.093
   90        1.249   2.844   0.008   4.101
   91        1.247   2.851   0.004   4.102
   92        1.243   2.841   0.004   4.088
   93        1.244   2.859   0.004   4.107
   94        1.253   2.838   0.005   4.095
   95        1.247   2.838   0.006   4.092
   96        1.247   2.845   0.005   4.097
   97        1.253   2.825   0.005   4.084
   98        1.250   2.827   0.007   4.083
   99        1.250   2.844   0.006   4.100
  100        1.250   2.844   0.006   4.100
  101        1.250   2.827   0.007   4.083
  102        1.253   2.825   0.005   4.084
  103        1.250   2.855   0.005   4.109
  104        1.251   2.832   0.006   4.089
  105        1.250   2.846   0.007   4.103
  106        1.250   2.842   0.005   4.097
  107        1.245   2.832   0.006   4.084
  108        1.252   2.821   0.006   4.080
--------------------------------------------------
tot         129.89  260.71  124.74  515.34
 
magnetization (x)
 
# of ion       s       p       d       tot
------------------------------------------
    1        0.001   0.001   0.021   0.022
    2        0.003   0.002   0.310   0.315
    3        0.001   0.001   0.033   0.034
    4        0.000   0.000   0.020   0.020
    5        0.002   0.003   0.232   0.237
    6        0.000   0.000   0.020   0.020
    7        0.000  -0.000  -0.004  -0.004
    8        0.004   0.003   0.409   0.416
    9        0.001   0.001   0.033   0.034
   10        0.003   0.002   0.310   0.315
   11        0.001   0.001   0.021   0.022
   12        0.001   0.000   0.013   0.014
   13        0.004   0.002   0.391   0.397
   14        0.001   0.000   0.013   0.014
   15        0.004   0.003   0.409   0.416
   16        0.000  -0.000  -0.004  -0.004
   17        0.001   0.001  -0.074  -0.072
   18        0.006  -0.001  -1.071  -1.066
   19        0.000   0.000   0.011   0.011
   20       -0.003  -0.000  -0.781  -0.785
   21        0.001  -0.001  -0.850  -0.851
   22       -0.000   0.000   0.232   0.233
   23        0.001  -0.001  -0.850  -0.851
   24        0.000   0.000   0.011   0.011
   25        0.006  -0.001  -1.071  -1.066
   26        0.001   0.001  -0.074  -0.072
   27       -0.003  -0.000  -0.781  -0.785
   28       -0.001  -0.003   0.000  -0.004
   29       -0.001  -0.001  -0.000  -0.002
   30        0.000   0.000   0.000   0.001
   31        0.000  -0.000   0.001   0.001
   32        0.000   0.001   0.000   0.001
   33        0.000  -0.000   0.001   0.001
   34        0.000   0.000   0.000   0.001
   35       -0.001  -0.002  -0.001  -0.003
   36        0.000  -0.001   0.001   0.000
   37        0.000   0.001   0.000   0.001
   38        0.000   0.000   0.000   0.001
   39       -0.000  -0.002   0.000  -0.003
   40        0.000   0.001   0.001   0.002
   41        0.000   0.001   0.000   0.001
   42        0.000   0.001   0.001   0.002
   43        0.000   0.000   0.000   0.001
   44       -0.001  -0.001  -0.000  -0.002
   45       -0.001  -0.003   0.000  -0.004
   46        0.000  -0.001   0.001   0.000
   47       -0.001  -0.002  -0.001  -0.003
   48        0.000   0.000   0.000   0.001
   49       -0.001  -0.001   0.000  -0.001
   50       -0.001  -0.002  -0.001  -0.004
   51       -0.001  -0.001   0.000  -0.001
   52       -0.000  -0.002   0.000  -0.003
   53        0.000   0.000   0.000   0.001
   54        0.000   0.001   0.000   0.001
   55        0.000   0.001   0.000   0.001
   56       -0.003  -0.031   0.000  -0.033
   57       -0.003  -0.025  -0.000  -0.029
   58       -0.003  -0.034  -0.000  -0.037
   59       -0.003  -0.020   0.001  -0.023
   60       -0.003  -0.031  -0.000  -0.035
   61        0.000   0.001   0.000   0.001
   62       -0.003  -0.031   0.000  -0.033
   63        0.000   0.005   0.000   0.005
   64        0.000   0.005   0.000   0.005
   65       -0.003  -0.031   0.000  -0.033
   66        0.000   0.001   0.000   0.001
   67       -0.000  -0.000   0.000  -0.000
   68       -0.003  -0.011   0.001  -0.013
   69        0.000  -0.004   0.000  -0.004
   70        0.000   0.001   0.000   0.001
   71       -0.003  -0.034   0.000  -0.036
   72        0.000   0.001   0.000   0.001
   73       -0.002  -0.024  -0.000  -0.026
   74       -0.003  -0.007   0.001  -0.009
   75       -0.000  -0.000   0.000  -0.000
   76        0.000  -0.001   0.000  -0.001
   77        0.000   0.016   0.001   0.017
   78        0.000  -0.001   0.000  -0.000
   79       -0.003  -0.030  -0.000  -0.032
   80       -0.000   0.009   0.001   0.010
   81       -0.004  -0.047  -0.000  -0.052
   82       -0.004  -0.047  -0.000  -0.052
   83       -0.000   0.009   0.001   0.010
   84       -0.003  -0.030  -0.000  -0.032
   85       -0.003  -0.031  -0.000  -0.035
   86       -0.003  -0.020   0.001  -0.023
   87       -0.003  -0.034  -0.000  -0.037
   88       -0.003  -0.025  -0.000  -0.029
   89       -0.003  -0.031   0.000  -0.033
   90        0.000   0.001   0.000   0.001
   91        0.000   0.001   0.000   0.001
   92       -0.003  -0.034   0.000  -0.036
   93        0.000   0.001   0.000   0.001
   94        0.000  -0.004   0.000  -0.004
   95       -0.003  -0.011   0.001  -0.013
   96       -0.000  -0.000   0.000  -0.000
   97       -0.002  -0.026   0.000  -0.028
   98        0.000   0.015   0.001   0.016
   99        0.000   0.001   0.000   0.001
  100        0.000   0.001   0.000   0.001
  101        0.000   0.015   0.001   0.016
  102       -0.002  -0.026   0.000  -0.028
  103        0.000  -0.001   0.000  -0.000
  104        0.000   0.016   0.001   0.017
  105        0.000  -0.001   0.000  -0.001
  106       -0.000  -0.000   0.000  -0.000
  107       -0.003  -0.007   0.001  -0.009
  108       -0.002  -0.024  -0.000  -0.026
--------------------------------------------------
tot          -0.04   -0.61   -3.06   -3.72
 

 total amount of memory used by VASP MPI-rank0   176001. kBytes
=======================================================================

   base      :      30000. kBytes
   nonlr-proj:      49155. kBytes
   fftplans  :      11817. kBytes
   grid      :      71572. kBytes
   one-center:       1679. kBytes
   wavefun   :      11778. kBytes
 
  
  
 General timing and accounting informations for this job:
 ========================================================
  
                  Total CPU time used (sec):     3066.457
                            User time (sec):     3052.062
                          System time (sec):       14.395
                         Elapsed time (sec):     3080.241
  
                   Maximum memory used (kb):      237400.
                   Average memory used (kb):           0.
  
                          Minor page faults:        40578
                          Major page faults:           12
                 Voluntary context switches:         1356
