 vasp.5.4.4.18Apr17-6-g9f103f2a35 (build May 12 2020 05:39:39) gamma-only       
  
 MD_VERSION_INFO: Compiled 2020-05-12T12:39:39-UTC in devlin.sd.materialsdesign.
 com:/home/medea2/data/build/wwolf/vasp-gpu5.4.4/13047/x86_64/src/src/build/gam 
 from svn 13047
 
 This VASP executable licensed from Materials Design, Inc.
 
 executed on                        Lin64 date 2023.04.03  13:37:58
 running on   16 total cores
 distrk:  each k-point on   16 cores,    1 groups
 distr:  one band on NCORES_PER_BAND=   1 cores,   16 groups


--------------------------------------------------------------------------------------------------------


 INCAR:
 POTCAR:    PAW_PBE Ta_pv 07Sep2000               
 POTCAR:    PAW_PBE Ni 02Aug2007                  
 POTCAR:    PAW_PBE Li_sv 10Sep2004               
 POTCAR:    PAW_PBE O 08Apr2002                   

 ----------------------------------------------------------------------------- 
|                                                                             |
|           W    W    AA    RRRRR   N    N  II  N    N   GGGG   !!!           |
|           W    W   A  A   R    R  NN   N  II  NN   N  G    G  !!!           |
|           W    W  A    A  R    R  N N  N  II  N N  N  G       !!!           |
|           W WW W  AAAAAA  RRRRR   N  N N  II  N  N N  G  GGG   !            |
|           WW  WW  A    A  R   R   N   NN  II  N   NN  G    G                |
|           W    W  A    A  R    R  N    N  II  N    N   GGGG   !!!           |
|                                                                             |
|      For optimal performance we recommend to set                            |
|        NCORE= 4 - approx SQRT( number of cores)                             |
|      NCORE specifies how many cores store one orbital (NPAR=cpu/NCORE).     |
|      This setting can  greatly improve the performance of VASP for DFT.     |
|      The default,   NCORE=1            might be grossly inefficient         |
|      on modern multi-core architectures or massively parallel machines.     |
|      Do your own testing !!!!                                               |
|      Unfortunately you need to use the default for GW and RPA calculations. |
|      (for HF NCORE is supported but not extensively tested yet)             |
|                                                                             |
 ----------------------------------------------------------------------------- 

 POTCAR:    PAW_PBE Ta_pv 07Sep2000               
  local pseudopotential read in
  partial core-charges read in
  partial kinetic energy density read in
  atomic valenz-charges read in
  non local Contribution for L=           1  read in
    real space projection operators read in
  non local Contribution for L=           1  read in
    real space projection operators read in
  non local Contribution for L=           2  read in
    real space projection operators read in
  non local Contribution for L=           2  read in
    real space projection operators read in
  non local Contribution for L=           0  read in
    real space projection operators read in
  non local Contribution for L=           0  read in
    real space projection operators read in
    PAW grid and wavefunctions read in
 
   number of l-projection  operators is LMAX  =           6
   number of lm-projection operators is LMMAX =          18
 
 POTCAR:    PAW_PBE Ni 02Aug2007                  
  local pseudopotential read in
  partial core-charges read in
  partial kinetic energy density read in
  atomic valenz-charges read in
  non local Contribution for L=           2  read in
    real space projection operators read in
  non local Contribution for L=           2  read in
    real space projection operators read in
  non local Contribution for L=           0  read in
    real space projection operators read in
  non local Contribution for L=           0  read in
    real space projection operators read in
  non local Contribution for L=           1  read in
    real space projection operators read in
  non local Contribution for L=           1  read in
    real space projection operators read in
    PAW grid and wavefunctions read in
 
   number of l-projection  operators is LMAX  =           6
   number of lm-projection operators is LMMAX =          18
 
 POTCAR:    PAW_PBE Li_sv 10Sep2004               
  local pseudopotential read in
  atomic valenz-charges read in
  non local Contribution for L=           0  read in
    real space projection operators read in
  non local Contribution for L=           0  read in
    real space projection operators read in
  non local Contribution for L=           1  read in
    real space projection operators read in
    PAW grid and wavefunctions read in
 
   number of l-projection  operators is LMAX  =           3
   number of lm-projection operators is LMMAX =           5
 
 POTCAR:    PAW_PBE O 08Apr2002                   
  local pseudopotential read in
  partial core-charges read in
  partial kinetic energy density read in
  kinetic energy density of atom read in
  atomic valenz-charges read in
  non local Contribution for L=           0  read in
    real space projection operators read in
  non local Contribution for L=           0  read in
    real space projection operators read in
  non local Contribution for L=           1  read in
    real space projection operators read in
  non local Contribution for L=           1  read in
    real space projection operators read in
    PAW grid and wavefunctions read in
 
   number of l-projection  operators is LMAX  =           4
   number of lm-projection operators is LMMAX =           8
 
 Optimization of the real space projectors (new method)

 maximal supplied QI-value         = 15.12
 optimisation between [QCUT,QGAM] = [ 11.34, 22.83] = [ 36.00,145.93] Ry 
 Optimized for a Real-space Cutoff    1.61 Angstroem

   l    n(q)    QCUT    max X(q) W(low)/X(q) W(high)/X(q)  e(spline) 
   1     11    11.338     4.092    0.40E-05    0.64E-05    0.47E-07
   1     11    11.338     4.834    0.13E-04    0.44E-04    0.21E-06
   2     10    11.338    62.294    0.15E-03    0.31E-03    0.77E-06
   2     10    11.338    50.966    0.15E-03    0.31E-03    0.77E-06
   0     11    11.338   103.792    0.33E-04    0.19E-04    0.90E-07
   0     11    11.338    56.335    0.26E-04    0.17E-04    0.79E-07
 Optimization of the real space projectors (new method)

 maximal supplied QI-value         = 16.25
 optimisation between [QCUT,QGAM] = [ 11.38, 22.75] = [ 36.24,144.96] Ry 
 Optimized for a Real-space Cutoff    1.47 Angstroem

   l    n(q)    QCUT    max X(q) W(low)/X(q) W(high)/X(q)  e(spline) 
   2      9    11.376    60.317    0.17E-03    0.16E-04    0.16E-06
   2      9    11.376    55.921    0.17E-03    0.16E-04    0.17E-06
   0     10    11.376    51.690    0.45E-04    0.60E-04    0.21E-06
   0     10    11.376    30.015    0.37E-04    0.55E-04    0.19E-06
   1     10    11.376    18.849    0.83E-04    0.11E-03    0.92E-07
   1     10    11.376    14.624    0.69E-04    0.92E-04    0.82E-07
 Optimization of the real space projectors (new method)

 maximal supplied QI-value         = 22.11
 optimisation between [QCUT,QGAM] = [ 11.28, 22.77] = [ 35.61,145.23] Ry 
 Optimized for a Real-space Cutoff    1.10 Angstroem

   l    n(q)    QCUT    max X(q) W(low)/X(q) W(high)/X(q)  e(spline) 
   0      7    11.276    10.506    0.54E-04    0.58E-04    0.16E-07
   0      7    11.276     8.367    0.11E-03    0.14E-03    0.35E-07
   1      7    11.276     8.983    0.23E-03    0.43E-03    0.86E-07
 Optimization of the real space projectors (new method)

 maximal supplied QI-value         = 24.76
 optimisation between [QCUT,QGAM] = [ 11.39, 22.77] = [ 36.31,145.25] Ry 
 Optimized for a Real-space Cutoff    1.10 Angstroem

   l    n(q)    QCUT    max X(q) W(low)/X(q) W(high)/X(q)  e(spline) 
   0      7    11.387    20.381    0.22E-03    0.48E-03    0.18E-06
   0      7    11.387    15.268    0.22E-03    0.52E-03    0.19E-06
   1      7    11.387     5.964    0.22E-03    0.73E-03    0.24E-06
   1      7    11.387     5.382    0.19E-03    0.60E-03    0.21E-06

 ----------------------------------------------------------------------------- 
|                                                                             |
|  ADVICE TO THIS USER RUNNING 'VASP/VAMP'   (HEAR YOUR MASTER'S VOICE ...):  |
|                                                                             |
|      You enforced a specific xc-type in the INCAR file,                     |
|      a different type was found on the POTCAR file                          |
|          I HOPE YOU KNOW, WHAT YOU ARE  DOING                               |
|                                                                             |
 ----------------------------------------------------------------------------- 

  PAW_PBE Ta_pv 07Sep2000               :
 energy of atom  1       EATOM=-1047.1984
 kinetic energy error for atom=    0.0019 (will be added to EATOM!!)
  PAW_PBE Ni 02Aug2007                  :
 energy of atom  2       EATOM=-1077.6739
 kinetic energy error for atom=    0.0030 (will be added to EATOM!!)
  PAW_PBE Li_sv 10Sep2004               :
 energy of atom  3       EATOM= -202.7858
 kinetic energy error for atom=    0.0143 (will be added to EATOM!!)
  PAW_PBE O 08Apr2002                   :
 energy of atom  4       EATOM= -432.3788
 kinetic energy error for atom=    0.0224 (will be added to EATOM!!)
 
 
 POSCAR: ce219565_1                              
  positions in direct lattice
  No initial velocities read in
 exchange correlation table for  LEXCH =       14
   RHO(1)=    0.500       N(1)  =     2000
   RHO(2)=  100.500       N(2)  =     4000
 


--------------------------------------------------------------------------------------------------------


 ion  position               nearest neighbor table
   1  0.001  0.999  0.986- 108 2.02 105 2.05  72 2.21  93 2.22  60 2.30  57 2.33  26 2.98  23 3.02
                            53 3.02  15 3.03  54 3.06  47 3.10   4 3.16   7 3.18  19 3.27
   2  0.889  0.333  0.222-  80 2.19  56 2.20  74 2.21  77 2.21  59 2.22  71 2.22  30 3.09  39 3.09
                            20 3.12  24 3.12  16 3.13   5 3.16   8 3.18  14 3.18
   3  0.097  0.667  0.111-  55 2.04  58 2.05  79 2.14  94 2.14  64 2.31  61 2.32  17 2.93  29 3.01
                            28 3.02  18 3.04  27 3.04  47 3.10  40 3.10  25 3.18  21 3.20   6 3.23
   4  0.333  0.001  1.000-  93 2.19  63 2.20  99 2.21  96 2.21  60 2.22  66 2.23  30 3.08  48 3.09
                            23 3.12  19 3.12  15 3.13   1 3.16  11 3.18   9 3.18
   5  0.221  0.334  0.236-  83 2.02  86 2.05  80 2.21  65 2.22  59 2.30  62 2.33  22 2.98  20 3.02
                            43 3.02  16 3.04  42 3.05   2 3.16  12 3.19  24 3.27
   6  0.441  0.668  0.115-  85 2.16  61 2.18  64 2.20  67 2.20  70 2.20 100 2.23  32 3.08  35 3.08
                            50 3.10  21 3.11  25 3.16  17 3.16   3 3.23  10 3.24  13 3.32
   7  0.666  0.998  0.334-  78 2.18  90 2.18  72 2.19  69 2.23  75 2.23  57 2.24  35 3.08  29 3.10
                            38 3.10  23 3.12  15 3.12  19 3.13  11 3.16   9 3.17   1 3.18
   8  0.542  0.334  0.556-  89 2.04  92 2.04  95 2.20  74 2.23  77 2.30  98 2.32  22 2.98  24 3.03
                            16 3.03  45 3.03  46 3.04  48 3.10  12 3.16   2 3.18  20 3.26
   9  0.320  0.000  0.348-  87 2.03  84 2.03  90 2.20  63 2.22  69 2.32  66 2.33  26 2.97  23 3.02
                            19 3.03  42 3.04  44 3.05  32 3.10   7 3.17   4 3.18  15 3.27
  10  0.444  0.666  0.462-  76 2.01  91 2.03  88 2.12  73 2.16  85 2.34  70 2.34  25 2.92  46 3.01
                            38 3.01  27 3.02  18 3.04  37 3.08  21 3.19  17 3.21   6 3.24
  11  0.680  0.999  0.666- 102 2.03  81 2.04  78 2.20  99 2.23  96 2.31  75 2.32  26 2.98  19 3.02
                            15 3.03  51 3.04  41 3.04  50 3.09  39 3.10   7 3.16   4 3.18  23 3.26
  12  0.556  0.335  0.888- 101 2.18  95 2.19  65 2.20  68 2.23  98 2.23  62 2.24  31 3.09  34 3.10
                            20 3.12  16 3.12  24 3.13   8 3.16  14 3.17   5 3.19
  13  0.797  0.666  0.758-  82 1.98 103 2.01 106 2.15  97 2.15 100 2.34  67 2.36  21 2.89  52 3.01
                            18 3.01  41 3.02  27 3.03  49 3.07  25 3.22  17 3.23   6 3.32
  14  0.903  0.334  0.875- 107 2.03 104 2.03 101 2.21  56 2.22  71 2.31  68 2.32  22 2.97  20 3.02
                            24 3.03  52 3.04  54 3.05  12 3.17   2 3.18  16 3.27
  15  0.670  1.000  0.997- 102 2.13 105 2.14  72 2.17  99 2.18  69 2.20  66 2.21  11 3.03   1 3.03
                            26 3.08   7 3.12   4 3.13   9 3.27
  16  0.552  0.333  0.226-  89 2.13  86 2.14  65 2.18  74 2.18  71 2.20  68 2.20   8 3.03   5 3.04
                            22 3.08  12 3.12   2 3.13  14 3.27
  17  0.782  0.667  0.111-  55 2.13  58 2.13 106 2.17  73 2.17  70 2.22  67 2.22   3 2.93  18 3.08
                             6 3.16  10 3.21  13 3.23
  18  0.778  0.667  0.444-  82 2.17  76 2.17  58 2.18  79 2.18  73 2.19  97 2.19  13 3.01  10 3.04
                             3 3.04  17 3.08
  19  0.000  1.000  0.337-  84 2.13  81 2.14  78 2.17  63 2.18  60 2.20  57 2.21  11 3.02   9 3.03
                            26 3.07   4 3.12   7 3.13   1 3.27
  20  0.892  0.333  0.556- 104 2.13  83 2.13 101 2.18  80 2.18  77 2.20  98 2.21   5 3.02  14 3.02
                            22 3.07  12 3.12   2 3.12   8 3.26
  21  0.108  0.667  0.449- 103 2.14  88 2.16  82 2.17  79 2.17  85 2.22  64 2.23  13 2.89  27 3.08
                             6 3.11  10 3.19   3 3.20
  22  0.222  0.333  0.556- 107 2.17  83 2.18 104 2.18  89 2.19  92 2.19  86 2.19  14 2.97   5 2.98
                             8 2.98  24 3.07  20 3.07  16 3.08
  23  0.330  1.000  0.667- 108 2.13  87 2.13  90 2.18  93 2.18  96 2.20  75 2.21   1 3.02   9 3.02
                            26 3.07   4 3.12   7 3.12  11 3.26
  24  0.222  0.334  0.885- 107 2.12  92 2.14  95 2.17  56 2.18  59 2.20  62 2.21  14 3.03   8 3.03
                            22 3.07   2 3.12  12 3.13   5 3.27
  25  0.443  0.667  0.775-  91 2.14  94 2.16  76 2.17  97 2.17  61 2.22 100 2.23  10 2.92  27 3.08
                             6 3.16   3 3.18  13 3.22
  26  0.000  1.000  0.666- 108 2.17  84 2.18  87 2.18  81 2.19 102 2.19 105 2.19   9 2.97   1 2.98
                            11 2.98  19 3.07  23 3.07  15 3.08
  27  0.112  0.667  0.777- 103 2.17  91 2.17  55 2.18  88 2.18  94 2.19 106 2.19  10 3.02  13 3.03
                             3 3.04  21 3.08  25 3.08
  28  0.001  0.502  0.998-  59 2.18  94 2.20 107 2.21  58 2.21 106 2.23  71 2.23   3 3.02
  29  0.888  0.832  0.224-  78 2.19  60 2.19  79 2.20  55 2.21  73 2.22  72 2.23   3 3.01   7 3.10

  30  0.111  0.167  0.111-  62 2.16  57 2.17  56 2.17  63 2.17  80 2.21  93 2.21   4 3.08   2 3.09

  31  0.333  0.500  0.997-  95 2.16 100 2.17  59 2.17  94 2.18  64 2.20  65 2.23  12 3.09
  32  0.219  0.833  0.226-  85 2.16  60 2.16  79 2.18  84 2.19  61 2.21  66 2.23   6 3.08   9 3.10

  33  0.447  0.167  0.112-  68 2.14  69 2.15  99 2.17  86 2.20  62 2.22  63 2.22
  34  0.667  0.500  0.002-  70 2.14  71 2.15  65 2.18 106 2.19 100 2.20 101 2.23  12 3.10
  35  0.558  0.833  0.220-  67 2.16  72 2.16  66 2.17  73 2.19  85 2.20  90 2.22   7 3.08   6 3.08

  36  0.776  0.167  0.111-  69 2.14  68 2.15  74 2.17 105 2.20  57 2.22  56 2.22
  37  0.667  0.501  0.332-  71 2.17  70 2.18  76 2.20  89 2.22  77 2.22  58 2.24  10 3.08
  38  0.555  0.832  0.557-  96 2.18  91 2.19  90 2.20  73 2.21  97 2.22  78 2.24  10 3.01   7 3.10

  39  0.781  0.167  0.445-  80 2.15  57 2.16  98 2.17  81 2.18  75 2.22  74 2.23   2 3.09  11 3.10

  40  0.998  0.501  0.337-  77 2.17  64 2.19  83 2.21  58 2.22  82 2.23  59 2.24   3 3.10
  41  0.892  0.833  0.554-  78 2.20 103 2.21  79 2.24  97 2.24 102 2.25  84 2.25  13 3.02  11 3.04

  42  0.109  0.167  0.448-  80 2.19  63 2.21  87 2.22 104 2.24  86 2.24  81 2.25   9 3.04   5 3.05

  43  0.332  0.499  0.337-  64 2.19  65 2.19  88 2.20  83 2.21  70 2.22  89 2.24   5 3.02
  44  0.219  0.833  0.559-  90 2.21  91 2.21  85 2.22  84 2.23 103 2.24 108 2.25   9 3.05
  45  0.441  0.168  0.446-  75 2.18  74 2.19  87 2.20  92 2.21  69 2.23  86 2.23   8 3.03
  46  0.331  0.500  0.669-  95 2.19  88 2.22  94 2.23  76 2.24  89 2.25 107 2.25  10 3.01   8 3.04

  47  0.223  0.832  0.885-  96 2.17  61 2.20 108 2.20  91 2.22  55 2.22  60 2.24   3 3.10   1 3.10

  48  0.441  0.167  0.778-  62 2.15  93 2.16  75 2.17  92 2.18  98 2.22  99 2.23   4 3.09   8 3.10

  49  0.668  0.502  0.664-  77 2.18  82 2.19 101 2.19 100 2.20  95 2.24  76 2.24  13 3.07
  50  0.556  0.833  0.888-  61 2.16  66 2.17  97 2.19  67 2.20 102 2.20  96 2.20  11 3.09   6 3.10

  51  0.781  0.165  0.776-  98 2.18  99 2.19 104 2.20  81 2.21  68 2.23 105 2.23  11 3.04
  52  0.003  0.500  0.664- 101 2.21  82 2.22 107 2.23  88 2.23 106 2.23  83 2.25  13 3.01  14 3.04

  53  0.890  0.833  0.887-  72 2.20  67 2.21 103 2.21 108 2.22  55 2.25 102 2.26   1 3.02
  54  0.113  0.167  0.774-  93 2.19  56 2.20 104 2.22  87 2.24 105 2.24  92 2.25  14 3.05   1 3.06

  55  0.001  0.746  0.003-   3 2.04  17 2.13  27 2.18  29 2.21  47 2.22  53 2.25
  56  0.003  0.249  0.999-  30 2.17  24 2.18   2 2.20  54 2.20  36 2.22  14 2.22
  57  0.890  0.086  0.225-  39 2.16  30 2.17  19 2.21  36 2.22   7 2.24   1 2.33
  58  0.892  0.587  0.220-   3 2.05  17 2.13  18 2.18  28 2.21  40 2.22  37 2.24
  59  0.113  0.418  0.107-  31 2.17  28 2.18  24 2.20   2 2.22  40 2.24   5 2.30
  60  0.110  0.915  0.115-  32 2.16  29 2.19  19 2.20   4 2.22  47 2.24   1 2.30
  61  0.336  0.752  0.999-  50 2.16   6 2.18  47 2.20  32 2.21  25 2.22   3 2.32
  62  0.332  0.248  0.997-  48 2.15  30 2.16  24 2.21  33 2.22  12 2.24   5 2.33
  63  0.219  0.084  0.223-  30 2.17  19 2.18   4 2.20  42 2.21   9 2.22  33 2.22
  64  0.223  0.582  0.223-  40 2.19  43 2.19   6 2.20  31 2.20  21 2.23   3 2.31
  65  0.447  0.418  0.112-  34 2.18  16 2.18  43 2.19  12 2.20   5 2.22  31 2.23
  66  0.449  0.915  0.109-  50 2.17  35 2.17  15 2.21  32 2.23   4 2.23   9 2.33
  67  0.665  0.751  0.003-  35 2.16  50 2.20   6 2.20  53 2.21  17 2.22  13 2.36
  68  0.664  0.248  0.004-  33 2.14  36 2.15  16 2.20  12 2.23  51 2.23  14 2.32
  69  0.558  0.085  0.218-  36 2.14  33 2.15  15 2.20  45 2.23   7 2.23   9 2.32
  70  0.558  0.582  0.218-  34 2.14  37 2.18   6 2.20  17 2.22  43 2.22  10 2.34
  71  0.774  0.418  0.114-  34 2.15  37 2.17  16 2.20   2 2.22  28 2.23  14 2.31
  72  0.775  0.917  0.110-  35 2.16  15 2.17   7 2.19  53 2.20   1 2.21  29 2.23
  73  0.663  0.747  0.334-  10 2.16  17 2.17  18 2.19  35 2.19  38 2.21  29 2.22
  74  0.666  0.249  0.331-  36 2.17  16 2.18  45 2.19   2 2.21  39 2.23   8 2.23
  75  0.552  0.085  0.557-  48 2.17  45 2.18  23 2.21  39 2.22   7 2.23  11 2.32
  76  0.554  0.587  0.552-  10 2.01  25 2.17  18 2.17  37 2.20  46 2.24  49 2.24
  77  0.780  0.418  0.446-  40 2.17  49 2.18  20 2.20   2 2.21  37 2.22   8 2.30
  78  0.781  0.917  0.442-  19 2.17   7 2.18  29 2.19  41 2.20  11 2.20  38 2.24
  79  0.003  0.746  0.330-   3 2.14  21 2.17  18 2.18  32 2.18  29 2.20  41 2.24
  80  0.998  0.249  0.336-  39 2.15  20 2.18  42 2.19   2 2.19  30 2.21   5 2.21
  81  0.884  0.079  0.556-  11 2.04  19 2.14  39 2.18  26 2.19  51 2.21  42 2.25
  82  0.885  0.588  0.561-  13 1.98  18 2.17  21 2.17  49 2.19  52 2.22  40 2.23
  83  0.112  0.412  0.439-   5 2.02  20 2.13  22 2.18  43 2.21  40 2.21  52 2.25
  84  0.116  0.922  0.440-   9 2.03  19 2.13  26 2.18  32 2.19  44 2.23  41 2.25
  85  0.333  0.752  0.331-   6 2.16  32 2.16  35 2.20  44 2.22  21 2.22  10 2.34
  86  0.333  0.254  0.329-   5 2.05  16 2.14  22 2.19  33 2.20  45 2.23  42 2.24
  87  0.226  0.079  0.551-   9 2.03  23 2.13  26 2.18  45 2.20  42 2.22  54 2.24
  88  0.227  0.587  0.552-  10 2.12  21 2.16  27 2.18  43 2.20  46 2.22  52 2.23
  89  0.449  0.412  0.444-   8 2.04  16 2.13  22 2.19  37 2.22  43 2.24  46 2.25
  90  0.444  0.916  0.447-  23 2.18   7 2.18  38 2.20   9 2.20  44 2.21  35 2.22
  91  0.336  0.746  0.662-  10 2.03  25 2.14  27 2.17  38 2.19  44 2.21  47 2.22
  92  0.338  0.254  0.666-   8 2.04  24 2.14  48 2.18  22 2.19  45 2.21  54 2.25
  93  0.224  0.084  0.886-  48 2.16  23 2.18   4 2.19  54 2.19  30 2.21   1 2.22
  94  0.222  0.587  0.893-   3 2.14  25 2.16  31 2.18  27 2.19  28 2.20  46 2.23
  95  0.441  0.417  0.780-  31 2.16  24 2.17  12 2.19  46 2.19   8 2.20  49 2.24
  96  0.442  0.916  0.777-  47 2.17  38 2.18  23 2.20  50 2.20   4 2.21  11 2.31
  97  0.666  0.747  0.670-  13 2.15  25 2.17  18 2.19  50 2.19  38 2.22  41 2.24
  98  0.670  0.248  0.665-  39 2.17  51 2.18  20 2.21  48 2.22  12 2.23   8 2.32
  99  0.557  0.084  0.891-  33 2.17  15 2.18  51 2.19   4 2.21  48 2.23  11 2.23
 100  0.553  0.582  0.891-  31 2.17  49 2.20  34 2.20   6 2.23  25 2.23  13 2.34
 101  0.778  0.417  0.775-  20 2.18  12 2.18  49 2.19  14 2.21  52 2.21  34 2.23
 102  0.773  0.921  0.778-  11 2.03  15 2.13  26 2.19  50 2.20  41 2.25  53 2.26
 103  0.996  0.746  0.669-  13 2.01  21 2.14  27 2.17  53 2.21  41 2.21  44 2.24
 104  0.996  0.255  0.671-  14 2.03  20 2.13  22 2.18  51 2.20  54 2.22  42 2.24
 105  0.889  0.079  0.893-   1 2.05  15 2.14  26 2.19  36 2.20  51 2.23  54 2.24
 106  0.885  0.586  0.888-  13 2.15  17 2.17  34 2.19  27 2.19  28 2.23  52 2.23
 107  0.106  0.412  0.782-  14 2.03  24 2.12  22 2.17  28 2.21  52 2.23  46 2.25
 108  0.110  0.922  0.783-   1 2.02  23 2.13  26 2.17  47 2.20  53 2.22  44 2.25
 
  LATTYP: Found a triclinic cell.
 ALAT       =     9.3149238653
 B/A-ratio  =     1.0004632033
 C/A-ratio  =     1.6255587616
 COS(alpha) =     0.0000674470
 COS(beta)  =     0.0008355004
 COS(gamma) =     0.4999026647
  
  Lattice vectors:
  
 A1 = (  -4.6568361693,  -0.0038877744,  -8.0673210171)
 A2 = (   4.6611516156,  -0.0003143487,  -8.0698124525)
 A3 = (  -0.0058196888, -15.1419544688,  -0.0039510383)


Analysis of symmetry for initial positions (statically):
=====================================================================
 Subroutine PRICEL returns:
 Original cell was already a primitive cell.
 

 Routine SETGRP: Setting up the symmetry group for a 
 triclinic supercell.


 Subroutine GETGRP returns: Found  1 space group operations
 (whereof  1 operations were pure point group operations)
 out of a pool of  2 trial point group operations.


The static configuration has the point symmetry C_1 .


Analysis of symmetry for dynamics (positions and initial velocities):
=====================================================================
 Subroutine PRICEL returns:
 Original cell was already a primitive cell.
 

 Routine SETGRP: Setting up the symmetry group for a 
 triclinic supercell.


 Subroutine GETGRP returns: Found  1 space group operations
 (whereof  1 operations were pure point group operations)
 out of a pool of  2 trial point group operations.


The dynamic configuration has the point symmetry C_1 .


Analysis of structural, dynamic, and magnetic symmetry:
=====================================================================
 Subroutine PRICEL returns:
 Original cell was already a primitive cell.
 

 Routine SETGRP: Setting up the symmetry group for a 
 triclinic supercell.


 Subroutine GETGRP returns: Found  1 space group operations
 (whereof  1 operations were pure point group operations)
 out of a pool of  2 trial point group operations.


The magnetic configuration has the point symmetry C_1 .


 Subroutine INISYM returns: Found  1 space group operations
 (whereof  1 operations are pure point group operations),
 and found     1 'primitive' translations

 
 
 KPOINTS: Automatic mesh                          

Automatic generation of k-mesh.
Space group operators:
 irot       det(A)        alpha          n_x          n_y          n_z        tau_x        tau_y        tau_z
    1     1.000000     0.000000     1.000000     0.000000     0.000000     0.000000     0.000000     0.000000
 
 Subroutine IBZKPT returns following result:
 ===========================================
 
 Found      1 irreducible k-points:
 
 Following reciprocal coordinates:
            Coordinates               Weight
  0.000000  0.000000  0.000000      1.000000
 
 Following cartesian coordinates:
            Coordinates               Weight
  0.000000  0.000000  0.000000      1.000000
 


--------------------------------------------------------------------------------------------------------




 Dimension of arrays:
   k-points           NKPTS =      1   k-points in BZ     NKDIM =      1   number of bands    NBANDS=    432
   number of dos      NEDOS =    301   number of ions     NIONS =    108
   non local maximal  LDIM  =      6   non local SUM 2l+1 LMDIM =     18
   total plane-waves  NPLWV = 548800
   max r-space proj   IRMAX =   8494   max aug-charges    IRDMAX=  27279
   dimension x,y,z NGX =    70 NGY =  112 NGZ =   70
   dimension x,y,z NGXF=   140 NGYF=  224 NGZF=  140
   support grid    NGXF=   140 NGYF=  224 NGZF=  140
   ions per type =              14  13  27  54
   NGX,Y,Z   is equivalent  to a cutoff of  12.49, 12.30, 12.49 a.u.
   NGXF,Y,Z  is equivalent  to a cutoff of  24.98, 24.59, 24.99 a.u.

 SYSTEM =  unknown system                          
 POSCAR =  ce219565_1                              

 Startparameter for this run:
   NWRITE =      1    write-flag & timer
   PREC   = accura    normal or accurate (medium, high low for compatibility)
   ISTART =      0    job   : 0-new  1-cont  2-samecut
   ICHARG =      2    charge: 1-file 2-atom 10-const
   ISPIN  =      2    spin polarized calculation?
   LNONCOLLINEAR =      F non collinear calculations
   LSORBIT =      F    spin-orbit coupling
   INIWAV =      1    electr: 0-lowe 1-rand  2-diag
   LASPH  =      F    aspherical Exc in radial PAW
   METAGGA=      F    non-selfconsistent MetaGGA calc.

 Electronic Relaxation 1
   ENCUT  =  500.0 eV  36.75 Ry    6.06 a.u.  16.99 27.61 16.98*2*pi/ulx,y,z
   ENINI  =  500.0     initial cutoff
   ENAUG  =  628.9 eV  augmentation charge cutoff
   NELM   =     80;   NELMIN=  2; NELMDL= -5     # of ELM steps 
   EDIFF  = 0.1E-04   stopping-criterion for ELM
   LREAL  =      T    real-space projection
   NLSPLINE    = F    spline interpolate recip. space projectors
   LCOMPAT=      F    compatible to vasp.4.4
   GGA_COMPAT  = T    GGA compatible to vasp.4.4-vasp.4.6
   LMAXPAW     = -100 max onsite density
   LMAXMIX     =    2 max onsite mixed and CHGCAR
   VOSKOWN=      1    Vosko Wilk Nusair interpolation
   ROPT   =   -0.00025  -0.00025  -0.00025  -0.00025
 Ionic relaxation
   EDIFFG = -.2E-01   stopping-criterion for IOM
   NSW    =     20    number of steps for IOM
   NBLOCK =      1;   KBLOCK =     20    inner block; outer block 
   IBRION =      1    ionic relax: 0-MD 1-quasi-New 2-CG
   NFREE  =      0    steps in history (QN), initial steepest desc. (CG)
   ISIF   =      3    stress and relaxation
   IWAVPR =     11    prediction:  0-non 1-charg 2-wave 3-comb
   ISYM   =      2    0-nonsym 1-usesym 2-fastsym
   LCORR  =      T    Harris-Foulkes like correction to forces

   POTIM  = 0.5000    time-step for ionic-motion
   TEIN   =    0.0    initial temperature
   TEBEG  =    0.0;   TEEND  =   0.0 temperature during run
   SMASS  =  -3.00    Nose mass-parameter (am)
   estimated Nose-frequenzy (Omega)   =  0.10E-29 period in steps =****** mass=  -0.198E-26a.u.
   SCALEE = 1.0000    scale energy and forces
   NPACO  =    256;   APACO  = 16.0  distance and # of slots for P.C.
   PSTRESS=    0.0 pullay stress

  Mass of Ions in am
   POMASS = 180.95 58.69  7.01 16.00
  Ionic Valenz
   ZVAL   =  11.00 10.00  3.00  6.00
  Atomic Wigner-Seitz radii
   RWIGS  =   1.34  1.15  1.23  0.73
  virtual crystal weights 
   VCA    =   1.00  1.00  1.00  1.00
   NELECT =     689.0000    total number of electrons
   NUPDOWN=      -1.0000    fix difference up-down

 DOS related values:
   EMIN   =  10.00;   EMAX   =-10.00  energy-range for DOS
   EFERMI =   0.00
   ISMEAR =     0;   SIGMA  =   0.05  broadening in eV -4-tet -1-fermi 0-gaus

 Electronic relaxation 2 (details)
   IALGO  =     38    algorithm
   LDIAG  =      T    sub-space diagonalisation (order eigenvalues)
   LSUBROT=      F    optimize rotation matrix (better conditioning)
   TURBO    =      0    0=normal 1=particle mesh
   IRESTART =      0    0=no restart 2=restart with 2 vectors
   NREBOOT  =      0    no. of reboots
   NMIN     =      0    reboot dimension
   EREF     =   0.00    reference energy to select bands
   IMIX   =      4    mixing-type and parameters
     AMIX     =   0.40;   BMIX     =  1.00
     AMIX_MAG =   1.60;   BMIX_MAG =  1.00
     AMIN     =   0.10
     WC   =   100.;   INIMIX=   1;  MIXPRE=   1;  MAXMIX= -45

 Intra band minimization:
   WEIMIN = 0.0010     energy-eigenvalue tresh-hold
   EBREAK =  0.58E-08  absolut break condition
   DEPER  =   0.30     relativ break condition  

   TIME   =   0.40     timestep for ELM

  volume/ion in A,a.u.               =      10.54        71.13
  Fermi-wavevector in a.u.,A,eV,Ry     =   1.384781  2.616857 26.090786  1.917619
  Thomas-Fermi vector in A             =   2.509253
 
 Write flags
   LWAVE        =      F    write WAVECAR
   LDOWNSAMPLE  =      F    k-point downsampling of WAVECAR
   LCHARG       =      T    write CHGCAR
   LVTOT        =      F    write LOCPOT, total local potential
   LVHAR        =      F    write LOCPOT, Hartree potential only
   LELF         =      F    write electronic localiz. function (ELF)
   LORBIT       =      0    0 simple, 1 ext, 2 COOP (PROOUT), +10 PAW based schemes


 Dipole corrections
   LMONO  =      F    monopole corrections only (constant potential shift)
   LDIPOL =      F    correct potential (dipole corrections)
   IDIPOL =      0    1-x, 2-y, 3-z, 4-all directions 
   EPSILON=  1.0000000 bulk dielectric constant

 Exchange correlation treatment:
   GGA     =    PS    GGA type
   LEXCH   =    14    internal setting for exchange type
   VOSKOWN=      1    Vosko Wilk Nusair interpolation
   LHFCALC =     F    Hartree Fock is set to
   LHFONE  =     F    Hartree Fock one center treatment
   AEXX    =    0.0000 exact exchange contribution

 Linear response parameters
   LEPSILON=     F    determine dielectric tensor
   LRPA    =     F    only Hartree local field effects (RPA)
   LNABLA  =     F    use nabla operator in PAW spheres
   LVEL    =     F    velocity operator in full k-point grid
   LINTERFAST=   F  fast interpolation
   KINTER  =     0    interpolate to denser k-point grid
   CSHIFT  =0.1000    complex shift for real part using Kramers Kronig
   OMEGAMAX=  -1.0    maximum frequency
   DEG_THRESHOLD= 0.2000000E-02 threshold for treating states as degnerate
   RTIME   =   -0.100 relaxation time in fs
  (WPLASMAI=    0.000 imaginary part of plasma frequency in eV, 0.658/RTIME)
   DFIELD  = 0.0000000 0.0000000 0.0000000 field for delta impulse in time
 
 Orbital magnetization related:
   ORBITALMAG=     F  switch on orbital magnetization
   LCHIMAG   =     F  perturbation theory with respect to B field
   DQ        =  0.001000  dq finite difference perturbation B field
   LLRAUG    =     F  two centre corrections for induced B field



--------------------------------------------------------------------------------------------------------


 quasi-Newton-method for relaxation of ions
 charge density and potential will be updated during run
 spin polarized calculation
 Variant of blocked Davidson
 Davidson routine will perform the subspace rotation
 perform sub-space diagonalisation
    after iterative eigenvector-optimisation
 modified Broyden-mixing scheme, WC =      100.0
 initial mixing is a Kerker type mixing with AMIX =  0.4000 and BMIX =      1.0000
 Hartree-type preconditioning will be used
 using additional bands           87
 real space projection scheme for non local part
 use partial core corrections
 calculate Harris-corrections to forces 
   (improved forces if not selfconsistent)
 use gradient corrections 
 use of overlap-Matrix (Vanderbilt PP)
 Gauss-broadening in eV      SIGMA  =   0.05


--------------------------------------------------------------------------------------------------------


  energy-cutoff  :      500.00
  volume of cell :     1138.41
      direct lattice vectors                 reciprocal lattice vectors
     9.317987785  0.003573426 -0.002491435     0.107302756 -0.000025079 -0.061940173
     0.005819689 15.141954469  0.003951038    -0.000025331  0.066041687 -0.000017204
     4.656836169  0.003887774  8.067321017     0.000033151 -0.000032352  0.123937766

  length of vectors
     9.317988803 15.141956103  9.314923865     0.123897002  0.066041694  0.123937775


 
 k-points in units of 2pi/SCALE and weight: Automatic mesh                          
   0.00000000  0.00000000  0.00000000       1.000
 
 k-points in reciprocal lattice and weights: Automatic mesh                          
   0.00000000  0.00000000  0.00000000       1.000
 
 position of ions in fractional coordinates (direct lattice) 
   0.00102272  0.99920865  0.98571662
   0.88936556  0.33283184  0.22241803
   0.09697118  0.66682550  0.11105306
   0.33260669  0.00073393  0.99978464
   0.22086052  0.33382557  0.23640867
   0.44146959  0.66792336  0.11458409
   0.66608620  0.99847329  0.33373261
   0.54195805  0.33391197  0.55613831
   0.31952863  0.00000650  0.34776360
   0.44350794  0.66588709  0.46160302
   0.68042489  0.99939547  0.66590471
   0.55612282  0.33461707  0.88843508
   0.79658593  0.66587117  0.75797030
   0.90268234  0.33367969  0.87481172
   0.67011099  0.99989534  0.99656413
   0.55218447  0.33342788  0.22565675
   0.78237595  0.66666893  0.11118521
   0.77770448  0.66659646  0.44428201
   0.00009315  0.99963995  0.33698307
   0.89243576  0.33339444  0.55566884
   0.10832133  0.66709953  0.44863115
   0.22186977  0.33343280  0.55579934
   0.32970102  0.99994463  0.66670809
   0.22198980  0.33370488  0.88530255
   0.44309654  0.66710244  0.77491537
   0.00032664  0.99989340  0.66641625
   0.11154111  0.66670117  0.77727190
   0.00132736  0.50154115  0.99757618
   0.88802082  0.83164357  0.22395308
   0.11110854  0.16668585  0.11110201
   0.33304568  0.50009687  0.99693278
   0.21880758  0.83326087  0.22579514
   0.44662768  0.16681051  0.11166367
   0.66729486  0.50016666  0.00212267
   0.55845709  0.83317449  0.22009142
   0.77561764  0.16652816  0.11055404
   0.66704983  0.50138231  0.33246637
   0.55461351  0.83157933  0.55712521
   0.78078016  0.16656802  0.44460718
   0.99782442  0.50124224  0.33734541
   0.89165308  0.83314285  0.55359643
   0.10876572  0.16669317  0.44804177
   0.33168348  0.49861588  0.33650796
   0.21862804  0.83336885  0.55930733
   0.44130864  0.16799818  0.44614119
   0.33052566  0.50027868  0.66867348
   0.22314458  0.83194552  0.88470889
   0.44142773  0.16678639  0.77759936
   0.66788875  0.50151148  0.66445215
   0.55639415  0.83326375  0.88792496
   0.78091505  0.16534321  0.77609858
   0.00318145  0.50018943  0.66397411
   0.89041343  0.83343586  0.88749166
   0.11347156  0.16667239  0.77417858
   0.00075356  0.74582953  0.00288404
   0.00319911  0.24904491  0.99933129
   0.89026922  0.08558638  0.22486479
   0.89228380  0.58724575  0.21962577
   0.11278693  0.41825933  0.10733930
   0.10995671  0.91513853  0.11482862
   0.33644824  0.75156365  0.99895591
   0.33201822  0.24770791  0.99720692
   0.21901507  0.08421169  0.22291092
   0.22288404  0.58154415  0.22317732
   0.44686916  0.41754260  0.11186729
   0.44850340  0.91462027  0.10854021
   0.66546663  0.75053089  0.00268974
   0.66395235  0.24824467  0.00424661
   0.55831559  0.08510375  0.21801245
   0.55841383  0.58202683  0.21786284
   0.77370577  0.41791977  0.11372041
   0.77548383  0.91666803  0.11040616
   0.66283997  0.74715980  0.33413812
   0.66578424  0.24907144  0.33095245
   0.55200413  0.08538124  0.55684147
   0.55403416  0.58732291  0.55202218
   0.78020793  0.41753720  0.44563099
   0.78070952  0.91699402  0.44231164
   0.00321867  0.74615693  0.32971798
   0.99778583  0.24939294  0.33636142
   0.88418289  0.07909419  0.55603636
   0.88487461  0.58774063  0.56127090
   0.11202646  0.41177950  0.43944422
   0.11588466  0.92152641  0.44027341
   0.33310678  0.75154265  0.33103432
   0.33338229  0.25395004  0.32911577
   0.22627063  0.07850514  0.55092609
   0.22655465  0.58730411  0.55168730
   0.44867055  0.41217206  0.44444230
   0.44367889  0.91638248  0.44704664
   0.33576518  0.74603753  0.66238053
   0.33813866  0.25424696  0.66617554
   0.22441201  0.08389079  0.88594902
   0.22157246  0.58677483  0.89289939
   0.44138237  0.41664403  0.78011170
   0.44205277  0.91556138  0.77676561
   0.66624181  0.74662988  0.67035025
   0.67023934  0.24786471  0.66528456
   0.55654961  0.08426338  0.89120881
   0.55283136  0.58203864  0.89074432
   0.77829919  0.41691484  0.77496116
   0.77345893  0.92115650  0.77774319
   0.99583997  0.74551952  0.66878811
   0.99580367  0.25483843  0.67123370
   0.88894593  0.07944092  0.89304754
   0.88524847  0.58647340  0.88845771
   0.10643612  0.41152132  0.78179491
   0.11031921  0.92176201  0.78263910
 
 position of ions in cartesian coordinates  (Angst):
   4.60566558 15.13380778  7.95603777
   9.32479873  5.04376736  1.79341688
   1.42461289 10.09781963  0.89829374
   7.75506262  0.01618862  8.06475787
   3.16083483  5.05647991  1.90795333
   4.65109469 10.11568814  0.92592574
   7.76653197 15.12251478  2.69461359
   7.64174675  5.06017863  4.48651532
   4.59684202  0.00259226  2.80472454
   6.28608646 10.08621145  3.72542572
   9.44701612 15.13782104  5.37432048
   9.32118963  5.07219774  7.16722753
  10.95619664 10.08838430  6.11543597
  12.48697979  5.05918941  7.05645638
  10.89074098 15.14663872  8.04188384
   6.19803511  5.05160027  1.82038710
   7.81182066 10.09789861  0.89765158
   9.31946876 10.09807958  3.58486174
   1.57596051 15.13781306  2.72249999
  10.90530451  5.05359280  4.48185272
   3.10242091 10.10332196  3.62161737
   4.65758675  5.05177793  4.48457633
   6.18271979 15.14488623  5.38167758
   6.19314924  5.05717922  7.14278528
   7.74130440 10.10583084  6.25302285
   3.11225399 15.14293238  5.38014362
   4.66284659 10.09857920  6.27285820
   4.66083597  7.59819635  8.04974558
   9.32231986 12.59675303  1.80777480
   1.55366194  2.52477853  0.89667734
   7.74877861  7.57751000  8.04372291
   3.09518665 12.61885789  1.82430898
   4.68264147  2.52786726  0.90037300
   6.23064110  7.57589357  0.01743792
   6.23347484 12.61874146  1.77744868
   7.74299689  2.52476324  0.89060049
   7.76672147  7.59558432  2.68243200
   7.76716227 12.59588420  4.49641173
   9.34673216  2.52668397  3.58550170
  10.87159514  7.59466435  2.72096813
  10.89126902 12.62074961  4.46711040
   3.10090487  2.52619094  3.61488442
   4.66058684  7.55251247  2.71586142
   4.64662596 12.62178889  4.51485975
   6.19069264  2.54713227  3.59872847
   6.19664838  7.57897775  5.39555676
   6.20404449 12.60151812  7.13996172
   7.73534167  2.53007246  6.27270285
   9.32054266  7.59883389  5.36066628
   9.32424430 12.62268205  7.16508173
  10.89168308  2.50942720  6.25974406
   3.12457431  7.57643833  5.35846063
  12.43461506 12.62648004  7.16075465
   4.66351940  2.52716105  6.24592295
   0.02479266 11.29333069  0.02621140
   4.68498073  3.77492329  8.06290233
   9.34317429  1.30000060  1.81217655
   9.34046837  8.89609077  1.77188875
   1.55324291  6.33408408  0.86731215
   1.56463917 13.85782530  0.92970114
   7.79136847 11.38522856  8.06102923
   7.73901255  3.75584525  8.04493985
   3.07932947  1.27677884  1.79808101
   3.11951538  8.80737916  1.80218549
   4.68729898  6.32444281  0.90300572
   4.68992598 13.85116316  0.87812500
   6.21770346 11.36689302  0.02300641
   6.20792036  3.76129858  0.03358540
   6.21812139  1.29147979  1.75772166
   6.22123202  8.81586621  1.75847783
   7.74139040  6.33132903  0.91714263
   7.74542698 13.88334594  0.89237166
   7.73670946 11.31712734  2.69690011
   7.74641027  3.77509420  2.66922499
   7.73718413  1.29697627  4.49118096
   7.73657843  8.89734270  4.45428033
   9.34762841  6.32684980  3.59475412
   9.33975123 13.88959111  3.56994798
   1.56977654 11.29956763  2.66288087
  10.86518759  3.78116975  2.71203500
  10.82863590  1.20296193  4.48383343
  10.86241790  8.90488599  4.52807011
   3.09267735  6.23725522  3.54648544
   3.13545598 13.95583673  3.55517920
   4.64983125 11.38230191  2.67269959
   4.64056824  3.84777079  2.65525533
   4.67441638  1.19167169  4.44424406
   4.68356876  8.89588650  4.45239456
   6.25280040  6.24442175  3.58596938
   6.22135050 13.87914526  3.60898402
   6.21759516 11.30024133  5.34574746
   6.25452189  3.85359415  5.37441402
   6.21727603  1.27451681  7.14700750
   6.22611050  8.88918092  7.20507235
   7.74807265  6.31341508  6.29395801
   7.74164078 13.86798826  6.26893360
   9.33408949 11.31042258  5.40922073
   9.34484568  3.75813768  5.36637358
   9.33662628  1.28136587  7.18861388
   9.30271351  8.81864110  7.18684269
  10.86347582  6.31869959  6.25156862
  10.83426432 13.95389737  6.27601648
  12.39800003 11.29478128  5.39579288
  12.40619489  3.86491994  5.41358363
  12.44242572  1.20953934  7.20260031
  12.38954952  8.88697101  7.16758520
   4.63485621  6.23465687  6.30835127
   4.67793949 13.96071533  6.31716792
 


--------------------------------------------------------------------------------------------------------


 use serial FFT for orbitals x direction half grid
 k-point  1 :   0.0000 0.0000 0.0000  plane waves:   14432

 maximum and minimum number of plane-waves per node :     14432    14432

 maximum number of plane-waves:     14432
 maximum index in each direction: 
   IXMAX=   16   IYMAX=   27   IZMAX=   16
   IXMIN=    0   IYMIN=  -27   IZMIN=  -14

 The following grids will avoid any aliasing or wrap around errors in the Hartre
 e energy
  - symmetry arguments have not been applied
  - exchange correlation energies might require even more grid points
  - we recommend to set PREC=Normal or Accurate and rely on VASP defaults
 NGX is ok and might be reduce to    70
 NGY is ok and might be reduce to   112
 NGZ is ok and might be reduce to    64

 serial   3D FFT for wavefunctions
 parallel 3D FFT for charge:
    minimum data exchange during FFTs selected (reduces bandwidth)


 total amount of memory used by VASP MPI-rank0   172010. kBytes
=======================================================================

   base      :      30000. kBytes
   nonlr-proj:      44017. kBytes
   fftplans  :      11817. kBytes
   grid      :      71572. kBytes
   one-center:       1679. kBytes
   wavefun   :      12925. kBytes
 
     INWAV:  cpu time    0.0000: real time    0.0000
 Broyden mixing: mesh for mixing (old mesh)
   NGX = 33   NGY = 55   NGZ = 33
  (NGX  =140   NGY  =224   NGZ  =140)
  gives a total of  59895 points

 initial charge density was supplied:
 charge density of overlapping atoms calculated
 number of electron     689.0000000 magnetization      32.5000000
 keeping initial charge density in first step


--------------------------------------------------------------------------------------------------------


 Maximum index for non-local projection operator         8205
 Maximum index for augmentation-charges         1981 (set IRDMAX)


--------------------------------------------------------------------------------------------------------


 First call to EWALD:  gamma=   0.170
 Maximum number of real-space cells 3x 2x 3
 Maximum number of reciprocal cells 3x 4x 3

    FEWALD:  cpu time    0.0045: real time    0.0046


--------------------------------------- Iteration      1(   1)  ---------------------------------------


    POTLOK:  cpu time    0.3474: real time    0.3524
    SETDIJ:  cpu time    0.0401: real time    0.0402
     EDDAV:  cpu time    7.1956: real time    7.2292
    --------------------------------------------
      LOOP:  cpu time    7.5836: real time    7.6224

 eigenvalue-minimisations  :  1728
 total energy-change (2. order) : 0.1102808E+05  (-0.3474696E+05)
 number of electron     689.0000000 magnetization      32.5000000
 augmentation part      689.0000000 magnetization      32.5000000

 Free energy of the ion-electron system (eV)
  ---------------------------------------------------
  alpha Z        PSCENC =      3049.45520509
  Ewald energy   TEWEN  =    -43003.19552621
  -Hartree energ DENC   =    -13772.34280793
  -exchange      EXHF   =         0.00000000
  -V(xc)+E(xc)   XCENC  =      2604.40045935
  PAW double counting   =     44834.63049029   -45965.52339323
  entropy T*S    EENTRO =        -0.02655770
  eigenvalues    EBANDS =      5926.13978433
  atomic energy  EATOM  =     57354.53794618
  Solvation  Ediel_sol  =         0.00000000
  ---------------------------------------------------
  free energy    TOTEN  =     11028.07560017 eV

  energy without entropy =    11028.10215788  energy(sigma->0) =    11028.08887903


--------------------------------------------------------------------------------------------------------




--------------------------------------- Iteration      1(   2)  ---------------------------------------


     EDDAV:  cpu time    6.8191: real time    6.8353
    --------------------------------------------
      LOOP:  cpu time    6.8188: real time    6.8351

 eigenvalue-minimisations  :  1824
 total energy-change (2. order) :-0.9684971E+04  (-0.9046363E+04)
 number of electron     689.0000000 magnetization      32.5000000
 augmentation part      689.0000000 magnetization      32.5000000

 Free energy of the ion-electron system (eV)
  ---------------------------------------------------
  alpha Z        PSCENC =      3049.45520509
  Ewald energy   TEWEN  =    -43003.19552621
  -Hartree energ DENC   =    -13772.34280793
  -exchange      EXHF   =         0.00000000
  -V(xc)+E(xc)   XCENC  =      2604.40045935
  PAW double counting   =     44834.63049029   -45965.52339323
  entropy T*S    EENTRO =        -0.02540315
  eigenvalues    EBANDS =     -3758.83250101
  atomic energy  EATOM  =     57354.53794618
  Solvation  Ediel_sol  =         0.00000000
  ---------------------------------------------------
  free energy    TOTEN  =      1343.10446938 eV

  energy without entropy =     1343.12987253  energy(sigma->0) =     1343.11717096


--------------------------------------------------------------------------------------------------------




--------------------------------------- Iteration      1(   3)  ---------------------------------------


     EDDAV:  cpu time    8.2464: real time    8.2659
    --------------------------------------------
      LOOP:  cpu time    8.2464: real time    8.2660

 eigenvalue-minimisations  :  2080
 total energy-change (2. order) :-0.1972659E+04  (-0.1790592E+04)
 number of electron     689.0000000 magnetization      32.5000000
 augmentation part      689.0000000 magnetization      32.5000000

 Free energy of the ion-electron system (eV)
  ---------------------------------------------------
  alpha Z        PSCENC =      3049.45520509
  Ewald energy   TEWEN  =    -43003.19552621
  -Hartree energ DENC   =    -13772.34280793
  -exchange      EXHF   =         0.00000000
  -V(xc)+E(xc)   XCENC  =      2604.40045935
  PAW double counting   =     44834.63049029   -45965.52339323
  entropy T*S    EENTRO =        -0.06310367
  eigenvalues    EBANDS =     -5731.45348750
  atomic energy  EATOM  =     57354.53794618
  Solvation  Ediel_sol  =         0.00000000
  ---------------------------------------------------
  free energy    TOTEN  =      -629.55421762 eV

  energy without entropy =     -629.49111396  energy(sigma->0) =     -629.52266579


--------------------------------------------------------------------------------------------------------




--------------------------------------- Iteration      1(   4)  ---------------------------------------


     EDDAV:  cpu time    8.5934: real time    8.6138
    --------------------------------------------
      LOOP:  cpu time    8.5934: real time    8.6138

 eigenvalue-minimisations  :  2352
 total energy-change (2. order) :-0.2774546E+03  (-0.2651391E+03)
 number of electron     689.0000000 magnetization      32.5000000
 augmentation part      689.0000000 magnetization      32.5000000

 Free energy of the ion-electron system (eV)
  ---------------------------------------------------
  alpha Z        PSCENC =      3049.45520509
  Ewald energy   TEWEN  =    -43003.19552621
  -Hartree energ DENC   =    -13772.34280793
  -exchange      EXHF   =         0.00000000
  -V(xc)+E(xc)   XCENC  =      2604.40045935
  PAW double counting   =     44834.63049029   -45965.52339323
  entropy T*S    EENTRO =        -0.07298851
  eigenvalues    EBANDS =     -6008.89822167
  atomic energy  EATOM  =     57354.53794618
  Solvation  Ediel_sol  =         0.00000000
  ---------------------------------------------------
  free energy    TOTEN  =      -907.00883664 eV

  energy without entropy =     -906.93584812  energy(sigma->0) =     -906.97234238


--------------------------------------------------------------------------------------------------------




--------------------------------------- Iteration      1(   5)  ---------------------------------------


     EDDAV:  cpu time   11.8058: real time   11.8338
    CHARGE:  cpu time    0.4731: real time    0.4742
    MIXING:  cpu time    0.0067: real time    0.0067
    --------------------------------------------
      LOOP:  cpu time   12.2851: real time   12.3143

 eigenvalue-minimisations  :  3216
 total energy-change (2. order) :-0.2368431E+02  (-0.2304206E+02)
 number of electron     688.9999998 magnetization      33.9741097
 augmentation part      178.3483366 magnetization      23.1149764

 Broyden mixing:
  rms(total) = 0.10959E+02    rms(broyden)= 0.10957E+02
  rms(prec ) = 0.12255E+02
  weight for this iteration     100.00

 Free energy of the ion-electron system (eV)
  ---------------------------------------------------
  alpha Z        PSCENC =      3049.45520509
  Ewald energy   TEWEN  =    -43003.19552621
  -Hartree energ DENC   =    -13772.34280793
  -exchange      EXHF   =         0.00000000
  -V(xc)+E(xc)   XCENC  =      2604.40045935
  PAW double counting   =     44834.63049029   -45965.52339323
  entropy T*S    EENTRO =        -0.09032073
  eigenvalues    EBANDS =     -6032.56519922
  atomic energy  EATOM  =     57354.53794618
  Solvation  Ediel_sol  =         0.00000000
  ---------------------------------------------------
  free energy    TOTEN  =      -930.69314641 eV

  energy without entropy =     -930.60282567  energy(sigma->0) =     -930.64798604


--------------------------------------------------------------------------------------------------------




--------------------------------------- Iteration      1(   6)  ---------------------------------------


    POTLOK:  cpu time    0.3107: real time    0.3114
    SETDIJ:  cpu time    0.0407: real time    0.0408
     EDDAV:  cpu time    8.6797: real time    8.7003
    CHARGE:  cpu time    0.5053: real time    0.5066
    MIXING:  cpu time    0.0073: real time    0.0073
    --------------------------------------------
      LOOP:  cpu time    9.5437: real time    9.5664

 eigenvalue-minimisations  :  2512
 total energy-change (2. order) :-0.3708528E+02  (-0.1476973E+03)
 number of electron     688.9999990 magnetization      31.6820216
 augmentation part      206.5304083 magnetization      30.3894936

 Broyden mixing:
  rms(total) = 0.18259E+02    rms(broyden)= 0.18258E+02
  rms(prec ) = 0.19126E+02
  weight for this iteration     100.00

 eigenvalues of (default mixing * dielectric matrix)
  average eigenvalue GAMMA=   0.2494
  0.2494

 Free energy of the ion-electron system (eV)
  ---------------------------------------------------
  alpha Z        PSCENC =      3049.45520509
  Ewald energy   TEWEN  =    -43003.19552621
  -Hartree energ DENC   =    -13554.85786424
  -exchange      EXHF   =         0.00000000
  -V(xc)+E(xc)   XCENC  =      2636.28385870
  PAW double counting   =     51685.28221132   -52685.38792705
  entropy T*S    EENTRO =        -0.08350632
  eigenvalues    EBANDS =     -6449.81282117
  atomic energy  EATOM  =     57354.53794618
  Solvation  Ediel_sol  =         0.00000000
  ---------------------------------------------------
  free energy    TOTEN  =      -967.77842369 eV

  energy without entropy =     -967.69491737  energy(sigma->0) =     -967.73667053


--------------------------------------------------------------------------------------------------------




--------------------------------------- Iteration      1(   7)  ---------------------------------------


    POTLOK:  cpu time    0.3474: real time    0.3482
    SETDIJ:  cpu time    0.0418: real time    0.0418
     EDDAV:  cpu time    9.5273: real time    9.5499
    CHARGE:  cpu time    0.4944: real time    0.4955
    MIXING:  cpu time    0.0074: real time    0.0074
    --------------------------------------------
      LOOP:  cpu time   10.4183: real time   10.4429

 eigenvalue-minimisations  :  2480
 total energy-change (2. order) : 0.1309935E+03  (-0.3392391E+02)
 number of electron     688.9999989 magnetization      28.8244992
 augmentation part      198.4228443 magnetization      23.9857985

 Broyden mixing:
  rms(total) = 0.82782E+01    rms(broyden)= 0.82778E+01
  rms(prec ) = 0.89541E+01
  weight for this iteration     100.00

 eigenvalues of (default mixing * dielectric matrix)
  average eigenvalue GAMMA=   0.5409
  0.5409  0.5409

 Free energy of the ion-electron system (eV)
  ---------------------------------------------------
  alpha Z        PSCENC =      3049.45520509
  Ewald energy   TEWEN  =    -43003.19552621
  -Hartree energ DENC   =    -13727.94981847
  -exchange      EXHF   =         0.00000000
  -V(xc)+E(xc)   XCENC  =      2626.97972483
  PAW double counting   =     53890.29722021   -55006.85306985
  entropy T*S    EENTRO =        -0.03005162
  eigenvalues    EBANDS =     -6020.02656707
  atomic energy  EATOM  =     57354.53794618
  Solvation  Ediel_sol  =         0.00000000
  ---------------------------------------------------
  free energy    TOTEN  =      -836.78493690 eV

  energy without entropy =     -836.75488528  energy(sigma->0) =     -836.76991109


--------------------------------------------------------------------------------------------------------




--------------------------------------- Iteration      1(   8)  ---------------------------------------


    POTLOK:  cpu time    0.3474: real time    0.3483
    SETDIJ:  cpu time    0.0422: real time    0.0423
     EDDAV:  cpu time    8.9887: real time    9.0100
    CHARGE:  cpu time    0.4943: real time    0.4955
    MIXING:  cpu time    0.0077: real time    0.0077
    --------------------------------------------
      LOOP:  cpu time    9.8804: real time    9.9038

 eigenvalue-minimisations  :  2304
 total energy-change (2. order) :-0.2620404E+02  (-0.2073144E+02)
 number of electron     688.9999995 magnetization      27.4658661
 augmentation part      167.0774912 magnetization      24.2518677

 Broyden mixing:
  rms(total) = 0.15953E+02    rms(broyden)= 0.15953E+02
  rms(prec ) = 0.20592E+02
  weight for this iteration     100.00

 eigenvalues of (default mixing * dielectric matrix)
  average eigenvalue GAMMA=   0.4472
  0.5919  0.5919  0.1579

 Free energy of the ion-electron system (eV)
  ---------------------------------------------------
  alpha Z        PSCENC =      3049.45520509
  Ewald energy   TEWEN  =    -43003.19552621
  -Hartree energ DENC   =    -13807.40390295
  -exchange      EXHF   =         0.00000000
  -V(xc)+E(xc)   XCENC  =      2621.83351946
  PAW double counting   =     56702.75926194   -57904.53254099
  entropy T*S    EENTRO =        -0.10591252
  eigenvalues    EBANDS =     -5876.33703153
  atomic energy  EATOM  =     57354.53794618
  Solvation  Ediel_sol  =         0.00000000
  ---------------------------------------------------
  free energy    TOTEN  =      -862.98898152 eV

  energy without entropy =     -862.88306900  energy(sigma->0) =     -862.93602526


--------------------------------------------------------------------------------------------------------




--------------------------------------- Iteration      1(   9)  ---------------------------------------


    POTLOK:  cpu time    0.3472: real time    0.3480
    SETDIJ:  cpu time    0.0432: real time    0.0433
     EDDAV:  cpu time    9.0785: real time    9.1000
    CHARGE:  cpu time    0.4976: real time    0.4987
    MIXING:  cpu time    0.0080: real time    0.0080
    --------------------------------------------
      LOOP:  cpu time    9.9745: real time    9.9981

 eigenvalue-minimisations  :  2336
 total energy-change (2. order) : 0.3286583E+02  (-0.2424636E+02)
 number of electron     688.9999995 magnetization      26.2438241
 augmentation part      182.0242648 magnetization      22.7318959

 Broyden mixing:
  rms(total) = 0.10730E+02    rms(broyden)= 0.10729E+02
  rms(prec ) = 0.14425E+02
  weight for this iteration     100.00

 eigenvalues of (default mixing * dielectric matrix)
  average eigenvalue GAMMA=   0.4082
  0.6274  0.6274  0.2954  0.0825

 Free energy of the ion-electron system (eV)
  ---------------------------------------------------
  alpha Z        PSCENC =      3049.45520509
  Ewald energy   TEWEN  =    -43003.19552621
  -Hartree energ DENC   =    -13705.72167643
  -exchange      EXHF   =         0.00000000
  -V(xc)+E(xc)   XCENC  =      2614.91901798
  PAW double counting   =     57680.17324846   -58871.01885993
  entropy T*S    EENTRO =        -0.04977071
  eigenvalues    EBANDS =     -5949.22274076
  atomic energy  EATOM  =     57354.53794618
  Solvation  Ediel_sol  =         0.00000000
  ---------------------------------------------------
  free energy    TOTEN  =      -830.12315632 eV

  energy without entropy =     -830.07338561  energy(sigma->0) =     -830.09827097


--------------------------------------------------------------------------------------------------------




--------------------------------------- Iteration      1(  10)  ---------------------------------------


    POTLOK:  cpu time    0.3528: real time    0.3536
    SETDIJ:  cpu time    0.0423: real time    0.0424
     EDDAV:  cpu time    9.1312: real time    9.1529
    CHARGE:  cpu time    0.4941: real time    0.4952
    MIXING:  cpu time    0.0076: real time    0.0077
    --------------------------------------------
      LOOP:  cpu time   10.0280: real time   10.0517

 eigenvalue-minimisations  :  2352
 total energy-change (2. order) : 0.1615934E+02  (-0.1423250E+02)
 number of electron     688.9999993 magnetization      23.1499810
 augmentation part      194.6202599 magnetization      19.9771440

 Broyden mixing:
  rms(total) = 0.59182E+01    rms(broyden)= 0.59177E+01
  rms(prec ) = 0.67937E+01
  weight for this iteration     100.00

 eigenvalues of (default mixing * dielectric matrix)
  average eigenvalue GAMMA=   0.4357
  0.9585  0.5038  0.5038  0.1311  0.0812

 Free energy of the ion-electron system (eV)
  ---------------------------------------------------
  alpha Z        PSCENC =      3049.45520509
  Ewald energy   TEWEN  =    -43003.19552621
  -Hartree energ DENC   =    -13635.66503862
  -exchange      EXHF   =         0.00000000
  -V(xc)+E(xc)   XCENC  =      2611.23864581
  PAW double counting   =     58585.27734950   -59767.02860986
  entropy T*S    EENTRO =        -0.07128983
  eigenvalues    EBANDS =     -6008.51250338
  atomic energy  EATOM  =     57354.53794618
  Solvation  Ediel_sol  =         0.00000000
  ---------------------------------------------------
  free energy    TOTEN  =      -813.96382131 eV

  energy without entropy =     -813.89253149  energy(sigma->0) =     -813.92817640


--------------------------------------------------------------------------------------------------------




--------------------------------------- Iteration      1(  11)  ---------------------------------------


    POTLOK:  cpu time    0.3476: real time    0.3485
    SETDIJ:  cpu time    0.0417: real time    0.0418
     EDDAV:  cpu time    9.2404: real time    9.2623
    CHARGE:  cpu time    0.4903: real time    0.4915
    MIXING:  cpu time    0.0086: real time    0.0086
    --------------------------------------------
      LOOP:  cpu time   10.1286: real time   10.1526

 eigenvalue-minimisations  :  2384
 total energy-change (2. order) : 0.6631389E+01  (-0.4532855E+01)
 number of electron     688.9999992 magnetization      21.8686340
 augmentation part      194.6896558 magnetization      20.3714955

 Broyden mixing:
  rms(total) = 0.75523E+01    rms(broyden)= 0.75519E+01
  rms(prec ) = 0.90829E+01
  weight for this iteration     100.00

 eigenvalues of (default mixing * dielectric matrix)
  average eigenvalue GAMMA=   0.4317
  1.1669  0.5738  0.3550  0.2812  0.1356  0.0775

 Free energy of the ion-electron system (eV)
  ---------------------------------------------------
  alpha Z        PSCENC =      3049.45520509
  Ewald energy   TEWEN  =    -43003.19552621
  -Hartree energ DENC   =    -13614.26451427
  -exchange      EXHF   =         0.00000000
  -V(xc)+E(xc)   XCENC  =      2611.88105852
  PAW double counting   =     60831.08226367   -62023.14302399
  entropy T*S    EENTRO =        -0.00090275
  eigenvalues    EBANDS =     -6013.68493846
  atomic energy  EATOM  =     57354.53794618
  Solvation  Ediel_sol  =         0.00000000
  ---------------------------------------------------
  free energy    TOTEN  =      -807.33243221 eV

  energy without entropy =     -807.33152946  energy(sigma->0) =     -807.33198083


--------------------------------------------------------------------------------------------------------




--------------------------------------- Iteration      1(  12)  ---------------------------------------


    POTLOK:  cpu time    0.3499: real time    0.3508
    SETDIJ:  cpu time    0.0423: real time    0.0424
     EDDAV:  cpu time    8.0866: real time    8.1057
    CHARGE:  cpu time    0.4235: real time    0.4245
    MIXING:  cpu time    0.0079: real time    0.0079
    --------------------------------------------
      LOOP:  cpu time    8.9101: real time    8.9312

 eigenvalue-minimisations  :  2240
 total energy-change (2. order) : 0.8377848E+01  (-0.2129577E+02)
 number of electron     688.9999992 magnetization      20.3724426
 augmentation part      193.5683889 magnetization      17.8402890

 Broyden mixing:
  rms(total) = 0.43476E+01    rms(broyden)= 0.43465E+01
  rms(prec ) = 0.51056E+01
  weight for this iteration     100.00

 eigenvalues of (default mixing * dielectric matrix)
  average eigenvalue GAMMA=   0.4299
  1.3172  0.6220  0.3740  0.3740  0.0774  0.1223  0.1223

 Free energy of the ion-electron system (eV)
  ---------------------------------------------------
  alpha Z        PSCENC =      3049.45520509
  Ewald energy   TEWEN  =    -43003.19552621
  -Hartree energ DENC   =    -13631.90026051
  -exchange      EXHF   =         0.00000000
  -V(xc)+E(xc)   XCENC  =      2612.32065719
  PAW double counting   =     61498.06039042   -62699.22818127
  entropy T*S    EENTRO =        -0.04121441
  eigenvalues    EBANDS =     -5978.96360112
  atomic energy  EATOM  =     57354.53794618
  Solvation  Ediel_sol  =         0.00000000
  ---------------------------------------------------
  free energy    TOTEN  =      -798.95458464 eV

  energy without entropy =     -798.91337023  energy(sigma->0) =     -798.93397743


--------------------------------------------------------------------------------------------------------




--------------------------------------- Iteration      1(  13)  ---------------------------------------


    POTLOK:  cpu time    0.3473: real time    0.3482
    SETDIJ:  cpu time    0.0430: real time    0.0431
     EDDAV:  cpu time    8.3940: real time    8.4139
    CHARGE:  cpu time    0.5215: real time    0.5228
    MIXING:  cpu time    0.0091: real time    0.0091
    --------------------------------------------
      LOOP:  cpu time    9.3150: real time    9.3371

 eigenvalue-minimisations  :  2112
 total energy-change (2. order) : 0.3300279E+01  (-0.3437834E+01)
 number of electron     688.9999995 magnetization      19.3178980
 augmentation part      189.9905073 magnetization      15.5811489

 Broyden mixing:
  rms(total) = 0.53096E+01    rms(broyden)= 0.53084E+01
  rms(prec ) = 0.65071E+01
  weight for this iteration     100.00

 eigenvalues of (default mixing * dielectric matrix)
  average eigenvalue GAMMA=   0.4206
  1.4224  0.6750  0.4137  0.4137  0.1250  0.1250  0.0780  0.1124

 Free energy of the ion-electron system (eV)
  ---------------------------------------------------
  alpha Z        PSCENC =      3049.45520509
  Ewald energy   TEWEN  =    -43003.19552621
  -Hartree energ DENC   =    -13659.81536073
  -exchange      EXHF   =         0.00000000
  -V(xc)+E(xc)   XCENC  =      2613.31403278
  PAW double counting   =     62162.82992700   -63374.88221261
  entropy T*S    EENTRO =        -0.09653239
  eigenvalues    EBANDS =     -5937.80178463
  atomic energy  EATOM  =     57354.53794618
  Solvation  Ediel_sol  =         0.00000000
  ---------------------------------------------------
  free energy    TOTEN  =      -795.65430551 eV

  energy without entropy =     -795.55777312  energy(sigma->0) =     -795.60603932


--------------------------------------------------------------------------------------------------------




--------------------------------------- Iteration      1(  14)  ---------------------------------------


    POTLOK:  cpu time    0.3559: real time    0.3567
    SETDIJ:  cpu time    0.0423: real time    0.0424
     EDDAV:  cpu time    7.9465: real time    7.9654
    CHARGE:  cpu time    0.5179: real time    0.5191
    MIXING:  cpu time    0.0094: real time    0.0094
    --------------------------------------------
      LOOP:  cpu time    8.8720: real time    8.8930

 eigenvalue-minimisations  :  2272
 total energy-change (2. order) : 0.6105647E+01  (-0.7710782E+01)
 number of electron     688.9999991 magnetization      18.6270495
 augmentation part      187.7458978 magnetization      14.8369879

 Broyden mixing:
  rms(total) = 0.37892E+01    rms(broyden)= 0.37878E+01
  rms(prec ) = 0.47149E+01
  weight for this iteration     100.00

 eigenvalues of (default mixing * dielectric matrix)
  average eigenvalue GAMMA=   0.4163
  1.5805  0.6483  0.4507  0.4507  0.1600  0.1600  0.1105  0.1105  0.0750

 Free energy of the ion-electron system (eV)
  ---------------------------------------------------
  alpha Z        PSCENC =      3049.45520509
  Ewald energy   TEWEN  =    -43003.19552621
  -Hartree energ DENC   =    -13682.90372011
  -exchange      EXHF   =         0.00000000
  -V(xc)+E(xc)   XCENC  =      2614.07035189
  PAW double counting   =     62555.41180288   -63774.34563766
  entropy T*S    EENTRO =        -0.08091955
  eigenvalues    EBANDS =     -5902.49816096
  atomic energy  EATOM  =     57354.53794618
  Solvation  Ediel_sol  =         0.00000000
  ---------------------------------------------------
  free energy    TOTEN  =      -789.54865845 eV

  energy without entropy =     -789.46773890  energy(sigma->0) =     -789.50819868


--------------------------------------------------------------------------------------------------------




--------------------------------------- Iteration      1(  15)  ---------------------------------------


    POTLOK:  cpu time    0.3549: real time    0.3558
    SETDIJ:  cpu time    0.0429: real time    0.0430
     EDDAV:  cpu time    9.5674: real time    9.5900
    CHARGE:  cpu time    0.4095: real time    0.4105
    MIXING:  cpu time    0.0092: real time    0.0092
    --------------------------------------------
      LOOP:  cpu time   10.3839: real time   10.4085

 eigenvalue-minimisations  :  2448
 total energy-change (2. order) :-0.6127736E+01  (-0.6324408E+01)
 number of electron     688.9999992 magnetization      17.7302082
 augmentation part      187.0267257 magnetization      13.4979272

 Broyden mixing:
  rms(total) = 0.59517E+01    rms(broyden)= 0.59505E+01
  rms(prec ) = 0.78646E+01
  weight for this iteration     100.00

 eigenvalues of (default mixing * dielectric matrix)
  average eigenvalue GAMMA=   0.3995
  1.6851  0.5428  0.5428  0.4909  0.2183  0.1560  0.1167  0.1167  0.0753  0.0502

 Free energy of the ion-electron system (eV)
  ---------------------------------------------------
  alpha Z        PSCENC =      3049.45520509
  Ewald energy   TEWEN  =    -43003.19552621
  -Hartree energ DENC   =    -13679.23193809
  -exchange      EXHF   =         0.00000000
  -V(xc)+E(xc)   XCENC  =      2613.88279787
  PAW double counting   =     62782.74234197   -64000.97677007
  entropy T*S    EENTRO =        -0.06772199
  eigenvalues    EBANDS =     -5912.82272884
  atomic energy  EATOM  =     57354.53794618
  Solvation  Ediel_sol  =         0.00000000
  ---------------------------------------------------
  free energy    TOTEN  =      -795.67639410 eV

  energy without entropy =     -795.60867211  energy(sigma->0) =     -795.64253310


--------------------------------------------------------------------------------------------------------




--------------------------------------- Iteration      1(  16)  ---------------------------------------


    POTLOK:  cpu time    0.3105: real time    0.3112
    SETDIJ:  cpu time    0.0420: real time    0.0421
     EDDAV:  cpu time    8.3543: real time    8.3741
    CHARGE:  cpu time    0.5106: real time    0.5119
    MIXING:  cpu time    0.0089: real time    0.0089
    --------------------------------------------
      LOOP:  cpu time    9.2264: real time    9.2483

 eigenvalue-minimisations  :  2304
 total energy-change (2. order) : 0.7791701E+01  (-0.5581079E+01)
 number of electron     688.9999991 magnetization      16.7001637
 augmentation part      191.7022660 magnetization      14.0235600

 Broyden mixing:
  rms(total) = 0.25918E+01    rms(broyden)= 0.25900E+01
  rms(prec ) = 0.30905E+01
  weight for this iteration     100.00

 eigenvalues of (default mixing * dielectric matrix)
  average eigenvalue GAMMA=   0.3789
  1.7025  0.6217  0.4909  0.4909  0.2167  0.1540  0.1540  0.1068  0.1068  0.0768
  0.0471

 Free energy of the ion-electron system (eV)
  ---------------------------------------------------
  alpha Z        PSCENC =      3049.45520509
  Ewald energy   TEWEN  =    -43003.19552621
  -Hartree energ DENC   =    -13673.47633459
  -exchange      EXHF   =         0.00000000
  -V(xc)+E(xc)   XCENC  =      2613.59937056
  PAW double counting   =     63071.17445518   -64287.57808179
  entropy T*S    EENTRO =        -0.02268389
  eigenvalues    EBANDS =     -5912.37904330
  atomic energy  EATOM  =     57354.53794618
  Solvation  Ediel_sol  =         0.00000000
  ---------------------------------------------------
  free energy    TOTEN  =      -787.88469277 eV

  energy without entropy =     -787.86200887  energy(sigma->0) =     -787.87335082


--------------------------------------------------------------------------------------------------------




--------------------------------------- Iteration      1(  17)  ---------------------------------------


    POTLOK:  cpu time    0.3359: real time    0.3366
    SETDIJ:  cpu time    0.0423: real time    0.0424
     EDDAV:  cpu time    8.3152: real time    8.3349
    CHARGE:  cpu time    0.5083: real time    0.5095
    MIXING:  cpu time    0.0107: real time    0.0107
    --------------------------------------------
      LOOP:  cpu time    9.2124: real time    9.2342

 eigenvalue-minimisations  :  2400
 total energy-change (2. order) :-0.1520451E+01  (-0.3936241E+01)
 number of electron     688.9999993 magnetization      15.5905652
 augmentation part      189.9346802 magnetization      11.3132792

 Broyden mixing:
  rms(total) = 0.42543E+01    rms(broyden)= 0.42532E+01
  rms(prec ) = 0.53605E+01
  weight for this iteration     100.00

 eigenvalues of (default mixing * dielectric matrix)
  average eigenvalue GAMMA=   0.3755
  1.7087  0.6031  0.6031  0.3876  0.3876  0.2079  0.1371  0.1371  0.1043  0.1043
  0.0755  0.0498

 Free energy of the ion-electron system (eV)
  ---------------------------------------------------
  alpha Z        PSCENC =      3049.45520509
  Ewald energy   TEWEN  =    -43003.19552621
  -Hartree energ DENC   =    -13680.05897952
  -exchange      EXHF   =         0.00000000
  -V(xc)+E(xc)   XCENC  =      2613.96227635
  PAW double counting   =     63297.12603108   -64512.61894605
  entropy T*S    EENTRO =        -0.05986774
  eigenvalues    EBANDS =     -5908.55328275
  atomic energy  EATOM  =     57354.53794618
  Solvation  Ediel_sol  =         0.00000000
  ---------------------------------------------------
  free energy    TOTEN  =      -789.40514356 eV

  energy without entropy =     -789.34527583  energy(sigma->0) =     -789.37520970


--------------------------------------------------------------------------------------------------------




--------------------------------------- Iteration      1(  18)  ---------------------------------------


    POTLOK:  cpu time    0.3502: real time    0.3510
    SETDIJ:  cpu time    0.0426: real time    0.0427
     EDDAV:  cpu time    9.0179: real time    9.0392
    CHARGE:  cpu time    0.5000: real time    0.5012
    MIXING:  cpu time    0.0106: real time    0.0106
    --------------------------------------------
      LOOP:  cpu time    9.9213: real time    9.9448

 eigenvalue-minimisations  :  2320
 total energy-change (2. order) : 0.2243599E+01  (-0.3308093E+01)
 number of electron     688.9999991 magnetization      15.0656598
 augmentation part      190.7368668 magnetization      12.4518967

 Broyden mixing:
  rms(total) = 0.25010E+01    rms(broyden)= 0.24994E+01
  rms(prec ) = 0.29457E+01
  weight for this iteration     100.00

 eigenvalues of (default mixing * dielectric matrix)
  average eigenvalue GAMMA=   0.3620
  1.6967  0.6907  0.4968  0.4968  0.2791  0.2791  0.1823  0.1823  0.1120  0.1120
  0.0760  0.0509  0.0509

 Free energy of the ion-electron system (eV)
  ---------------------------------------------------
  alpha Z        PSCENC =      3049.45520509
  Ewald energy   TEWEN  =    -43003.19552621
  -Hartree energ DENC   =    -13686.08810756
  -exchange      EXHF   =         0.00000000
  -V(xc)+E(xc)   XCENC  =      2614.22238738
  PAW double counting   =     63520.68122303   -64736.20084852
  entropy T*S    EENTRO =        -0.06083643
  eigenvalues    EBANDS =     -5900.51298788
  atomic energy  EATOM  =     57354.53794618
  Solvation  Ediel_sol  =         0.00000000
  ---------------------------------------------------
  free energy    TOTEN  =      -787.16154491 eV

  energy without entropy =     -787.10070849  energy(sigma->0) =     -787.13112670


--------------------------------------------------------------------------------------------------------




--------------------------------------- Iteration      1(  19)  ---------------------------------------


    POTLOK:  cpu time    0.3507: real time    0.3515
    SETDIJ:  cpu time    0.0442: real time    0.0443
     EDDAV:  cpu time    9.2757: real time    9.2978
    CHARGE:  cpu time    0.5023: real time    0.5035
    MIXING:  cpu time    0.0110: real time    0.0111
    --------------------------------------------
      LOOP:  cpu time   10.1840: real time   10.2083

 eigenvalue-minimisations  :  2400
 total energy-change (2. order) : 0.8644978E+00  (-0.5591803E+00)
 number of electron     688.9999991 magnetization      14.6589924
 augmentation part      190.0832948 magnetization      11.1641051

 Broyden mixing:
  rms(total) = 0.24497E+01    rms(broyden)= 0.24491E+01
  rms(prec ) = 0.28549E+01
  weight for this iteration     100.00

 eigenvalues of (default mixing * dielectric matrix)
  average eigenvalue GAMMA=   0.3533
  1.7016  0.7361  0.4637  0.4637  0.3529  0.3529  0.1836  0.1836  0.1098  0.1098
  0.0749  0.0816  0.0816  0.0507

 Free energy of the ion-electron system (eV)
  ---------------------------------------------------
  alpha Z        PSCENC =      3049.45520509
  Ewald energy   TEWEN  =    -43003.19552621
  -Hartree energ DENC   =    -13690.73532541
  -exchange      EXHF   =         0.00000000
  -V(xc)+E(xc)   XCENC  =      2614.40505878
  PAW double counting   =     63578.62104509   -64793.40235228
  entropy T*S    EENTRO =        -0.07187805
  eigenvalues    EBANDS =     -5895.91122027
  atomic energy  EATOM  =     57354.53794618
  Solvation  Ediel_sol  =         0.00000000
  ---------------------------------------------------
  free energy    TOTEN  =      -786.29704707 eV

  energy without entropy =     -786.22516902  energy(sigma->0) =     -786.26110805


--------------------------------------------------------------------------------------------------------




--------------------------------------- Iteration      1(  20)  ---------------------------------------


    POTLOK:  cpu time    0.3483: real time    0.3492
    SETDIJ:  cpu time    0.0431: real time    0.0432
     EDDAV:  cpu time    8.9722: real time    8.9935
    CHARGE:  cpu time    0.5069: real time    0.5081
    MIXING:  cpu time    0.0111: real time    0.0112
    --------------------------------------------
      LOOP:  cpu time    9.8817: real time    9.9051

 eigenvalue-minimisations  :  2304
 total energy-change (2. order) : 0.8327081E-01  (-0.6128477E+00)
 number of electron     688.9999990 magnetization      14.3882034
 augmentation part      189.4339126 magnetization      10.0247205

 Broyden mixing:
  rms(total) = 0.22664E+01    rms(broyden)= 0.22658E+01
  rms(prec ) = 0.26224E+01
  weight for this iteration     100.00

 eigenvalues of (default mixing * dielectric matrix)
  average eigenvalue GAMMA=   0.3385
  1.7284  0.7199  0.4361  0.4361  0.3555  0.3555  0.2077  0.2077  0.1227  0.1227
  0.1006  0.1006  0.0757  0.0531  0.0546

 Free energy of the ion-electron system (eV)
  ---------------------------------------------------
  alpha Z        PSCENC =      3049.45520509
  Ewald energy   TEWEN  =    -43003.19552621
  -Hartree energ DENC   =    -13693.28242435
  -exchange      EXHF   =         0.00000000
  -V(xc)+E(xc)   XCENC  =      2614.51761343
  PAW double counting   =     63632.74115368   -64847.16649219
  entropy T*S    EENTRO =        -0.08216991
  eigenvalues    EBANDS =     -5893.73908198
  atomic energy  EATOM  =     57354.53794618
  Solvation  Ediel_sol  =         0.00000000
  ---------------------------------------------------
  free energy    TOTEN  =      -786.21377626 eV

  energy without entropy =     -786.13160635  energy(sigma->0) =     -786.17269130


--------------------------------------------------------------------------------------------------------




--------------------------------------- Iteration      1(  21)  ---------------------------------------


    POTLOK:  cpu time    0.3481: real time    0.3489
    SETDIJ:  cpu time    0.0424: real time    0.0424
     EDDAV:  cpu time    9.1438: real time    9.1654
    CHARGE:  cpu time    0.5019: real time    0.5031
    MIXING:  cpu time    0.0121: real time    0.0121
    --------------------------------------------
      LOOP:  cpu time   10.0483: real time   10.0721

 eigenvalue-minimisations  :  2368
 total energy-change (2. order) : 0.1574005E+00  (-0.4082734E+00)
 number of electron     688.9999991 magnetization      14.3413286
 augmentation part      189.9456055 magnetization      10.9188519

 Broyden mixing:
  rms(total) = 0.24704E+01    rms(broyden)= 0.24698E+01
  rms(prec ) = 0.28314E+01
  weight for this iteration     100.00

 eigenvalues of (default mixing * dielectric matrix)
  average eigenvalue GAMMA=   0.3214
  1.7349  0.7132  0.4155  0.4155  0.3286  0.3286  0.2546  0.2546  0.1300  0.1300
  0.1023  0.1023  0.0757  0.0501  0.0531  0.0531

 Free energy of the ion-electron system (eV)
  ---------------------------------------------------
  alpha Z        PSCENC =      3049.45520509
  Ewald energy   TEWEN  =    -43003.19552621
[...]
      1.72341     14.98060      2.88093         0.652722      0.218907      0.960987
     10.74636      4.98786      4.45846         0.602419      0.165341      0.151221
      2.93939     10.05343      3.48431         0.019960      0.154912      0.023208
      4.43056      4.98035      4.26773        -0.030378     -0.074856     -0.188465
      5.65487     14.86747      5.14760        -0.350524     -0.152476     -0.116420
      5.67887      4.99415      6.34300        -0.524106     -0.031940     -0.662249
      7.41845      9.84207      6.06700         0.097781     -0.198448     -0.012656
      2.92795     14.96455      5.13867         0.020329      0.092831      0.187275
      4.44435      9.92647      6.02513         0.120912      0.108282      0.025760
      4.41240      7.54560      7.66729        -0.085527      0.081963      0.097289
      8.80623     12.33079      1.85776         0.003528      0.059861      0.009908
      1.47765      2.50919      0.85225         0.014761      0.071117     -0.009264
      7.35948      7.41952      7.71250        -0.063957     -0.117512      0.048799
      2.83268     12.38541      1.81619         0.010495     -0.057828     -0.062787
      4.54543      2.49237      0.90051         0.015150      0.056788      0.014419
      5.95247      7.47663      0.10743         0.017771     -0.018414      0.029090
      5.90693     12.38888      1.71141         0.046904     -0.009448     -0.031952
      7.31173      2.44002      0.92226        -0.008664     -0.013395     -0.000648
      7.40666      7.49107      2.59313         0.045327     -0.041477      0.000938
      7.40259     12.33998      4.42735         0.054704      0.003331      0.098337
      9.00352      2.46673      3.54693        -0.037274      0.132662      0.040853
     10.38765      7.48803      2.77932         0.028338     -0.013844      0.013344
     10.40337     12.34972      4.28736         0.057864      0.005980     -0.037876
      2.92643      2.48697      3.58629        -0.031743      0.016394      0.079738
      4.45865      7.45666      2.72075         0.039977     -0.003142      0.060052
      4.29540     12.41733      4.43251        -0.047005      0.042457      0.013951
      5.85468      2.49319      3.48313        -0.057201     -0.009793     -0.018480
      5.84296      7.49574      5.27840        -0.065331      0.008219      0.037752
      5.87142     12.37009      6.78206        -0.018474      0.060216     -0.028276
      7.39617      2.39119      6.04151         0.116116     -0.135398      0.013317
      8.83473      7.48327      5.13468        -0.110657     -0.093250     -0.071386
      8.86956     12.35192      6.87669        -0.039442      0.007613     -0.043897
     10.53071      2.35731      6.10769         0.040912     -0.000587      0.037389
      3.02681      7.50928      5.04864         0.050228      0.018612     -0.028235
     11.84104     12.32463      6.94950        -0.017419     -0.039453     -0.024382
      4.55863      2.45331      5.89514         0.033971      0.025543     -0.069725
     -0.01064     11.23856      0.02303        -0.043890     -0.151135      0.018727
      4.27078      3.75282      7.86071         0.052372      0.110402     -0.126250
      8.76015      0.98409      1.70312        -0.131399      0.004981     -0.164408
      8.97062      8.58621      1.80195         0.058041     -0.152044      0.091593
      1.47207      6.03208      1.05037         0.108210      0.028927      0.139745
      1.32328     13.88224      0.67888        -0.136627     -0.039253     -0.243294
      7.40076     11.07518      7.95154         0.028679     -0.056943     -0.041399
      7.66131      3.81905      7.91484         0.082539     -0.076542      0.158802
      3.21117      1.22250      1.62066        -0.113251     -0.086692      0.100089
      2.86449      8.82749      1.55937        -0.069903      0.053342      0.096432
      4.16655      6.19784      0.77659         0.048444     -0.024859     -0.003072
      4.23721     13.89876      0.92508         0.028425      0.184546     -0.117122
      5.67363     11.12423     -0.06967        -0.066393      0.072183     -0.094093
      5.90802      3.84256     -0.09046         0.008874      0.030400     -0.073444
      5.94804      1.06510      1.91059         0.001677     -0.064713      0.044121
      5.73764      8.78205      1.86421         0.040301      0.093007     -0.007213
      7.51162      6.00413      0.87555        -0.008188     -0.123148      0.082343
      7.54462     13.65225      1.03999        -0.070785     -0.060728     -0.029204
      7.26553     11.07950      2.60917         0.064027      0.028107     -0.037041
      7.62926      3.67763      2.80254        -0.050475     -0.103197     -0.015388
      7.57351      0.97521      4.29926        -0.064245     -0.169374      0.056152
      7.32574      8.68588      4.29437        -0.003991      0.143769      0.059741
      8.73570      5.97946      3.44748        -0.192625     -0.037096     -0.097050
      8.58506     13.69629      3.63436         0.013435      0.029764     -0.081845
      1.42394     11.09169      2.51360        -0.028436     -0.068394      0.007408
     10.37893      3.65076      2.40463        -0.133402     -0.005737      0.048966
     10.28004      1.30501      4.36237        -0.339608      0.493231     -0.136985
     10.33864      8.51533      4.52503        -0.036012     -0.119848      0.033129
      2.89863      6.35554      3.36891         0.061365      0.146184     -0.099479
      2.94238     13.50758      3.36682         0.180172     -0.445711     -0.255119
      4.56621     11.09259      2.50408         0.064368     -0.034596     -0.012517
      4.40332      3.64697      2.59357        -0.096257     -0.054811      0.035201
      4.47714      1.23507      4.28168        -0.091643     -0.074672      0.105931
      4.44787      8.86098      4.26907        -0.053188      0.086615      0.046027
      5.97256      6.26990      3.49358        -0.042190      0.005946      0.082145
      5.77473     13.72082      3.18395        -0.042838     -0.084432     -0.079744
      5.82058     11.27888      5.06391        -0.106844      0.119816     -0.039744
      6.13272      3.44615      5.19842         0.201012     -0.210725      0.170790
      5.98668      1.18105      7.18988         0.100062      0.070797      0.066958
      6.00341      8.74899      6.98946         0.038744     -0.018989      0.037952
      7.63749      6.14366      5.95494        -0.120865     -0.172699      0.040785
      7.49831     13.81544      6.14419         0.087504      0.026957      0.035706
      8.89192     10.99295      5.27517         0.013344     -0.066166     -0.064901
      8.79310      3.86402      5.27872        -0.063102      0.108201     -0.044946
      8.72795      1.14831      6.74642         0.043142     -0.035358     -0.066059
      9.09972      8.73984      7.04140         0.041891     -0.072158      0.104919
     10.46460      6.09879      6.38005         0.021004      0.021427     -0.013048
     10.27462     13.61219      6.07159         0.130372      0.151653     -0.132312
     11.72484     11.18894      5.26958         0.011883     -0.045707     -0.095416
     11.89524      3.55536      5.30646         0.085760     -0.085386     -0.047141
     11.97306      1.19222      7.01721         0.019519     -0.069575     -0.093610
     11.81650      8.81627      6.96201         0.001881      0.211621     -0.008285
      4.37741      6.43154      6.13714        -0.019288      0.305021      0.374505
      4.43460     13.62556      6.08768        -0.014127     -0.150220      0.059263
 -----------------------------------------------------------------------------------
    total drift:                               -0.018181      0.013421     -0.015325


--------------------------------------------------------------------------------------------------------



  FREE ENERGIE OF THE ION-ELECTRON SYSTEM (eV)
  ---------------------------------------------------
  free  energy   TOTEN  =      -808.8041207504 eV

  energy  without entropy=     -808.7429223162  energy(sigma->0) =     -808.77352153
 
 d Force = 0.2148451E+00[ 0.203E+00, 0.226E+00]  d Energy = 0.2276001E+00-0.128E-01
 d Force =-0.4615804E+02[-0.471E+02,-0.452E+02]  d Ewald  =-0.4330746E+02-0.285E+01


--------------------------------------------------------------------------------------------------------


    POTLOK:  cpu time    0.3285: real time    0.3293


--------------------------------------------------------------------------------------------------------


 Quasi-Newton relaxation of ions (Broydens 2nd method)
  g(Force)  = 0.269E+00   g(Stress)= 0.184E-01

 retain information from N=  1 steps
 eigenvalues of (default step * inverse Hessian matrix)
  average eigenvalue of G=   0.2043
 eigenvalue spectrum of G is  0.2043


--------------------------------------------------------------------------------------------------------


     LOOP+:  cpu time  264.6988: real time  265.3876
    4ORBIT:  cpu time    0.0000: real time    0.0000

volume of typ            1:    13.7 %

volume of typ            2:     8.0 %

volume of typ            3:    20.4 %

volume of typ            4:     8.5 %
 
total charge     
 
# of ion       s       p       d       tot
------------------------------------------
    1        0.268   6.146   2.007   8.420
    2        0.290   6.187   1.937   8.414
    3        0.283   6.163   1.955   8.401
    4        0.287   6.180   1.939   8.406
    5        0.266   6.143   2.009   8.417
    6        0.285   6.180   1.934   8.399
    7        0.287   6.182   1.946   8.415
    8        0.268   6.138   2.016   8.423
    9        0.269   6.140   2.045   8.454
   10        0.283   6.161   1.962   8.406
   11        0.271   6.144   2.000   8.415
   12        0.288   6.182   1.940   8.410
   13        0.283   6.161   1.969   8.413
   14        0.270   6.139   2.022   8.431
   15        0.180   0.181   8.103   8.464
   16        0.187   0.185   8.115   8.487
   17        0.182   0.193   8.045   8.420
   18        0.185   0.200   8.003   8.388
   19        0.196   0.194   8.174   8.564
   20        0.188   0.189   8.131   8.508
   21        0.177   0.188   8.044   8.409
   22        0.189   0.196   8.118   8.503
   23        0.176   0.176   8.114   8.466
   24        0.228   0.208   8.162   8.598
   25        0.182   0.190   8.056   8.429
   26        0.179   0.186   8.117   8.482
   27        0.184   0.199   8.005   8.387
   28        2.085   0.285   0.110   2.479
   29        2.071   0.243   0.091   2.405
   30        2.085   0.276   0.109   2.470
   31        2.074   0.252   0.096   2.422
   32        2.084   0.280   0.108   2.472
   33        2.076   0.260   0.099   2.436
   34        2.072   0.245   0.092   2.408
   35        2.078   0.263   0.101   2.442
   36        2.074   0.253   0.095   2.422
   37        2.070   0.242   0.090   2.402
   38        2.076   0.254   0.095   2.424
   39        2.085   0.280   0.109   2.474
   40        2.079   0.266   0.102   2.448
   41        2.074   0.257   0.098   2.429
   42        2.076   0.260   0.100   2.435
   43        2.077   0.262   0.101   2.440
   44        2.082   0.274   0.108   2.464
   45        2.081   0.274   0.107   2.462
   46        2.072   0.248   0.093   2.413
   47        2.074   0.254   0.097   2.425
   48        2.095   0.305   0.122   2.522
   49        2.082   0.268   0.103   2.453
   50        2.076   0.260   0.099   2.435
   51        2.079   0.268   0.102   2.449
   52        2.078   0.266   0.103   2.446
   53        2.068   0.236   0.089   2.393
   54        2.076   0.260   0.100   2.436
   55        1.252   2.824   0.006   4.082
   56        1.251   2.848   0.005   4.105
   57        1.254   2.842   0.005   4.100
   58        1.254   2.826   0.005   4.086
   59        1.255   2.841   0.005   4.101
   60        1.255   2.837   0.005   4.097
   61        1.247   2.843   0.004   4.094
   62        1.252   2.848   0.005   4.105
   63        1.252   2.844   0.006   4.102
   64        1.249   2.847   0.005   4.101
   65        1.251   2.845   0.005   4.101
   66        1.250   2.836   0.005   4.091
   67        1.248   2.849   0.004   4.101
   68        1.247   2.840   0.004   4.091
   69        1.247   2.838   0.004   4.090
   70        1.246   2.845   0.004   4.095
   71        1.249   2.837   0.004   4.090
   72        1.249   2.848   0.005   4.102
   73        1.248   2.831   0.005   4.084
   74        1.250   2.850   0.005   4.105
   75        1.251   2.839   0.005   4.095
   76        1.251   2.825   0.006   4.082
   77        1.251   2.841   0.005   4.097
   78        1.249   2.850   0.005   4.104
   79        1.244   2.832   0.005   4.081
   80        1.249   2.857   0.005   4.110
   81        1.250   2.842   0.006   4.099
   82        1.254   2.836   0.005   4.095
   83        1.247   2.835   0.007   4.089
   84        1.248   2.839   0.006   4.093
   85        1.250   2.850   0.005   4.105
   86        1.248   2.825   0.007   4.080
   87        1.250   2.830   0.006   4.086
   88        1.246   2.832   0.005   4.083
   89        1.249   2.822   0.006   4.077
   90        1.252   2.848   0.006   4.105
   91        1.252   2.834   0.005   4.092
   92        1.247   2.850   0.006   4.103
   93        1.249   2.857   0.005   4.112
   94        1.246   2.835   0.005   4.086
   95        1.249   2.845   0.005   4.099
   96        1.248   2.840   0.004   4.092
   97        1.245   2.826   0.005   4.076
   98        1.252   2.838   0.005   4.094
   99        1.250   2.852   0.005   4.107
  100        1.251   2.850   0.005   4.105
  101        1.252   2.847   0.006   4.105
  102        1.252   2.820   0.006   4.078
  103        1.252   2.837   0.006   4.095
  104        1.249   2.832   0.006   4.088
  105        1.251   2.821   0.006   4.078
  106        1.246   2.827   0.005   4.078
  107        1.247   2.844   0.006   4.098
  108        1.249   2.832   0.007   4.088
--------------------------------------------------
tot         129.91  249.13  135.87  514.91
 
magnetization (x)
 
# of ion       s       p       d       tot
------------------------------------------
    1        0.000   0.000   0.019   0.020
    2        0.000   0.000   0.012   0.012
    3        0.001   0.001   0.036   0.038
    4        0.000   0.000   0.007   0.007
    5        0.002   0.002   0.059   0.063
    6        0.000   0.000   0.008   0.008
    7       -0.000   0.000   0.000   0.000
    8        0.001   0.001   0.032   0.034
    9        0.001   0.001   0.033   0.036
   10        0.001   0.001   0.040   0.042
   11        0.000  -0.000   0.003   0.003
   12        0.000   0.000   0.015   0.015
   13        0.000  -0.000  -0.008  -0.008
   14        0.001   0.001   0.032   0.034
   15        0.000   0.002   0.745   0.748
   16        0.001  -0.004  -0.673  -0.675
   17       -0.005  -0.001  -1.075  -1.081
   18       -0.002  -0.002  -1.227  -1.230
   19        0.001   0.000  -0.082  -0.081
   20        0.001  -0.003  -0.527  -0.529
   21        0.004   0.002   1.050   1.056
   22        0.000   0.001  -0.653  -0.652
   23        0.000  -0.002  -0.711  -0.713
   24        0.000   0.001  -0.071  -0.070
   25       -0.005  -0.001  -1.024  -1.030
   26       -0.001  -0.000  -0.702  -0.703
   27       -0.002  -0.002  -1.227  -1.231
   28       -0.001  -0.003  -0.001  -0.005
   29        0.000   0.000   0.000   0.001
   30        0.000   0.000   0.000   0.001
   31        0.000   0.000   0.000   0.001
   32       -0.001  -0.004  -0.001  -0.006
   33        0.000  -0.001  -0.000  -0.001
   34       -0.000  -0.002  -0.000  -0.003
   35        0.000  -0.000  -0.000  -0.000
   36       -0.000  -0.001  -0.000  -0.001
   37       -0.001  -0.002  -0.000  -0.004
   38       -0.001  -0.003  -0.001  -0.004
   39        0.000  -0.000   0.000  -0.000
   40       -0.000  -0.001  -0.001  -0.002
   41       -0.000  -0.001  -0.000  -0.002
   42       -0.001  -0.001  -0.000  -0.002
   43       -0.001  -0.003  -0.001  -0.005
   44        0.000   0.000   0.000   0.000
   45       -0.000  -0.000   0.000  -0.000
   46       -0.000  -0.000   0.000  -0.000
   47       -0.000  -0.001  -0.000  -0.002
   48       -0.000  -0.000   0.000  -0.000
   49        0.000   0.001   0.001   0.002
   50       -0.001  -0.004  -0.001  -0.006
   51       -0.001  -0.002  -0.001  -0.004
   52       -0.001  -0.001  -0.000  -0.002
   53        0.000   0.001   0.000   0.002
   54        0.000   0.001   0.000   0.002
   55       -0.006  -0.056  -0.000  -0.063
   56        0.000   0.002   0.000   0.002
   57       -0.000  -0.001   0.000  -0.002
   58       -0.003  -0.053  -0.000  -0.056
   59        0.000  -0.002   0.000  -0.002
   60        0.000  -0.001   0.000  -0.000
   61       -0.003  -0.031  -0.000  -0.034
   62        0.000   0.000   0.000   0.000
   63       -0.000   0.001   0.000   0.001
   64        0.002   0.022   0.000   0.024
   65        0.000  -0.000   0.000   0.000
   66        0.003   0.014   0.000   0.017
   67       -0.001  -0.020   0.000  -0.022
   68       -0.002  -0.009  -0.000  -0.011
   69        0.002   0.018   0.000   0.020
   70       -0.003  -0.032  -0.000  -0.035
   71       -0.002  -0.014  -0.000  -0.017
   72       -0.000   0.002  -0.000   0.002
   73       -0.005  -0.063  -0.000  -0.069
   74        0.000   0.001   0.000   0.001
   75       -0.002  -0.012  -0.000  -0.014
   76       -0.006  -0.061  -0.000  -0.068
   77       -0.001  -0.004  -0.000  -0.005
   78       -0.000  -0.001   0.000  -0.001
   79       -0.000  -0.018   0.000  -0.018
   80        0.000   0.002   0.000   0.002
   81        0.000   0.004   0.000   0.004
   82       -0.001  -0.015  -0.000  -0.016
   83       -0.003  -0.036   0.000  -0.039
   84       -0.001  -0.014   0.000  -0.015
   85        0.002   0.014  -0.000   0.016
   86       -0.004  -0.045   0.000  -0.049
   87       -0.005  -0.052  -0.000  -0.057
   88       -0.000  -0.018   0.000  -0.018
   89       -0.005  -0.051  -0.000  -0.056
   90        0.000  -0.002   0.000  -0.001
   91       -0.003  -0.049  -0.000  -0.052
   92        0.000   0.005   0.000   0.005
   93        0.000  -0.000   0.000   0.000
   94       -0.004  -0.057  -0.000  -0.062
   95        0.000   0.001   0.000   0.001
   96       -0.002  -0.013  -0.000  -0.015
   97       -0.006  -0.072  -0.000  -0.078
   98       -0.001  -0.009   0.000  -0.010
   99       -0.000  -0.001  -0.000  -0.002
  100       -0.001  -0.016   0.000  -0.018
  101        0.000  -0.001   0.000  -0.000
  102        0.000   0.004   0.000   0.004
  103        0.001   0.002   0.000   0.003
  104       -0.004  -0.047  -0.000  -0.051
  105        0.001   0.010   0.000   0.011
  106       -0.006  -0.077  -0.000  -0.083
  107       -0.000  -0.000   0.000  -0.001
  108       -0.003  -0.034   0.000  -0.038
--------------------------------------------------
tot          -0.08   -0.91   -5.89   -6.89
 

 total amount of memory used by VASP MPI-rank0   181512. kBytes
=======================================================================

   base      :      30000. kBytes
   nonlr-proj:      53519. kBytes
   fftplans  :      11817. kBytes
   grid      :      71572. kBytes
   one-center:       1679. kBytes
   wavefun   :      12925. kBytes
 
  
  
 General timing and accounting informations for this job:
 ========================================================
  
                  Total CPU time used (sec):    10056.596
                            User time (sec):    10022.808
                          System time (sec):       33.788
                         Elapsed time (sec):    10087.627
  
                   Maximum memory used (kb):      256732.
                   Average memory used (kb):           0.
  
                          Minor page faults:        42475
                          Major page faults:           54
                 Voluntary context switches:         1450
