 vasp.5.4.4.18Apr17-6-g9f103f2a35 (build May 12 2020 05:39:39) gamma-only       
  
 MD_VERSION_INFO: Compiled 2020-05-12T12:39:39-UTC in devlin.sd.materialsdesign.
 com:/home/medea2/data/build/wwolf/vasp-gpu5.4.4/13047/x86_64/src/src/build/gam 
 from svn 13047
 
 This VASP executable licensed from Materials Design, Inc.
 
 executed on                        Lin64 date 2023.04.04  01:38:15
 running on   16 total cores
 distrk:  each k-point on   16 cores,    1 groups
 distr:  one band on NCORES_PER_BAND=   1 cores,   16 groups


--------------------------------------------------------------------------------------------------------


 INCAR:
 POTCAR:    PAW_PBE Ta_pv 07Sep2000               
 POTCAR:    PAW_PBE Ni 02Aug2007                  
 POTCAR:    PAW_PBE Li_sv 10Sep2004               
 POTCAR:    PAW_PBE O 08Apr2002                   

 ----------------------------------------------------------------------------- 
|                                                                             |
|           W    W    AA    RRRRR   N    N  II  N    N   GGGG   !!!           |
|           W    W   A  A   R    R  NN   N  II  NN   N  G    G  !!!           |
|           W    W  A    A  R    R  N N  N  II  N N  N  G       !!!           |
|           W WW W  AAAAAA  RRRRR   N  N N  II  N  N N  G  GGG   !            |
|           WW  WW  A    A  R   R   N   NN  II  N   NN  G    G                |
|           W    W  A    A  R    R  N    N  II  N    N   GGGG   !!!           |
|                                                                             |
|      For optimal performance we recommend to set                            |
|        NCORE= 4 - approx SQRT( number of cores)                             |
|      NCORE specifies how many cores store one orbital (NPAR=cpu/NCORE).     |
|      This setting can  greatly improve the performance of VASP for DFT.     |
|      The default,   NCORE=1            might be grossly inefficient         |
|      on modern multi-core architectures or massively parallel machines.     |
|      Do your own testing !!!!                                               |
|      Unfortunately you need to use the default for GW and RPA calculations. |
|      (for HF NCORE is supported but not extensively tested yet)             |
|                                                                             |
 ----------------------------------------------------------------------------- 

 POTCAR:    PAW_PBE Ta_pv 07Sep2000               
  local pseudopotential read in
  partial core-charges read in
  partial kinetic energy density read in
  atomic valenz-charges read in
  non local Contribution for L=           1  read in
    real space projection operators read in
  non local Contribution for L=           1  read in
    real space projection operators read in
  non local Contribution for L=           2  read in
    real space projection operators read in
  non local Contribution for L=           2  read in
    real space projection operators read in
  non local Contribution for L=           0  read in
    real space projection operators read in
  non local Contribution for L=           0  read in
    real space projection operators read in
    PAW grid and wavefunctions read in
 
   number of l-projection  operators is LMAX  =           6
   number of lm-projection operators is LMMAX =          18
 
 POTCAR:    PAW_PBE Ni 02Aug2007                  
  local pseudopotential read in
  partial core-charges read in
  partial kinetic energy density read in
  atomic valenz-charges read in
  non local Contribution for L=           2  read in
    real space projection operators read in
  non local Contribution for L=           2  read in
    real space projection operators read in
  non local Contribution for L=           0  read in
    real space projection operators read in
  non local Contribution for L=           0  read in
    real space projection operators read in
  non local Contribution for L=           1  read in
    real space projection operators read in
  non local Contribution for L=           1  read in
    real space projection operators read in
    PAW grid and wavefunctions read in
 
   number of l-projection  operators is LMAX  =           6
   number of lm-projection operators is LMMAX =          18
 
 POTCAR:    PAW_PBE Li_sv 10Sep2004               
  local pseudopotential read in
  atomic valenz-charges read in
  non local Contribution for L=           0  read in
    real space projection operators read in
  non local Contribution for L=           0  read in
    real space projection operators read in
  non local Contribution for L=           1  read in
    real space projection operators read in
    PAW grid and wavefunctions read in
 
   number of l-projection  operators is LMAX  =           3
   number of lm-projection operators is LMMAX =           5
 
 POTCAR:    PAW_PBE O 08Apr2002                   
  local pseudopotential read in
  partial core-charges read in
  partial kinetic energy density read in
  kinetic energy density of atom read in
  atomic valenz-charges read in
  non local Contribution for L=           0  read in
    real space projection operators read in
  non local Contribution for L=           0  read in
    real space projection operators read in
  non local Contribution for L=           1  read in
    real space projection operators read in
  non local Contribution for L=           1  read in
    real space projection operators read in
    PAW grid and wavefunctions read in
 
   number of l-projection  operators is LMAX  =           4
   number of lm-projection operators is LMMAX =           8
 
 Optimization of the real space projectors (new method)

 maximal supplied QI-value         = 15.12
 optimisation between [QCUT,QGAM] = [ 11.34, 22.83] = [ 36.00,145.93] Ry 
 Optimized for a Real-space Cutoff    1.61 Angstroem

   l    n(q)    QCUT    max X(q) W(low)/X(q) W(high)/X(q)  e(spline) 
   1     11    11.338     4.092    0.40E-05    0.64E-05    0.47E-07
   1     11    11.338     4.834    0.13E-04    0.44E-04    0.21E-06
   2     10    11.338    62.294    0.15E-03    0.31E-03    0.77E-06
   2     10    11.338    50.966    0.15E-03    0.31E-03    0.77E-06
   0     11    11.338   103.792    0.33E-04    0.19E-04    0.90E-07
   0     11    11.338    56.335    0.26E-04    0.17E-04    0.79E-07
 Optimization of the real space projectors (new method)

 maximal supplied QI-value         = 16.25
 optimisation between [QCUT,QGAM] = [ 11.38, 22.75] = [ 36.24,144.96] Ry 
 Optimized for a Real-space Cutoff    1.47 Angstroem

   l    n(q)    QCUT    max X(q) W(low)/X(q) W(high)/X(q)  e(spline) 
   2      9    11.376    60.317    0.17E-03    0.16E-04    0.16E-06
   2      9    11.376    55.921    0.17E-03    0.16E-04    0.17E-06
   0     10    11.376    51.690    0.45E-04    0.60E-04    0.21E-06
   0     10    11.376    30.015    0.37E-04    0.55E-04    0.19E-06
   1     10    11.376    18.849    0.83E-04    0.11E-03    0.92E-07
   1     10    11.376    14.624    0.69E-04    0.92E-04    0.82E-07
 Optimization of the real space projectors (new method)

 maximal supplied QI-value         = 22.11
 optimisation between [QCUT,QGAM] = [ 11.28, 22.77] = [ 35.61,145.23] Ry 
 Optimized for a Real-space Cutoff    1.10 Angstroem

   l    n(q)    QCUT    max X(q) W(low)/X(q) W(high)/X(q)  e(spline) 
   0      7    11.276    10.506    0.54E-04    0.58E-04    0.16E-07
   0      7    11.276     8.367    0.11E-03    0.14E-03    0.35E-07
   1      7    11.276     8.983    0.23E-03    0.43E-03    0.86E-07
 Optimization of the real space projectors (new method)

 maximal supplied QI-value         = 24.76
 optimisation between [QCUT,QGAM] = [ 11.39, 22.77] = [ 36.31,145.25] Ry 
 Optimized for a Real-space Cutoff    1.10 Angstroem

   l    n(q)    QCUT    max X(q) W(low)/X(q) W(high)/X(q)  e(spline) 
   0      7    11.387    20.381    0.22E-03    0.48E-03    0.18E-06
   0      7    11.387    15.268    0.22E-03    0.52E-03    0.19E-06
   1      7    11.387     5.964    0.22E-03    0.73E-03    0.24E-06
   1      7    11.387     5.382    0.19E-03    0.60E-03    0.21E-06

 ----------------------------------------------------------------------------- 
|                                                                             |
|  ADVICE TO THIS USER RUNNING 'VASP/VAMP'   (HEAR YOUR MASTER'S VOICE ...):  |
|                                                                             |
|      You enforced a specific xc-type in the INCAR file,                     |
|      a different type was found on the POTCAR file                          |
|          I HOPE YOU KNOW, WHAT YOU ARE  DOING                               |
|                                                                             |
 ----------------------------------------------------------------------------- 

  PAW_PBE Ta_pv 07Sep2000               :
 energy of atom  1       EATOM=-1047.1984
 kinetic energy error for atom=    0.0019 (will be added to EATOM!!)
  PAW_PBE Ni 02Aug2007                  :
 energy of atom  2       EATOM=-1077.6739
 kinetic energy error for atom=    0.0030 (will be added to EATOM!!)
  PAW_PBE Li_sv 10Sep2004               :
 energy of atom  3       EATOM= -202.7858
 kinetic energy error for atom=    0.0143 (will be added to EATOM!!)
  PAW_PBE O 08Apr2002                   :
 energy of atom  4       EATOM= -432.3788
 kinetic energy error for atom=    0.0224 (will be added to EATOM!!)
 
 
 POSCAR: ce27697_1                               
  positions in direct lattice
  No initial velocities read in
 exchange correlation table for  LEXCH =       14
   RHO(1)=    0.500       N(1)  =     2000
   RHO(2)=  100.500       N(2)  =     4000
 


--------------------------------------------------------------------------------------------------------


 ion  position               nearest neighbor table
   1  0.992  0.996  0.992-  57 2.12  72 2.13 108 2.14  60 2.15  93 2.18 105 2.19   7 2.72  19 2.74
                             9 2.86  15 2.87  53 2.98   4 3.04  22 3.05  29 3.08
   2  0.891  0.334  0.231-  59 2.10  56 2.10  74 2.12  71 2.14  77 2.15  80 2.18  12 2.77  10 2.84
                             5 2.86  16 2.92  27 3.01   8 3.06  28 3.08  36 3.09
   3  0.113  0.663  0.116-  79 1.97  61 1.99  55 2.00  58 2.03  94 2.03  64 2.03  40 2.92  25 2.93
                            21 2.95   6 2.96  31 3.01  11 3.08  23 3.09  47 3.09  20 3.18
   4  0.335  0.997  0.999-  63 2.03  99 2.03  66 2.04  96 2.04  60 2.04  93 2.06  26 2.87  22 2.90
                            32 3.02  48 3.04   7 3.04   1 3.04  15 3.05  13 3.05  30 3.07  50 3.08
   5  0.221  0.332  0.222-  86 2.14  80 2.15  62 2.16  83 2.17  65 2.18  59 2.19  12 2.86   2 2.86
                             8 2.87  14 2.88  16 2.88  17 2.88  33 3.07
   6  0.426  0.669  0.157-  85 1.93  70 1.97  67 2.02  64 2.05  61 2.16 100 2.25  24 2.56  23 2.73
                            43 2.86  35 2.88  21 2.93   3 2.96  25 3.21  18 3.23
   7  0.675  0.000  0.009- 102 2.11 105 2.13  69 2.13  99 2.14  66 2.18  72 2.19   1 2.72   9 2.74
                            19 2.86  13 2.86   4 3.04  36 3.04  26 3.06  33 3.09  53 3.09  51 3.09
   8  0.543  0.336  0.231-  65 2.07  68 2.10  74 2.10  71 2.12  89 2.13  86 2.16  14 2.69   5 2.87
                            27 2.94  10 2.98  17 3.05   2 3.06  33 3.08  45 3.09  36 3.09  34 3.10
   9  0.661  0.996  0.326-  78 2.05  57 2.11  75 2.11  90 2.14  72 2.16  69 2.23   7 2.74  13 2.74
                             1 2.86  15 2.87  22 3.00  39 3.01  29 3.02  26 3.03  35 3.03  45 3.05
  10  0.559  0.335  0.560-  95 2.14  77 2.14  74 2.16  92 2.17  89 2.17  98 2.19  12 2.79  17 2.79
                            16 2.84   2 2.84  14 2.97   8 2.98  49 3.04  46 3.07
  11  0.746  0.669  0.463-  76 1.91  73 1.96  97 2.06  58 2.07  82 2.14  79 2.15  25 2.60  18 2.81
                            24 2.82  38 2.91  37 2.97  49 2.98  21 3.02  29 3.08   3 3.08  23 3.21
  12  0.882  0.334  0.549- 101 2.11 104 2.11  98 2.14  83 2.16  80 2.17  77 2.17   2 2.77  10 2.79
                            17 2.86   5 2.86  14 3.04  27 3.05  49 3.07  51 3.10
  13  0.342  1.000  0.342-  84 2.12  87 2.13  63 2.14  69 2.15  90 2.18  66 2.19  15 2.72   9 2.74
                             7 2.86  19 2.87  45 2.97  44 3.03  42 3.04   4 3.05  22 3.06  32 3.07
  14  0.231  0.335  0.543- 104 2.09  83 2.10 107 2.11  92 2.12  89 2.14  86 2.16   8 2.69   5 2.88
                            10 2.97  27 2.97  12 3.04  43 3.05  54 3.05  16 3.07  52 3.09  45 3.09
  15  0.325  0.996  0.658-  90 2.12  75 2.12 108 2.13  96 2.16  87 2.18  93 2.18  13 2.72  19 2.73
                             1 2.87   9 2.87  44 2.99   4 3.05  26 3.05  45 3.05  38 3.06  47 3.09
  16  0.230  0.333  0.891-  56 2.10 107 2.11  59 2.12  92 2.13  62 2.17  95 2.17  17 2.77  10 2.84
                             5 2.88   2 2.92  27 3.01  31 3.05  14 3.07  54 3.07
  17  0.550  0.334  0.881- 101 2.10  68 2.11  98 2.14  65 2.16  62 2.17  95 2.18  16 2.77  10 2.79
                            12 2.86   5 2.88  27 3.01   8 3.05  31 3.05  49 3.08
  18  0.779  0.670  0.763- 100 1.99  82 2.02 106 2.05 103 2.06  97 2.07  67 2.07  23 2.76  25 2.77
                            11 2.81  50 2.97  21 3.01  49 3.03  20 3.07  53 3.07  52 3.10   6 3.23
  19  0.006  0.001  0.674-  81 2.05 102 2.10  84 2.11  87 2.14 105 2.16 108 2.23  15 2.73   1 2.74
                             7 2.86  13 2.87  41 2.95  26 3.01  42 3.02  22 3.03  51 3.05  54 3.06
  20  0.139  0.663  0.742-  88 1.93  91 1.94 103 2.03  94 2.06 106 2.12  55 2.17  24 2.58  23 2.69
                            46 2.90  44 2.96  25 2.97  52 3.00  18 3.07  47 3.08  21 3.08   3 3.18
  21  0.784  0.665  0.102- 106 2.07  55 2.08  70 2.09  73 2.12  58 2.15  67 2.15   6 2.93  24 2.95
                             3 2.95  18 3.01  11 3.02  20 3.08
  22  0.996  0.998  0.336-  78 2.03  63 2.08  81 2.09  57 2.09  84 2.10  60 2.15  41 2.72  39 2.78
                            26 2.83   4 2.90   9 3.00  19 3.03   1 3.05  13 3.06
  23  0.108  0.701  0.462- 103 1.94  85 1.95  79 2.12  82 2.44  44 2.54  20 2.69  32 2.72   6 2.73
                            18 2.76  24 2.89   3 3.09  11 3.21
  24  0.438  0.657  0.441-  70 1.99  88 2.04  73 2.11  91 2.20  76 2.26  85 2.50   6 2.56  20 2.58
                            43 2.79  11 2.82  37 2.84  23 2.89  21 2.95  25 3.07
  25  0.457  0.669  0.778-  76 2.00  61 2.01 100 2.06  91 2.09  97 2.36  94 2.40  11 2.60  18 2.77
                             3 2.93  20 2.97  24 3.07   6 3.21
  26  0.668  0.998  0.665-  81 2.06  78 2.08 102 2.09  75 2.10  96 2.11  99 2.12  41 2.76  39 2.80
                            22 2.83   4 2.87  19 3.01   9 3.03  15 3.05   7 3.06
  27  0.888  0.334  0.891-  68 2.04 107 2.05 104 2.07  71 2.10  56 2.15 101 2.19   8 2.94  14 2.97
                             2 3.01  16 3.01  17 3.01  12 3.05
  28  0.991  0.497  0.994-  94 1.98  71 2.05 107 2.11  59 2.17   2 3.08
  29  0.883  0.833  0.230-  72 2.02  79 2.05  78 2.06  60 2.17  73 2.18   9 3.02  11 3.08   1 3.08

  30  0.102  0.161  0.120-  80 2.01  57 2.05  62 2.10  93 2.13  56 2.20  63 2.21   4 3.07
  31  0.345  0.504  0.978-  95 1.93  64 1.93 100 2.16  59 2.19  94 2.23  65 2.28   3 3.01  16 3.05
                            17 3.05
  32  0.208  0.839  0.237-  85 1.88  84 2.03  66 2.12  60 2.15  79 2.21  23 2.72   4 3.02  13 3.07

  33  0.445  0.166  0.113-  69 1.99  86 2.00  62 2.08  99 2.12  68 2.15  63 2.16   5 3.07   8 3.08
                             7 3.09  13 3.09
  34  0.676  0.501  0.997-  65 2.10  70 2.11 101 2.14 106 2.17  71 2.19 100 2.21   8 3.10
  35  0.563  0.822  0.236-  85 2.00  73 2.00  90 2.03  72 2.05  67 2.21   6 2.88   9 3.03
  36  0.779  0.171  0.104- 105 2.00  69 2.07  56 2.09  74 2.10  68 2.19   7 3.04   2 3.09   8 3.09

  37  0.661  0.509  0.332-  89 2.04  70 2.06  58 2.11  77 2.16  76 2.17  71 2.17  24 2.84  11 2.97

  38  0.553  0.832  0.560-  90 2.03  91 2.12  96 2.12  97 2.15  78 2.15  73 2.18  11 2.91  15 3.06
                             9 3.08
  39  0.789  0.147  0.451-  81 2.03  57 2.04  75 2.06  80 2.15  98 2.19  22 2.78  26 2.80   9 3.01

  40  0.002  0.508  0.341-  82 2.01  64 2.09  77 2.10  58 2.13  83 2.17  59 2.21   3 2.92
  41  0.885  0.854  0.546-  97 1.93  84 1.97  78 2.02 102 2.04  22 2.72  26 2.76  19 2.95
  42  0.108  0.160  0.441-  87 2.04  81 2.06  86 2.07  80 2.07  63 2.13 104 2.26  19 3.02  13 3.04

  43  0.326  0.508  0.346-  88 1.94  70 2.10  83 2.10  89 2.19  64 2.20  65 2.25  24 2.79   6 2.86
                            14 3.05
  44  0.228  0.831  0.548-  90 1.98  85 2.02 108 2.07 103 2.16  84 2.19  91 2.24  23 2.54  20 2.96
                            15 2.99  13 3.03  19 3.10
  45  0.446  0.164  0.442-  69 2.00  87 2.00  74 2.12  92 2.14  86 2.17  75 2.18  13 2.97   9 3.05
                            15 3.05   8 3.09  14 3.09
  46  0.347  0.506  0.663-  88 1.90  76 2.00  95 2.02  89 2.05  94 2.20 107 2.28  20 2.90  10 3.07

  47  0.223  0.828  0.883- 108 2.00  91 2.05  55 2.08  96 2.12  60 2.14  20 3.08   3 3.09  15 3.09

  48  0.456  0.159  0.769-  98 2.03  75 2.06  93 2.11  99 2.16  62 2.17   4 3.04
  49  0.666  0.503  0.664-  76 1.98  95 2.01  77 2.03  82 2.06 101 2.15 100 2.26  11 2.98  18 3.03
                            10 3.04  12 3.07  17 3.08
  50  0.565  0.832  0.875-  97 2.02 102 2.11  66 2.17  67 2.18  96 2.19  61 2.27  18 2.97   4 3.08

  51  0.782  0.165  0.774- 105 2.03  98 2.09  81 2.10 104 2.17  99 2.19  68 2.23  19 3.05   7 3.09
                            12 3.10
  52  0.998  0.500  0.668-  83 2.06  88 2.06 106 2.08 101 2.12 107 2.24  82 2.26  20 3.00  14 3.09
                            18 3.10
  53  0.889  0.829  0.896- 103 1.90  72 1.97 108 2.02 102 2.26  67 2.26   1 2.98  18 3.07   7 3.09

  54  0.098  0.174  0.780- 105 2.01  92 2.08  56 2.09 104 2.12  87 2.12  14 3.05  19 3.06  16 3.07

  55  0.022  0.735  0.991-   3 2.00  21 2.08  47 2.08  20 2.17
  56  0.002  0.253  0.004-  54 2.09  36 2.09  16 2.10   2 2.10  27 2.15  30 2.20
  57  0.889  0.076  0.221-  39 2.04  30 2.05  22 2.09   9 2.11   1 2.12
  58  0.885  0.592  0.239-   3 2.03  11 2.07  37 2.11  40 2.13  21 2.15
  59  0.110  0.420  0.110-   2 2.10  16 2.12  28 2.17  31 2.19   5 2.19  40 2.21
  60  0.114  0.918  0.102-   4 2.04  47 2.14  22 2.15   1 2.15  32 2.15  29 2.17
  61  0.333  0.736  0.007-   3 1.99  25 2.01   6 2.16  50 2.27
  62  0.330  0.241  0.004-  33 2.08  30 2.10   5 2.16  16 2.17  48 2.17  17 2.17
  63  0.228  0.073  0.220-   4 2.03  22 2.08  42 2.13  13 2.14  33 2.16  30 2.21
  64  0.240  0.578  0.187-  31 1.93   3 2.03   6 2.05  40 2.09  43 2.20
  65  0.453  0.418  0.109-   8 2.07  34 2.10  17 2.16   5 2.18  43 2.25  31 2.28
  66  0.440  0.918  0.105-   4 2.04  32 2.12  50 2.17   7 2.18  13 2.19
  67  0.651  0.739  0.000-   6 2.02  18 2.07  21 2.15  50 2.18  35 2.21  53 2.26
  68  0.661  0.259  1.000-  27 2.04   8 2.10  17 2.11  33 2.15  36 2.19  51 2.23
  69  0.554  0.094  0.219-  33 1.99  45 2.00  36 2.07   7 2.13  13 2.15   9 2.23
  70  0.555  0.586  0.219-   6 1.97  24 1.99  37 2.06  21 2.09  43 2.10  34 2.11
  71  0.778  0.414  0.117-  28 2.05  27 2.10   8 2.12   2 2.14  37 2.17  34 2.19
  72  0.781  0.903  0.110-  53 1.97  29 2.02  35 2.05   1 2.13   9 2.16   7 2.19
  73  0.661  0.740  0.338-  11 1.96  35 2.00  24 2.11  21 2.12  29 2.18  38 2.18
  74  0.663  0.253  0.328-  36 2.10   8 2.10   2 2.12  45 2.12  10 2.16
  75  0.556  0.076  0.554-  39 2.06  48 2.06  26 2.10   9 2.11  15 2.12  45 2.18
  76  0.558  0.585  0.574-  11 1.91  49 1.98  46 2.00  25 2.00  37 2.17  24 2.26
  77  0.776  0.427  0.444-  49 2.03  40 2.10  10 2.14   2 2.15  37 2.16  12 2.17
  78  0.773  0.923  0.435-  41 2.02  22 2.03   9 2.05  29 2.06  26 2.08  38 2.15
  79  0.989  0.744  0.320-   3 1.97  29 2.05  23 2.12  11 2.15  32 2.21
  80  0.002  0.241  0.332-  30 2.01  42 2.07  39 2.15   5 2.15  12 2.17   2 2.18
  81  0.895  0.075  0.565-  39 2.03  19 2.05  42 2.06  26 2.06  22 2.09  51 2.10
  82  0.879  0.588  0.553-  40 2.01  18 2.02  49 2.06  11 2.14  52 2.26  23 2.44
  83  0.111  0.419  0.450-  52 2.06  14 2.10  43 2.10  12 2.16   5 2.17  40 2.17
  84  0.109  0.921  0.447-  41 1.97  32 2.03  22 2.10  19 2.11  13 2.12  44 2.19
  85  0.326  0.768  0.315-  32 1.88   6 1.93  23 1.95  35 2.00  44 2.02  24 2.50
  86  0.327  0.243  0.328-  33 2.00  42 2.07   5 2.14  14 2.16   8 2.16  45 2.17
  87  0.223  0.092  0.553-  45 2.00  42 2.04  54 2.12  13 2.13  19 2.14  15 2.18
  88  0.232  0.571  0.568-  46 1.90  20 1.93  43 1.94  24 2.04  52 2.06
  89  0.452  0.424  0.448-  37 2.04  46 2.05   8 2.13  14 2.14  10 2.17  43 2.19
  90  0.445  0.905  0.448-  44 1.98  38 2.03  35 2.03  15 2.12   9 2.14  13 2.18
  91  0.336  0.744  0.673-  20 1.94  47 2.05  25 2.09  38 2.12  24 2.20  44 2.24
  92  0.327  0.251  0.664-  54 2.08  14 2.12  16 2.13  45 2.14  10 2.17
  93  0.229  0.078  0.893-   4 2.06  48 2.11  30 2.13  15 2.18   1 2.18
  94  0.185  0.585  0.902-  28 1.98   3 2.03  20 2.06  46 2.20  31 2.23  25 2.40
  95  0.446  0.428  0.774-  31 1.93  49 2.01  46 2.02  10 2.14  16 2.17  17 2.18
  96  0.437  0.919  0.780-   4 2.04  26 2.11  47 2.12  38 2.12  15 2.16  50 2.19
  97  0.706  0.764  0.646-  41 1.93  50 2.02  11 2.06  18 2.07  38 2.15  25 2.36
  98  0.667  0.242  0.667-  48 2.03  51 2.09  12 2.14  17 2.14  39 2.19  10 2.19
  99  0.552  0.076  0.898-   4 2.03  33 2.12  26 2.12   7 2.14  48 2.16  51 2.19
 100  0.562  0.596  0.897-  18 1.99  25 2.06  31 2.16  34 2.21   6 2.25  49 2.26
 101  0.774  0.416  0.774-  17 2.10  12 2.11  52 2.12  34 2.14  49 2.15  27 2.19
 102  0.778  0.922  0.780-  41 2.04  26 2.09  19 2.10  50 2.11   7 2.11  53 2.26
 103  0.993  0.751  0.700-  53 1.90  23 1.94  20 2.03  18 2.06  44 2.16
 104  0.999  0.259  0.662-  27 2.07  14 2.09  12 2.11  54 2.12  51 2.17  42 2.26
 105  0.886  0.093  0.890-  36 2.00  54 2.01  51 2.03   7 2.13  19 2.16   1 2.19
 106  0.894  0.595  0.867-  18 2.05  21 2.07  52 2.08  20 2.12  34 2.17
 107  0.114  0.409  0.779-  27 2.05  14 2.11  16 2.11  28 2.11  52 2.24  46 2.28
 108  0.113  0.903  0.781-  47 2.00  53 2.02  44 2.07  15 2.13   1 2.14  19 2.23
 
  LATTYP: Found a triclinic cell.
 ALAT       =    14.9923715381
 B/A-ratio  =     0.5735814135
 C/A-ratio  =     1.0257100630
 COS(alpha) =     0.0028211387
 COS(beta)  =     0.0059808594
 COS(gamma) =     0.8586570957
  
  Lattice vectors:
  
 A1 = ( -13.0792362804,   0.0446608432,   7.3282186149)
 A2 = (  -4.2872535752,   0.0122676886,   7.4543981678)
 A3 = (  -0.0576240327,  15.3777160940,  -0.0084021041)


Analysis of symmetry for initial positions (statically):
=====================================================================
 Subroutine PRICEL returns:
 Original cell was already a primitive cell.
 

 Routine SETGRP: Setting up the symmetry group for a 
 triclinic supercell.


 Subroutine GETGRP returns: Found  1 space group operations
 (whereof  1 operations were pure point group operations)
 out of a pool of  2 trial point group operations.


The static configuration has the point symmetry C_1 .


Analysis of symmetry for dynamics (positions and initial velocities):
=====================================================================
 Subroutine PRICEL returns:
 Original cell was already a primitive cell.
 

 Routine SETGRP: Setting up the symmetry group for a 
 triclinic supercell.


 Subroutine GETGRP returns: Found  1 space group operations
 (whereof  1 operations were pure point group operations)
 out of a pool of  2 trial point group operations.


The dynamic configuration has the point symmetry C_1 .


Analysis of structural, dynamic, and magnetic symmetry:
=====================================================================
 Subroutine PRICEL returns:
 Original cell was already a primitive cell.
 

 Routine SETGRP: Setting up the symmetry group for a 
 triclinic supercell.


 Subroutine GETGRP returns: Found  1 space group operations
 (whereof  1 operations were pure point group operations)
 out of a pool of  2 trial point group operations.


The magnetic configuration has the point symmetry C_1 .


 Subroutine INISYM returns: Found  1 space group operations
 (whereof  1 operations are pure point group operations),
 and found     1 'primitive' translations

 
 
 KPOINTS: Automatic mesh                          

Automatic generation of k-mesh.
Space group operators:
 irot       det(A)        alpha          n_x          n_y          n_z        tau_x        tau_y        tau_z
    1     1.000000     0.000000     1.000000     0.000000     0.000000     0.000000     0.000000     0.000000
 
 Subroutine IBZKPT returns following result:
 ===========================================
 
 Found      1 irreducible k-points:
 
 Following reciprocal coordinates:
            Coordinates               Weight
  0.000000  0.000000  0.000000      1.000000
 
 Following cartesian coordinates:
            Coordinates               Weight
  0.000000  0.000000  0.000000      1.000000
 


--------------------------------------------------------------------------------------------------------




 Dimension of arrays:
   k-points           NKPTS =      1   k-points in BZ     NKDIM =      1   number of bands    NBANDS=    432
   number of dos      NEDOS =    301   number of ions     NIONS =    108
   non local maximal  LDIM  =      6   non local SUM 2l+1 LMDIM =     18
   total plane-waves  NPLWV = 458752
   max r-space proj   IRMAX =   7958   max aug-charges    IRDMAX=  25560
   dimension x,y,z NGX =    64 NGY =  112 NGZ =   64
   dimension x,y,z NGXF=   128 NGYF=  224 NGZF=  128
   support grid    NGXF=   128 NGYF=  224 NGZF=  128
   ions per type =              20   7  27  54
   NGX,Y,Z   is equivalent  to a cutoff of  12.10, 12.11, 12.07 a.u.
   NGXF,Y,Z  is equivalent  to a cutoff of  24.20, 24.22, 24.13 a.u.

 SYSTEM =  unknown system                          
 POSCAR =  ce27697_1                               

 Startparameter for this run:
   NWRITE =      1    write-flag & timer
   PREC   = accura    normal or accurate (medium, high low for compatibility)
   ISTART =      0    job   : 0-new  1-cont  2-samecut
   ICHARG =      2    charge: 1-file 2-atom 10-const
   ISPIN  =      2    spin polarized calculation?
   LNONCOLLINEAR =      F non collinear calculations
   LSORBIT =      F    spin-orbit coupling
   INIWAV =      1    electr: 0-lowe 1-rand  2-diag
   LASPH  =      F    aspherical Exc in radial PAW
   METAGGA=      F    non-selfconsistent MetaGGA calc.

 Electronic Relaxation 1
   ENCUT  =  500.0 eV  36.75 Ry    6.06 a.u.  16.03 28.04 16.08*2*pi/ulx,y,z
   ENINI  =  500.0     initial cutoff
   ENAUG  =  628.9 eV  augmentation charge cutoff
   NELM   =     80;   NELMIN=  2; NELMDL= -5     # of ELM steps 
   EDIFF  = 0.1E-04   stopping-criterion for ELM
   LREAL  =      T    real-space projection
   NLSPLINE    = F    spline interpolate recip. space projectors
   LCOMPAT=      F    compatible to vasp.4.4
   GGA_COMPAT  = T    GGA compatible to vasp.4.4-vasp.4.6
   LMAXPAW     = -100 max onsite density
   LMAXMIX     =    2 max onsite mixed and CHGCAR
   VOSKOWN=      1    Vosko Wilk Nusair interpolation
   ROPT   =   -0.00025  -0.00025  -0.00025  -0.00025
 Ionic relaxation
   EDIFFG = -.2E-01   stopping-criterion for IOM
   NSW    =     20    number of steps for IOM
   NBLOCK =      1;   KBLOCK =     20    inner block; outer block 
   IBRION =      1    ionic relax: 0-MD 1-quasi-New 2-CG
   NFREE  =      0    steps in history (QN), initial steepest desc. (CG)
   ISIF   =      3    stress and relaxation
   IWAVPR =     11    prediction:  0-non 1-charg 2-wave 3-comb
   ISYM   =      2    0-nonsym 1-usesym 2-fastsym
   LCORR  =      T    Harris-Foulkes like correction to forces

   POTIM  = 0.5000    time-step for ionic-motion
   TEIN   =    0.0    initial temperature
   TEBEG  =    0.0;   TEEND  =   0.0 temperature during run
   SMASS  =  -3.00    Nose mass-parameter (am)
   estimated Nose-frequenzy (Omega)   =  0.10E-29 period in steps =****** mass=  -0.177E-26a.u.
   SCALEE = 1.0000    scale energy and forces
   NPACO  =    256;   APACO  = 16.0  distance and # of slots for P.C.
   PSTRESS=    0.0 pullay stress

  Mass of Ions in am
   POMASS = 180.95 58.69  7.01 16.00
  Ionic Valenz
   ZVAL   =  11.00 10.00  3.00  6.00
  Atomic Wigner-Seitz radii
   RWIGS  =   1.34  1.15  1.23  0.73
  virtual crystal weights 
   VCA    =   1.00  1.00  1.00  1.00
   NELECT =     695.0000    total number of electrons
   NUPDOWN=      -1.0000    fix difference up-down

 DOS related values:
   EMIN   =  10.00;   EMAX   =-10.00  energy-range for DOS
   EFERMI =   0.00
   ISMEAR =     0;   SIGMA  =   0.05  broadening in eV -4-tet -1-fermi 0-gaus

 Electronic relaxation 2 (details)
   IALGO  =     38    algorithm
   LDIAG  =      T    sub-space diagonalisation (order eigenvalues)
   LSUBROT=      F    optimize rotation matrix (better conditioning)
   TURBO    =      0    0=normal 1=particle mesh
   IRESTART =      0    0=no restart 2=restart with 2 vectors
   NREBOOT  =      0    no. of reboots
   NMIN     =      0    reboot dimension
   EREF     =   0.00    reference energy to select bands
   IMIX   =      4    mixing-type and parameters
     AMIX     =   0.40;   BMIX     =  1.00
     AMIX_MAG =   1.60;   BMIX_MAG =  1.00
     AMIN     =   0.10
     WC   =   100.;   INIMIX=   1;  MIXPRE=   1;  MAXMIX= -45

 Intra band minimization:
   WEIMIN = 0.0010     energy-eigenvalue tresh-hold
   EBREAK =  0.58E-08  absolut break condition
   DEPER  =   0.30     relativ break condition  

   TIME   =   0.40     timestep for ELM

  volume/ion in A,a.u.               =       9.41        63.49
  Fermi-wavevector in a.u.,A,eV,Ry     =   1.442397  2.725735 28.307033  2.080508
  Thomas-Fermi vector in A             =   2.560921
 
 Write flags
   LWAVE        =      F    write WAVECAR
   LDOWNSAMPLE  =      F    k-point downsampling of WAVECAR
   LCHARG       =      T    write CHGCAR
   LVTOT        =      F    write LOCPOT, total local potential
   LVHAR        =      F    write LOCPOT, Hartree potential only
   LELF         =      F    write electronic localiz. function (ELF)
   LORBIT       =      0    0 simple, 1 ext, 2 COOP (PROOUT), +10 PAW based schemes


 Dipole corrections
   LMONO  =      F    monopole corrections only (constant potential shift)
   LDIPOL =      F    correct potential (dipole corrections)
   IDIPOL =      0    1-x, 2-y, 3-z, 4-all directions 
   EPSILON=  1.0000000 bulk dielectric constant

 Exchange correlation treatment:
   GGA     =    PS    GGA type
   LEXCH   =    14    internal setting for exchange type
   VOSKOWN=      1    Vosko Wilk Nusair interpolation
   LHFCALC =     F    Hartree Fock is set to
   LHFONE  =     F    Hartree Fock one center treatment
   AEXX    =    0.0000 exact exchange contribution

 Linear response parameters
   LEPSILON=     F    determine dielectric tensor
   LRPA    =     F    only Hartree local field effects (RPA)
   LNABLA  =     F    use nabla operator in PAW spheres
   LVEL    =     F    velocity operator in full k-point grid
   LINTERFAST=   F  fast interpolation
   KINTER  =     0    interpolate to denser k-point grid
   CSHIFT  =0.1000    complex shift for real part using Kramers Kronig
   OMEGAMAX=  -1.0    maximum frequency
   DEG_THRESHOLD= 0.2000000E-02 threshold for treating states as degnerate
   RTIME   =   -0.100 relaxation time in fs
  (WPLASMAI=    0.000 imaginary part of plasma frequency in eV, 0.658/RTIME)
   DFIELD  = 0.0000000 0.0000000 0.0000000 field for delta impulse in time
 
 Orbital magnetization related:
   ORBITALMAG=     F  switch on orbital magnetization
   LCHIMAG   =     F  perturbation theory with respect to B field
   DQ        =  0.001000  dq finite difference perturbation B field
   LLRAUG    =     F  two centre corrections for induced B field



--------------------------------------------------------------------------------------------------------


 quasi-Newton-method for relaxation of ions
 charge density and potential will be updated during run
 spin polarized calculation
 Variant of blocked Davidson
 Davidson routine will perform the subspace rotation
 perform sub-space diagonalisation
    after iterative eigenvector-optimisation
 modified Broyden-mixing scheme, WC =      100.0
 initial mixing is a Kerker type mixing with AMIX =  0.4000 and BMIX =      1.0000
 Hartree-type preconditioning will be used
 using additional bands           84
 real space projection scheme for non local part
 use partial core corrections
 calculate Harris-corrections to forces 
   (improved forces if not selfconsistent)
 use gradient corrections 
 use of overlap-Matrix (Vanderbilt PP)
 Gauss-broadening in eV      SIGMA  =   0.05


--------------------------------------------------------------------------------------------------------


  energy-cutoff  :      500.00
  volume of cell :     1016.14
      direct lattice vectors                 reciprocal lattice vectors
     8.791982705 -0.032393155  0.126179553     0.114719797  0.000392636 -0.068170756
    -0.057624033 15.377716094 -0.008402104     0.000239158  0.065030075  0.000030528
     4.504729130 -0.020125466  7.580577721    -0.001909259  0.000065542  0.133050811

  length of vectors
     8.792947770 15.377826355  8.818058071     0.133446761  0.065030522  0.133064525


 
 k-points in units of 2pi/SCALE and weight: Automatic mesh                          
   0.00000000  0.00000000  0.00000000       1.000
 
 k-points in reciprocal lattice and weights: Automatic mesh                          
   0.00000000  0.00000000  0.00000000       1.000
 
 position of ions in fractional coordinates (direct lattice) 
   0.99196034  0.99602554  0.99234316
   0.89112026  0.33397259  0.23052523
   0.11303948  0.66318903  0.11553977
   0.33456938  0.99708950  0.99890803
   0.22100707  0.33222928  0.22224812
   0.42632658  0.66892560  0.15683015
   0.67480908  0.00037885  0.00854405
   0.54333260  0.33572029  0.23060991
   0.66101199  0.99640242  0.32583289
   0.55931588  0.33543296  0.56019997
   0.74596086  0.66903880  0.46295603
   0.88212965  0.33397952  0.54891474
   0.34165518  0.99960898  0.34153420
   0.23093586  0.33492910  0.54312117
   0.32526448  0.99605890  0.65809660
   0.23022122  0.33320747  0.89108537
   0.55027379  0.33370442  0.88112234
   0.77928669  0.66988658  0.76323846
   0.00628363  0.00079484  0.67432776
   0.13906517  0.66335224  0.74157312
   0.78438107  0.66486666  0.10229796
   0.99628673  0.99809982  0.33600375
   0.10788187  0.70118846  0.46202726
   0.43758251  0.65735037  0.44054291
   0.45669145  0.66872325  0.77759969
   0.66837711  0.99806418  0.66529502
   0.88756409  0.33382580  0.89136893
   0.99067921  0.49725506  0.99444545
   0.88260722  0.83337567  0.23034866
   0.10242276  0.16078223  0.11985770
   0.34509368  0.50441883  0.97810051
   0.20772336  0.83867767  0.23670683
   0.44546216  0.16608570  0.11293178
   0.67558951  0.50146011  0.99725268
   0.56305773  0.82230039  0.23583635
   0.77942073  0.17148857  0.10375758
   0.66068068  0.50889262  0.33156092
   0.55321446  0.83240080  0.55992410
   0.78867456  0.14705860  0.45064909
   0.00193552  0.50844371  0.34124547
   0.88529041  0.85383347  0.54604022
   0.10781205  0.15976585  0.44053850
   0.32585222  0.50773594  0.34598914
   0.22800689  0.83094860  0.54840538
   0.44587858  0.16398891  0.44208621
   0.34681427  0.50571417  0.66294497
   0.22296963  0.82847077  0.88339201
   0.45605649  0.15927346  0.76906342
   0.66622685  0.50325962  0.66438976
   0.56488310  0.83198765  0.87503370
   0.78218762  0.16519566  0.77366344
   0.99842486  0.50012404  0.66834475
   0.88927489  0.82935591  0.89558176
   0.09754138  0.17427037  0.77980840
   0.02195484  0.73454096  0.99056277
   0.00216545  0.25345046  0.00417073
   0.88945768  0.07635879  0.22111366
   0.88470134  0.59181549  0.23866508
   0.10962969  0.41991718  0.11017772
   0.11432271  0.91824091  0.10180704
   0.33322863  0.73628992  0.00683852
   0.33022321  0.24137715  0.00359087
   0.22780981  0.07304659  0.22021551
   0.24024830  0.57794455  0.18713047
   0.45298614  0.41783308  0.10947284
   0.43995034  0.91765665  0.10450745
   0.65087030  0.73905207  0.00000368
   0.66108347  0.25931064  0.99959233
   0.55383054  0.09360474  0.21872587
   0.55527040  0.58628534  0.21866150
   0.77771640  0.41369820  0.11744710
   0.78050349  0.90327269  0.11047952
   0.66140800  0.74047553  0.33822441
   0.66251958  0.25314702  0.32805716
   0.55601983  0.07630870  0.55416026
   0.55800992  0.58473659  0.57431127
   0.77582528  0.42726041  0.44377738
   0.77285668  0.92289475  0.43508992
   0.98850668  0.74351307  0.31958006
   0.00206371  0.24078722  0.33161153
   0.89451586  0.07470875  0.56458189
   0.87941293  0.58820991  0.55344161
   0.11131761  0.41924607  0.45005100
   0.10883470  0.92083923  0.44731131
   0.32638791  0.76760141  0.31467972
   0.32702128  0.24257815  0.32778545
   0.22296273  0.09204203  0.55271282
   0.23186447  0.57069651  0.56833775
   0.45159697  0.42356245  0.44794145
   0.44482650  0.90461906  0.44779446
   0.33576272  0.74351482  0.67283298
   0.32704973  0.25093897  0.66443243
   0.22863924  0.07833855  0.89285965
   0.18538833  0.58509302  0.90203967
   0.44624751  0.42760833  0.77437025
   0.43674537  0.91896601  0.77976249
   0.70615888  0.76359471  0.64616557
   0.66697611  0.24236657  0.66657284
   0.55241618  0.07632064  0.89816613
   0.56171133  0.59633822  0.89712792
   0.77412883  0.41621101  0.77352318
   0.77764181  0.92157440  0.77959124
   0.99292668  0.75064119  0.69981396
   0.99859000  0.25912399  0.66211909
   0.88619102  0.09317565  0.89043113
   0.89364030  0.59450231  0.86711078
   0.11434005  0.40918383  0.77917574
   0.11342767  0.90297567  0.78070749
 
 position of ions in cartesian coordinates  (Angst):
  13.13414029 15.26449388  7.63933085
   8.85392279  5.10223005  1.85714951
   1.47610089 10.19234562  0.88454929
   7.38388199 15.30201800  7.60613812
   2.92511353  5.09729558  1.70986430
   4.41618707 10.26958162  1.23703646
   5.97137656 -0.01620530  0.14991276
   5.79646044  5.14036992  1.81389305
   7.22197817 15.29442373  2.54503587
   7.42171567  5.12880054  4.31439530
   8.60541378 10.25480749  3.59797784
  10.20913560  5.09622011  4.26959144
   4.48474399 15.35376228  2.62373763
   4.45769788  5.13203330  4.14349752
   5.76686968 15.29333013  5.02142516
   6.01899845  5.09857877  6.78119147
   8.78798572  5.09605373  6.74604586
  10.25105606 10.26072156  5.87849005
   3.09286367 -0.00155188  5.11258018
   4.52501957 10.18141315  5.63352630
   7.31877710 10.19666337  0.86886421
  10.21542704 15.30946056  2.66442742
   2.98939789 10.76988392  3.51015458
   5.79386516 10.08550655  3.38926061
   7.47956477 10.25299305  5.94666133
   8.81582137 15.31290739  5.11927029
  11.79958732  5.08678816  6.86627905
  13.16108803  7.59454224  7.65929649
   8.74950327 12.78218815  1.85054080
   1.43116069  2.46673350  0.92016336
   7.41106888  7.72594616  7.45387252
   2.84427235 12.88545445  1.81353831
   4.41565216  2.53731601  0.91090088
  10.40322833  7.66935655  7.64078371
   5.96538844 12.62211641  1.85191310
   7.31017151  2.60976648  0.88344849
   7.27296080  7.79753188  2.59251195
   7.33819208 12.77123408  4.30735859
   8.95559107  2.22680822  3.51445945
   1.52493689  7.81177260  2.58281003
  10.19401993 13.09034203  4.24383188
   2.92318194  2.44447547  3.35179765
   4.39421665  7.79030056  2.65964740
   4.42716771 12.75966888  4.17901770
   5.90218569  2.49843430  3.40615178
   6.00643129  7.75215245  5.06501768
   5.89204702 12.71498693  6.71779510
   7.46488518  2.41901118  5.88615180
   8.82135100  7.70403122  5.11629398
   8.86028976 12.75816107  6.69754722
  10.35260502  2.49942410  5.96212393
  11.76002700  7.64497262  5.18821803
  11.80505186 12.70676931  6.89426711
   4.36036558  2.66102659  5.92224167
   4.61291633 11.27491562  7.50563663
   0.02322177  3.89733513  0.02976026
   8.81175358  1.14096144  1.78775908
   8.81929762  9.06730907  1.91587791
   1.43598580  6.45159855  0.84551561
   1.41082368 14.11469583  0.77846621
   2.91811804 11.31152540  0.08770019
   2.90558352  3.70106004  0.06686021
   2.99070189  1.11147830  1.69749198
   2.92192748  8.87591872  1.44401554
   4.45171457  6.40844164  0.88351428
   4.28593446 14.09510879  0.84002934
   5.67986984 11.34384909  0.07594483
  10.30018460  3.94607356  7.65872381
   5.84917544  1.41708484  1.72716407
   5.83315446  8.99334188  1.72271824
   7.34289755  6.33417710  0.98497284
   7.30780328 13.86276456  0.92839278
   7.29602786 11.35859046  2.64117104
   7.28808198  3.86475960  2.56833226
   7.38046138  1.14428955  4.27037210
   7.45943539  8.96227929  4.41910764
   8.79551887  6.53622663  3.45839232
   8.70172388 14.15822180  3.38799741
  10.08771102 11.39508036  2.54108374
   1.49808909  3.69601682  2.51204425
  10.40355144  1.10851128  4.39209880
  10.19099279  9.00569977  4.30142887
   2.98190170  6.43438362  3.42217004
   2.91882662 14.14787640  3.39687388
   4.24291147 11.78705075  2.42018809
   4.33777177  3.71310784  2.52402831
   4.44480217  1.39705014  4.21724248
   4.56587019  8.75706002  4.33278999
   5.96388027  6.48977942  3.44907846
   5.87597184 13.88755367  3.44306801
   5.94010603 11.40914232  5.13658200
   5.85404358  3.83490205  5.07594025
   6.02776894  1.17929242  6.79658336
   5.65965995  8.97323507  6.85645803
   7.38708810  6.54559957  5.92288837
   7.29952202 14.10175776  5.95843725
   9.07533612 11.70646356  4.98099533
   8.85280637  3.69202375  5.13512958
   8.89843073  1.13766662  6.87768053
   8.94551116  9.13406912  6.86661391
  10.26665593  6.35973076  5.95793477
  10.29575588 14.13082957  6.00013132
  11.83901156 11.49689900  5.42397419
  11.74732139  3.93906222  5.14306968
  11.79715801  1.38620183  6.86101870
  11.72871163  9.09568890  6.68096472
   4.49167257  6.27292766  5.91759163
   4.46209679 13.86631711  5.92493916
 


--------------------------------------------------------------------------------------------------------


 use serial FFT for orbitals x direction half grid
 k-point  1 :   0.0000 0.0000 0.0000  plane waves:   12887

 maximum and minimum number of plane-waves per node :     12887    12887

 maximum number of plane-waves:     12887
 maximum index in each direction: 
   IXMAX=   16   IYMAX=   28   IZMAX=   16
   IXMIN=    0   IYMIN=  -27   IZMIN=  -13

 The following grids will avoid any aliasing or wrap around errors in the Hartre
 e energy
  - symmetry arguments have not been applied
  - exchange correlation energies might require even more grid points
  - we recommend to set PREC=Normal or Accurate and rely on VASP defaults
 WARNING: aliasing errors must be expected set NGX to    70 to avoid them
 NGY is ok and might be reduce to   112
 NGZ is ok and might be reduce to    60

 serial   3D FFT for wavefunctions
 parallel 3D FFT for charge:
    minimum data exchange during FFTs selected (reduces bandwidth)


 total amount of memory used by VASP MPI-rank0   155124. kBytes
=======================================================================

   base      :      30000. kBytes
   nonlr-proj:      42909. kBytes
   fftplans  :       9702. kBytes
   grid      :      59236. kBytes
   one-center:       1679. kBytes
   wavefun   :      11598. kBytes
 
     INWAV:  cpu time    0.0000: real time    0.0000
 Broyden mixing: mesh for mixing (old mesh)
   NGX = 33   NGY = 57   NGZ = 33
  (NGX  =128   NGY  =224   NGZ  =128)
  gives a total of  62073 points

 initial charge density was supplied:
 charge density of overlapping atoms calculated
 number of electron     695.0000000 magnetization      17.5000000
 keeping initial charge density in first step


--------------------------------------------------------------------------------------------------------


 Maximum index for non-local projection operator         7698
 Maximum index for augmentation-charges         1590 (set IRDMAX)


--------------------------------------------------------------------------------------------------------


 First call to EWALD:  gamma=   0.176
 Maximum number of real-space cells 4x 2x 4
 Maximum number of reciprocal cells 2x 4x 2

    FEWALD:  cpu time    0.0051: real time    0.0052


--------------------------------------- Iteration      1(   1)  ---------------------------------------


    POTLOK:  cpu time    0.2444: real time    0.2692
    SETDIJ:  cpu time    0.0342: real time    0.0342
     EDDAV:  cpu time    4.1963: real time    4.4891
    --------------------------------------------
      LOOP:  cpu time    4.4753: real time    4.7931

 eigenvalue-minimisations  :  1744
 total energy-change (2. order) : 0.1115012E+05  (-0.3716105E+05)
 number of electron     695.0000000 magnetization      17.5000000
 augmentation part      695.0000000 magnetization      17.5000000

 Free energy of the ion-electron system (eV)
  ---------------------------------------------------
  alpha Z        PSCENC =      4092.12161872
  Ewald energy   TEWEN  =    -45213.39838183
  -Hartree energ DENC   =    -12275.19053260
  -exchange      EXHF   =         0.00000000
  -V(xc)+E(xc)   XCENC  =      2590.10071392
  PAW double counting   =     43987.65095644   -44620.13598605
  entropy T*S    EENTRO =        -0.00237851
  eigenvalues    EBANDS =      5409.51034811
  atomic energy  EATOM  =     57179.46551250
  Solvation  Ediel_sol  =         0.00000000
  ---------------------------------------------------
  free energy    TOTEN  =     11150.12187071 eV

  energy without entropy =    11150.12424922  energy(sigma->0) =    11150.12305996


--------------------------------------------------------------------------------------------------------




--------------------------------------- Iteration      1(   2)  ---------------------------------------


     EDDAV:  cpu time    4.3369: real time    4.3472
    --------------------------------------------
      LOOP:  cpu time    4.3367: real time    4.3470

 eigenvalue-minimisations  :  1840
 total energy-change (2. order) :-0.1010059E+05  (-0.9532216E+04)
 number of electron     695.0000000 magnetization      17.5000000
 augmentation part      695.0000000 magnetization      17.5000000

 Free energy of the ion-electron system (eV)
  ---------------------------------------------------
  alpha Z        PSCENC =      4092.12161872
  Ewald energy   TEWEN  =    -45213.39838183
  -Hartree energ DENC   =    -12275.19053260
  -exchange      EXHF   =         0.00000000
  -V(xc)+E(xc)   XCENC  =      2590.10071392
  PAW double counting   =     43987.65095644   -44620.13598605
  entropy T*S    EENTRO =        -0.03086126
  eigenvalues    EBANDS =     -4691.04863132
  atomic energy  EATOM  =     57179.46551250
  Solvation  Ediel_sol  =         0.00000000
  ---------------------------------------------------
  free energy    TOTEN  =      1049.53440852 eV

  energy without entropy =     1049.56526978  energy(sigma->0) =     1049.54983915


--------------------------------------------------------------------------------------------------------




--------------------------------------- Iteration      1(   3)  ---------------------------------------


     EDDAV:  cpu time    4.6118: real time    4.6227
    --------------------------------------------
      LOOP:  cpu time    4.6118: real time    4.6227

 eigenvalue-minimisations  :  2016
 total energy-change (2. order) :-0.1817369E+04  (-0.1696540E+04)
 number of electron     695.0000000 magnetization      17.5000000
 augmentation part      695.0000000 magnetization      17.5000000

 Free energy of the ion-electron system (eV)
  ---------------------------------------------------
  alpha Z        PSCENC =      4092.12161872
  Ewald energy   TEWEN  =    -45213.39838183
  -Hartree energ DENC   =    -12275.19053260
  -exchange      EXHF   =         0.00000000
  -V(xc)+E(xc)   XCENC  =      2590.10071392
  PAW double counting   =     43987.65095644   -44620.13598605
  entropy T*S    EENTRO =        -0.02732009
  eigenvalues    EBANDS =     -6508.42137248
  atomic energy  EATOM  =     57179.46551250
  Solvation  Ediel_sol  =         0.00000000
  ---------------------------------------------------
  free energy    TOTEN  =      -767.83479147 eV

  energy without entropy =     -767.80747137  energy(sigma->0) =     -767.82113142


--------------------------------------------------------------------------------------------------------




--------------------------------------- Iteration      1(   4)  ---------------------------------------


     EDDAV:  cpu time    5.1736: real time    5.1860
    --------------------------------------------
      LOOP:  cpu time    5.1736: real time    5.1860

 eigenvalue-minimisations  :  2288
 total energy-change (2. order) :-0.1965003E+03  (-0.1911938E+03)
 number of electron     695.0000000 magnetization      17.5000000
 augmentation part      695.0000000 magnetization      17.5000000

 Free energy of the ion-electron system (eV)
  ---------------------------------------------------
  alpha Z        PSCENC =      4092.12161872
  Ewald energy   TEWEN  =    -45213.39838183
  -Hartree energ DENC   =    -12275.19053260
  -exchange      EXHF   =         0.00000000
  -V(xc)+E(xc)   XCENC  =      2590.10071392
  PAW double counting   =     43987.65095644   -44620.13598605
  entropy T*S    EENTRO =        -0.05270236
  eigenvalues    EBANDS =     -6704.89632382
  atomic energy  EATOM  =     57179.46551250
  Solvation  Ediel_sol  =         0.00000000
  ---------------------------------------------------
  free energy    TOTEN  =      -964.33512508 eV

  energy without entropy =     -964.28242272  energy(sigma->0) =     -964.30877390


--------------------------------------------------------------------------------------------------------




--------------------------------------- Iteration      1(   5)  ---------------------------------------


     EDDAV:  cpu time    6.7854: real time    6.8015
    CHARGE:  cpu time    0.2373: real time    0.2379
    MIXING:  cpu time    0.0046: real time    0.0046
    --------------------------------------------
      LOOP:  cpu time    7.0270: real time    7.0437

 eigenvalue-minimisations  :  3216
 total energy-change (2. order) :-0.1897778E+02  (-0.1879632E+02)
 number of electron     695.0000066 magnetization      17.3638937
 augmentation part      168.8830224 magnetization      13.8323475

 Broyden mixing:
  rms(total) = 0.13714E+02    rms(broyden)= 0.13713E+02
  rms(prec ) = 0.14527E+02
  weight for this iteration     100.00

 Free energy of the ion-electron system (eV)
  ---------------------------------------------------
  alpha Z        PSCENC =      4092.12161872
  Ewald energy   TEWEN  =    -45213.39838183
  -Hartree energ DENC   =    -12275.19053260
  -exchange      EXHF   =         0.00000000
  -V(xc)+E(xc)   XCENC  =      2590.10071392
  PAW double counting   =     43987.65095644   -44620.13598605
  entropy T*S    EENTRO =        -0.07159977
  eigenvalues    EBANDS =     -6723.85521020
  atomic energy  EATOM  =     57179.46551250
  Solvation  Ediel_sol  =         0.00000000
  ---------------------------------------------------
  free energy    TOTEN  =      -983.31290887 eV

  energy without entropy =     -983.24130909  energy(sigma->0) =     -983.27710898


--------------------------------------------------------------------------------------------------------




--------------------------------------- Iteration      1(   6)  ---------------------------------------


    POTLOK:  cpu time    0.2126: real time    0.2131
    SETDIJ:  cpu time    0.0351: real time    0.0352
     EDDAV:  cpu time    5.6392: real time    5.6525
    CHARGE:  cpu time    0.2296: real time    0.2302
    MIXING:  cpu time    0.0048: real time    0.0048
    --------------------------------------------
      LOOP:  cpu time    6.1213: real time    6.1358

 eigenvalue-minimisations  :  2512
 total energy-change (2. order) : 0.6586984E+01  (-0.1136574E+03)
 number of electron     695.0000066 magnetization      15.5772904
 augmentation part      182.8495216 magnetization      16.2301744

 Broyden mixing:
  rms(total) = 0.15332E+02    rms(broyden)= 0.15331E+02
  rms(prec ) = 0.15936E+02
  weight for this iteration     100.00

 eigenvalues of (default mixing * dielectric matrix)
  average eigenvalue GAMMA=   0.3599
  0.3599

 Free energy of the ion-electron system (eV)
  ---------------------------------------------------
  alpha Z        PSCENC =      4092.12161872
  Ewald energy   TEWEN  =    -45213.39838183
  -Hartree energ DENC   =    -12329.91454826
  -exchange      EXHF   =         0.00000000
  -V(xc)+E(xc)   XCENC  =      2625.38350500
  PAW double counting   =     57996.44634310   -58579.73549913
  entropy T*S    EENTRO =        -0.03566524
  eigenvalues    EBANDS =     -6747.05880951
  atomic energy  EATOM  =     57179.46551250
  Solvation  Ediel_sol  =         0.00000000
  ---------------------------------------------------
  free energy    TOTEN  =      -976.72592465 eV

  energy without entropy =     -976.69025941  energy(sigma->0) =     -976.70809203


--------------------------------------------------------------------------------------------------------




--------------------------------------- Iteration      1(   7)  ---------------------------------------


    POTLOK:  cpu time    0.2099: real time    0.2104
    SETDIJ:  cpu time    0.0352: real time    0.0353
     EDDAV:  cpu time    5.4221: real time    5.4349
    CHARGE:  cpu time    0.2371: real time    0.2376
    MIXING:  cpu time    0.0049: real time    0.0049
    --------------------------------------------
      LOOP:  cpu time    5.9091: real time    5.9232

 eigenvalue-minimisations  :  2448
 total energy-change (2. order) : 0.1066579E+03  (-0.3397526E+02)
 number of electron     695.0000063 magnetization      12.4042888
 augmentation part      176.9647045 magnetization      11.7774619

 Broyden mixing:
  rms(total) = 0.62337E+01    rms(broyden)= 0.62336E+01
  rms(prec ) = 0.66587E+01
  weight for this iteration     100.00

 eigenvalues of (default mixing * dielectric matrix)
  average eigenvalue GAMMA=   0.7543
  0.8924  0.6163

 Free energy of the ion-electron system (eV)
  ---------------------------------------------------
  alpha Z        PSCENC =      4092.12161872
  Ewald energy   TEWEN  =    -45213.39838183
  -Hartree energ DENC   =    -12454.73557426
  -exchange      EXHF   =         0.00000000
  -V(xc)+E(xc)   XCENC  =      2621.22509204
  PAW double counting   =     63026.01600205   -63708.11640046
  entropy T*S    EENTRO =        -0.02766905
  eigenvalues    EBANDS =     -6412.61822655
  atomic energy  EATOM  =     57179.46551250
  Solvation  Ediel_sol  =         0.00000000
  ---------------------------------------------------
  free energy    TOTEN  =      -870.06802682 eV

  energy without entropy =     -870.04035777  energy(sigma->0) =     -870.05419230


--------------------------------------------------------------------------------------------------------




--------------------------------------- Iteration      1(   8)  ---------------------------------------


    POTLOK:  cpu time    0.2110: real time    0.2115
    SETDIJ:  cpu time    0.0352: real time    0.0353
     EDDAV:  cpu time    5.2644: real time    5.2768
    CHARGE:  cpu time    0.2347: real time    0.2353
    MIXING:  cpu time    0.0052: real time    0.0052
    --------------------------------------------
      LOOP:  cpu time    5.7506: real time    5.7641

 eigenvalue-minimisations  :  2352
 total energy-change (2. order) :-0.1362516E+03  (-0.5031653E+02)
 number of electron     695.0000055 magnetization      11.2236870
 augmentation part      147.6328681 magnetization       8.7467170

 Broyden mixing:
  rms(total) = 0.14647E+02    rms(broyden)= 0.14647E+02
  rms(prec ) = 0.18545E+02
  weight for this iteration     100.00

 eigenvalues of (default mixing * dielectric matrix)
  average eigenvalue GAMMA=   0.6427
  1.2435  0.4530  0.2316

 Free energy of the ion-electron system (eV)
  ---------------------------------------------------
  alpha Z        PSCENC =      4092.12161872
  Ewald energy   TEWEN  =    -45213.39838183
  -Hartree energ DENC   =    -12476.47854986
  -exchange      EXHF   =         0.00000000
  -V(xc)+E(xc)   XCENC  =      2614.74112462
  PAW double counting   =     71647.67010804   -72402.61379127
  entropy T*S    EENTRO =        -0.03709353
  eigenvalues    EBANDS =     -6447.79019806
  atomic energy  EATOM  =     57179.46551250
  Solvation  Ediel_sol  =         0.00000000
  ---------------------------------------------------
  free energy    TOTEN  =     -1006.31965068 eV

  energy without entropy =    -1006.28255715  energy(sigma->0) =    -1006.30110391


--------------------------------------------------------------------------------------------------------




--------------------------------------- Iteration      1(   9)  ---------------------------------------


    POTLOK:  cpu time    0.2111: real time    0.2116
    SETDIJ:  cpu time    0.0349: real time    0.0350
     EDDAV:  cpu time    5.2280: real time    5.2404
    CHARGE:  cpu time    0.2350: real time    0.2355
    MIXING:  cpu time    0.0056: real time    0.0056
    --------------------------------------------
      LOOP:  cpu time    5.7146: real time    5.7281

 eigenvalue-minimisations  :  2320
 total energy-change (2. order) : 0.1154526E+03  (-0.1154509E+02)
 number of electron     695.0000079 magnetization      10.1357435
 augmentation part      171.1676931 magnetization       8.9630571

 Broyden mixing:
  rms(total) = 0.77249E+01    rms(broyden)= 0.77246E+01
  rms(prec ) = 0.95668E+01
  weight for this iteration     100.00

 eigenvalues of (default mixing * dielectric matrix)
  average eigenvalue GAMMA=   0.6330
  1.5279  0.4284  0.4284  0.1472

 Free energy of the ion-electron system (eV)
  ---------------------------------------------------
  alpha Z        PSCENC =      4092.12161872
  Ewald energy   TEWEN  =    -45213.39838183
  -Hartree energ DENC   =    -12303.78841203
  -exchange      EXHF   =         0.00000000
  -V(xc)+E(xc)   XCENC  =      2606.95831072
  PAW double counting   =     75071.36994733   -75793.15620099
  entropy T*S    EENTRO =        -0.02324949
  eigenvalues    EBANDS =     -6530.41615385
  atomic energy  EATOM  =     57179.46551250
  Solvation  Ediel_sol  =         0.00000000
  ---------------------------------------------------
  free energy    TOTEN  =      -890.86700892 eV

  energy without entropy =     -890.84375942  energy(sigma->0) =     -890.85538417


--------------------------------------------------------------------------------------------------------




--------------------------------------- Iteration      1(  10)  ---------------------------------------


    POTLOK:  cpu time    0.2113: real time    0.2118
    SETDIJ:  cpu time    0.0351: real time    0.0352
     EDDAV:  cpu time    5.2779: real time    5.2904
    CHARGE:  cpu time    0.2305: real time    0.2310
    MIXING:  cpu time    0.0056: real time    0.0056
    --------------------------------------------
      LOOP:  cpu time    5.7604: real time    5.7740

 eigenvalue-minimisations  :  2384
 total energy-change (2. order) : 0.1198582E+02  (-0.4642129E+01)
 number of electron     695.0000065 magnetization       8.0552238
 augmentation part      176.6569892 magnetization       7.6714119

 Broyden mixing:
  rms(total) = 0.45600E+01    rms(broyden)= 0.45596E+01
  rms(prec ) = 0.52418E+01
  weight for this iteration     100.00

 eigenvalues of (default mixing * dielectric matrix)
  average eigenvalue GAMMA=   0.6367
  1.8262  0.4985  0.4985  0.2302  0.1300

 Free energy of the ion-electron system (eV)
  ---------------------------------------------------
  alpha Z        PSCENC =      4092.12161872
  Ewald energy   TEWEN  =    -45213.39838183
  -Hartree energ DENC   =    -12252.92719866
  -exchange      EXHF   =         0.00000000
  -V(xc)+E(xc)   XCENC  =      2605.26078233
  PAW double counting   =     77544.66364915   -78258.32393537
  entropy T*S    EENTRO =        -0.03944917
  eigenvalues    EBANDS =     -6575.70379085
  atomic energy  EATOM  =     57179.46551250
  Solvation  Ediel_sol  =         0.00000000
  ---------------------------------------------------
  free energy    TOTEN  =      -878.88119317 eV

  energy without entropy =     -878.84174400  energy(sigma->0) =     -878.86146859


--------------------------------------------------------------------------------------------------------




--------------------------------------- Iteration      1(  11)  ---------------------------------------


    POTLOK:  cpu time    0.2096: real time    0.2101
    SETDIJ:  cpu time    0.0348: real time    0.0349
     EDDAV:  cpu time    5.2141: real time    5.2265
    CHARGE:  cpu time    0.2487: real time    0.2493
    MIXING:  cpu time    0.0057: real time    0.0057
    --------------------------------------------
      LOOP:  cpu time    5.7130: real time    5.7265

 eigenvalue-minimisations  :  2304
 total energy-change (2. order) :-0.4746408E+01  (-0.1790952E+02)
 number of electron     695.0000068 magnetization       7.1035909
 augmentation part      170.7622686 magnetization       6.5926699

 Broyden mixing:
  rms(total) = 0.66938E+01    rms(broyden)= 0.66935E+01
  rms(prec ) = 0.82436E+01
  weight for this iteration     100.00

 eigenvalues of (default mixing * dielectric matrix)
  average eigenvalue GAMMA=   0.5846
  1.9530  0.5120  0.5120  0.2018  0.1645  0.1645

 Free energy of the ion-electron system (eV)
  ---------------------------------------------------
  alpha Z        PSCENC =      4092.12161872
  Ewald energy   TEWEN  =    -45213.39838183
  -Hartree energ DENC   =    -12284.43846592
  -exchange      EXHF   =         0.00000000
  -V(xc)+E(xc)   XCENC  =      2607.48317497
  PAW double counting   =     81038.91599384   -81769.58171965
  entropy T*S    EENTRO =        -0.02955891
  eigenvalues    EBANDS =     -6534.16577488
  atomic energy  EATOM  =     57179.46551250
  Solvation  Ediel_sol  =         0.00000000
  ---------------------------------------------------
  free energy    TOTEN  =      -883.62760116 eV

  energy without entropy =     -883.59804225  energy(sigma->0) =     -883.61282171


--------------------------------------------------------------------------------------------------------




--------------------------------------- Iteration      1(  12)  ---------------------------------------


    POTLOK:  cpu time    0.2115: real time    0.2120
    SETDIJ:  cpu time    0.0350: real time    0.0350
     EDDAV:  cpu time    4.9577: real time    4.9694
    CHARGE:  cpu time    0.2383: real time    0.2389
    MIXING:  cpu time    0.0060: real time    0.0060
    --------------------------------------------
      LOOP:  cpu time    5.4485: real time    5.4614

 eigenvalue-minimisations  :  2192
 total energy-change (2. order) : 0.7181165E+01  (-0.2188877E+02)
 number of electron     695.0000061 magnetization       6.5223698
 augmentation part      173.7330031 magnetization       5.7582896

 Broyden mixing:
  rms(total) = 0.39022E+01    rms(broyden)= 0.39019E+01
  rms(prec ) = 0.47421E+01
  weight for this iteration     100.00

 eigenvalues of (default mixing * dielectric matrix)
  average eigenvalue GAMMA=   0.5481
  2.0002  0.5312  0.5312  0.2651  0.2651  0.1309  0.1134

 Free energy of the ion-electron system (eV)
  ---------------------------------------------------
  alpha Z        PSCENC =      4092.12161872
  Ewald energy   TEWEN  =    -45213.39838183
  -Hartree energ DENC   =    -12282.70709253
  -exchange      EXHF   =         0.00000000
  -V(xc)+E(xc)   XCENC  =      2607.80655748
  PAW double counting   =     82506.49003371   -83239.38002891
  entropy T*S    EENTRO =        -0.03462764
  eigenvalues    EBANDS =     -6526.81002751
  atomic energy  EATOM  =     57179.46551250
  Solvation  Ediel_sol  =         0.00000000
  ---------------------------------------------------
  free energy    TOTEN  =      -876.44643601 eV

  energy without entropy =     -876.41180837  energy(sigma->0) =     -876.42912219


--------------------------------------------------------------------------------------------------------




--------------------------------------- Iteration      1(  13)  ---------------------------------------


    POTLOK:  cpu time    0.2105: real time    0.2110
    SETDIJ:  cpu time    0.0352: real time    0.0352
     EDDAV:  cpu time    5.9550: real time    5.9690
    CHARGE:  cpu time    0.2809: real time    0.2816
    MIXING:  cpu time    0.0083: real time    0.0083
    --------------------------------------------
      LOOP:  cpu time    6.4898: real time    6.5051

 eigenvalue-minimisations  :  2368
 total energy-change (2. order) : 0.3323003E+01  (-0.6924585E+01)
 number of electron     695.0000063 magnetization       5.5836558
 augmentation part      174.6794756 magnetization       4.8796518

 Broyden mixing:
  rms(total) = 0.42340E+01    rms(broyden)= 0.42335E+01
  rms(prec ) = 0.53274E+01
  weight for this iteration     100.00

 eigenvalues of (default mixing * dielectric matrix)
  average eigenvalue GAMMA=   0.5450
  2.0627  0.6390  0.6390  0.3296  0.3296  0.1299  0.1151  0.1151

 Free energy of the ion-electron system (eV)
  ---------------------------------------------------
  alpha Z        PSCENC =      4092.12161872
  Ewald energy   TEWEN  =    -45213.39838183
  -Hartree energ DENC   =    -12284.71964137
  -exchange      EXHF   =         0.00000000
  -V(xc)+E(xc)   XCENC  =      2608.06240122
  PAW double counting   =     83142.11997454   -83876.37806643
  entropy T*S    EENTRO =        -0.03021968
  eigenvalues    EBANDS =     -6520.36663037
  atomic energy  EATOM  =     57179.46551250
  Solvation  Ediel_sol  =         0.00000000
  ---------------------------------------------------
  free energy    TOTEN  =      -873.12343270 eV

  energy without entropy =     -873.09321302  energy(sigma->0) =     -873.10832286


--------------------------------------------------------------------------------------------------------




--------------------------------------- Iteration      1(  14)  ---------------------------------------


    POTLOK:  cpu time    0.2558: real time    0.2564
    SETDIJ:  cpu time    0.0572: real time    0.0573
     EDDAV:  cpu time    5.1663: real time    5.1785
    CHARGE:  cpu time    0.2318: real time    0.2323
    MIXING:  cpu time    0.0065: real time    0.0065
    --------------------------------------------
      LOOP:  cpu time    5.7176: real time    5.7311

 eigenvalue-minimisations  :  2272
 total energy-change (2. order) : 0.9913398E-01  (-0.7563823E+01)
 number of electron     695.0000062 magnetization       5.1034036
 augmentation part      174.4882071 magnetization       4.5484839

 Broyden mixing:
  rms(total) = 0.47700E+01    rms(broyden)= 0.47698E+01
  rms(prec ) = 0.58898E+01
  weight for this iteration     100.00

 eigenvalues of (default mixing * dielectric matrix)
  average eigenvalue GAMMA=   0.5145
  2.0809  0.6799  0.6799  0.3398  0.3398  0.1355  0.1355  0.1417  0.0974

 Free energy of the ion-electron system (eV)
  ---------------------------------------------------
  alpha Z        PSCENC =      4092.12161872
  Ewald energy   TEWEN  =    -45213.39838183
  -Hartree energ DENC   =    -12289.70773501
  -exchange      EXHF   =         0.00000000
  -V(xc)+E(xc)   XCENC  =      2608.25246316
  PAW double counting   =     83871.14143547   -84605.90269123
  entropy T*S    EENTRO =        -0.01428275
  eigenvalues    EBANDS =     -6514.98223776
  atomic energy  EATOM  =     57179.46551250
  Solvation  Ediel_sol  =         0.00000000
  ---------------------------------------------------
  free energy    TOTEN  =      -873.02429872 eV

  energy without entropy =     -873.01001597  energy(sigma->0) =     -873.01715735


--------------------------------------------------------------------------------------------------------




--------------------------------------- Iteration      1(  15)  ---------------------------------------


    POTLOK:  cpu time    0.2108: real time    0.2113
    SETDIJ:  cpu time    0.0358: real time    0.0359
     EDDAV:  cpu time    5.3297: real time    5.3423
    CHARGE:  cpu time    0.2358: real time    0.2363
    MIXING:  cpu time    0.0069: real time    0.0069
    --------------------------------------------
      LOOP:  cpu time    5.8189: real time    5.8327

 eigenvalue-minimisations  :  2368
 total energy-change (2. order) : 0.7771776E+01  (-0.3854816E+01)
 number of electron     695.0000062 magnetization       4.7312331
 augmentation part      176.3588644 magnetization       4.4698334

 Broyden mixing:
  rms(total) = 0.27261E+01    rms(broyden)= 0.27257E+01
  rms(prec ) = 0.33373E+01
  weight for this iteration     100.00

 eigenvalues of (default mixing * dielectric matrix)
  average eigenvalue GAMMA=   0.4962
  2.0959  0.6154  0.6154  0.4736  0.4736  0.2106  0.1456  0.1259  0.1259  0.0799

 Free energy of the ion-electron system (eV)
  ---------------------------------------------------
  alpha Z        PSCENC =      4092.12161872
  Ewald energy   TEWEN  =    -45213.39838183
  -Hartree energ DENC   =    -12294.52897896
  -exchange      EXHF   =         0.00000000
  -V(xc)+E(xc)   XCENC  =      2608.45691131
  PAW double counting   =     84159.36853105   -84894.94013593
  entropy T*S    EENTRO =        -0.03606612
  eigenvalues    EBANDS =     -6501.76153345
  atomic energy  EATOM  =     57179.46551250
  Solvation  Ediel_sol  =         0.00000000
  ---------------------------------------------------
  free energy    TOTEN  =      -865.25252270 eV

  energy without entropy =     -865.21645658  energy(sigma->0) =     -865.23448964


--------------------------------------------------------------------------------------------------------




--------------------------------------- Iteration      1(  16)  ---------------------------------------


    POTLOK:  cpu time    0.2233: real time    0.2238
    SETDIJ:  cpu time    0.0354: real time    0.0355
     EDDAV:  cpu time    5.7652: real time    5.7788
    CHARGE:  cpu time    0.2581: real time    0.2587
    MIXING:  cpu time    0.0092: real time    0.0092
    --------------------------------------------
      LOOP:  cpu time    6.2912: real time    6.3061

 eigenvalue-minimisations  :  2448
 total energy-change (2. order) : 0.3363728E+01  (-0.2890500E+00)
 number of electron     695.0000063 magnetization       4.4377962
 augmentation part      176.1529985 magnetization       4.0924319

 Broyden mixing:
  rms(total) = 0.22673E+01    rms(broyden)= 0.22672E+01
  rms(prec ) = 0.28286E+01
  weight for this iteration     100.00

 eigenvalues of (default mixing * dielectric matrix)
  average eigenvalue GAMMA=   0.5087
  2.1132  0.6300  0.6300  0.5969  0.5969  0.2749  0.2749  0.1395  0.1273  0.1273
  0.0848

 Free energy of the ion-electron system (eV)
  ---------------------------------------------------
  alpha Z        PSCENC =      4092.12161872
  Ewald energy   TEWEN  =    -45213.39838183
  -Hartree energ DENC   =    -12302.87358295
  -exchange      EXHF   =         0.00000000
  -V(xc)+E(xc)   XCENC  =      2608.67016089
  PAW double counting   =     84211.50794451   -84948.30370005
  entropy T*S    EENTRO =        -0.02791902
  eigenvalues    EBANDS =     -6489.05044782
  atomic energy  EATOM  =     57179.46551250
  Solvation  Ediel_sol  =         0.00000000
  ---------------------------------------------------
  free energy    TOTEN  =      -861.88879505 eV

  energy without entropy =     -861.86087603  energy(sigma->0) =     -861.87483554


--------------------------------------------------------------------------------------------------------




--------------------------------------- Iteration      1(  17)  ---------------------------------------


    POTLOK:  cpu time    0.2750: real time    0.2757
    SETDIJ:  cpu time    0.0491: real time    0.0492
     EDDAV:  cpu time    6.4142: real time    6.4294
    CHARGE:  cpu time    0.2592: real time    0.2598
    MIXING:  cpu time    0.0120: real time    0.0120
    --------------------------------------------
      LOOP:  cpu time    7.0095: real time    7.0261

 eigenvalue-minimisations  :  2416
 total energy-change (2. order) : 0.8323853E+00  (-0.7918834E+00)
 number of electron     695.0000061 magnetization       4.2100584
 augmentation part      175.4264251 magnetization       3.5565979

 Broyden mixing:
  rms(total) = 0.22931E+01    rms(broyden)= 0.22928E+01
  rms(prec ) = 0.27898E+01
  weight for this iteration     100.00

 eigenvalues of (default mixing * dielectric matrix)
  average eigenvalue GAMMA=   0.4930
  2.1252  0.7064  0.7064  0.6065  0.6065  0.2652  0.2652  0.1281  0.1281  0.1474
  0.1474  0.0837

 Free energy of the ion-electron system (eV)
  ---------------------------------------------------
  alpha Z        PSCENC =      4092.12161872
  Ewald energy   TEWEN  =    -45213.39838183
  -Hartree energ DENC   =    -12307.36547246
  -exchange      EXHF   =         0.00000000
  -V(xc)+E(xc)   XCENC  =      2608.76282958
  PAW double counting   =     84266.85786266   -85003.58931946
  entropy T*S    EENTRO =        -0.05377943
  eigenvalues    EBANDS =     -6483.85727999
  atomic energy  EATOM  =     57179.46551250
  Solvation  Ediel_sol  =         0.00000000
  ---------------------------------------------------
  free energy    TOTEN  =      -861.05640972 eV

  energy without entropy =     -861.00263029  energy(sigma->0) =     -861.02952001


--------------------------------------------------------------------------------------------------------




--------------------------------------- Iteration      1(  18)  ---------------------------------------


    POTLOK:  cpu time    0.2651: real time    0.2658
    SETDIJ:  cpu time    0.0490: real time    0.0491
     EDDAV:  cpu time    5.7638: real time    5.7774
    CHARGE:  cpu time    0.2371: real time    0.2376
    MIXING:  cpu time    0.0076: real time    0.0077
    --------------------------------------------
      LOOP:  cpu time    6.3226: real time    6.3375

 eigenvalue-minimisations  :  2336
 total energy-change (2. order) : 0.8197117E+00  (-0.1004718E+01)
 number of electron     695.0000062 magnetization       4.0293871
 augmentation part      175.3950669 magnetization       3.6763444

 Broyden mixing:
  rms(total) = 0.19898E+01    rms(broyden)= 0.19895E+01
  rms(prec ) = 0.24509E+01
  weight for this iteration     100.00

 eigenvalues of (default mixing * dielectric matrix)
  average eigenvalue GAMMA=   0.4784
  2.1478  0.6349  0.6349  0.6171  0.6171  0.3622  0.3622  0.2259  0.1563  0.1287
  0.1287  0.0842  0.1185

 Free energy of the ion-electron system (eV)
  ---------------------------------------------------
  alpha Z        PSCENC =      4092.12161872
  Ewald energy   TEWEN  =    -45213.39838183
  -Hartree energ DENC   =    -12311.06048024
  -exchange      EXHF   =         0.00000000
  -V(xc)+E(xc)   XCENC  =      2608.85206698
  PAW double counting   =     84306.01035800   -85042.75544551
  entropy T*S    EENTRO =        -0.04247306
  eigenvalues    EBANDS =     -6479.42947359
  atomic energy  EATOM  =     57179.46551250
  Solvation  Ediel_sol  =         0.00000000
  ---------------------------------------------------
  free energy    TOTEN  =      -860.23669803 eV

  energy without entropy =     -860.19422497  energy(sigma->0) =     -860.21546150


--------------------------------------------------------------------------------------------------------




--------------------------------------- Iteration      1(  19)  ---------------------------------------


    POTLOK:  cpu time    0.2095: real time    0.2100
    SETDIJ:  cpu time    0.0349: real time    0.0350
     EDDAV:  cpu time    5.5650: real time    5.5781
    CHARGE:  cpu time    0.2416: real time    0.2421
    MIXING:  cpu time    0.0080: real time    0.0080
    --------------------------------------------
      LOOP:  cpu time    6.0589: real time    6.0732

 eigenvalue-minimisations  :  2496
 total energy-change (2. order) :-0.8127910E-01  (-0.2348577E+00)
 number of electron     695.0000063 magnetization       3.8966321
 augmentation part      175.4712584 magnetization       3.4254139

 Broyden mixing:
  rms(total) = 0.20755E+01    rms(broyden)= 0.20754E+01
  rms(prec ) = 0.26006E+01
  weight for this iteration     100.00

 eigenvalues of (default mixing * dielectric matrix)
  average eigenvalue GAMMA=   0.4567
  2.1542  0.6202  0.6202  0.6201  0.6201  0.3787  0.3787  0.2078  0.2078  0.1266
  0.1266  0.1377  0.0838  0.1110

 Free energy of the ion-electron system (eV)
  ---------------------------------------------------
  alpha Z        PSCENC =      4092.12161872
  Ewald energy   TEWEN  =    -45213.39838183
  -Hartree energ DENC   =    -12312.39600337
  -exchange      EXHF   =         0.00000000
  -V(xc)+E(xc)   XCENC  =      2608.90980314
  PAW double counting   =     84367.49148325   -85103.75548416
  entropy T*S    EENTRO =        -0.04447954
  eigenvalues    EBANDS =     -6478.71204584
  atomic energy  EATOM  =     57179.46551250
  Solvation  Ediel_sol  =         0.00000000
  ---------------------------------------------------
  free energy    TOTEN  =      -860.31797713 eV

  energy without entropy =     -860.27349759  energy(sigma->0) =     -860.29573736


--------------------------------------------------------------------------------------------------------




--------------------------------------- Iteration      1(  20)  ---------------------------------------


    POTLOK:  cpu time    0.2114: real time    0.2119
    SETDIJ:  cpu time    0.0349: real time    0.0350
     EDDAV:  cpu time    5.3791: real time    5.3918
    CHARGE:  cpu time    0.2394: real time    0.2400
    MIXING:  cpu time    0.0086: real time    0.0086
    --------------------------------------------
      LOOP:  cpu time    5.8734: real time    5.8872

 eigenvalue-minimisations  :  2416
 total energy-change (2. order) : 0.2808318E+00  (-0.5475225E-01)
 number of electron     695.0000063 magnetization       3.7997554
 augmentation part      175.1655754 magnetization       3.4622572

 Broyden mixing:
  rms(total) = 0.19521E+01    rms(broyden)= 0.19521E+01
  rms(prec ) = 0.24202E+01
  weight for this iteration     100.00

 eigenvalues of (default mixing * dielectric matrix)
  average eigenvalue GAMMA=   0.4608
  2.1776  0.6381  0.6381  0.5937  0.5937  0.4536  0.4536  0.2766  0.2766  0.1971
  0.1286  0.1286  0.1541  0.0840  0.1186

 Free energy of the ion-electron system (eV)
  ---------------------------------------------------
  alpha Z        PSCENC =      4092.12161872
  Ewald energy   TEWEN  =    -45213.39838183
  -Hartree energ DENC   =    -12313.51506609
  -exchange      EXHF   =         0.00000000
  -V(xc)+E(xc)   XCENC  =      2608.97170173
  PAW double counting   =     84379.35739815   -85115.15645065
  entropy T*S    EENTRO =        -0.05569411
  eigenvalues    EBANDS =     -6477.82778380
  atomic energy  EATOM  =     57179.46551250
  Solvation  Ediel_sol  =         0.00000000
  ---------------------------------------------------
  free energy    TOTEN  =      -860.03714538 eV

  energy without entropy =     -859.98145127  energy(sigma->0) =     -860.00929832


--------------------------------------------------------------------------------------------------------




--------------------------------------- Iteration      1(  21)  ---------------------------------------


    POTLOK:  cpu time    0.2128: real time    0.2133
    SETDIJ:  cpu time    0.0353: real time    0.0354
     EDDAV:  cpu time    5.4229: real time    5.4357
    CHARGE:  cpu time    0.2356: real time    0.2362
    MIXING:  cpu time    0.0087: real time    0.0087
    --------------------------------------------
      LOOP:  cpu time    5.9153: real time    5.9293

 eigenvalue-minimisations  :  2432
 total energy-change (2. order) : 0.3491427E-01  (-0.1474272E-01)
[...]
      3.11227     -0.01259      5.13055         0.033117      0.117792      0.018752
      4.51662     10.20504      5.57546         0.158792     -0.118807     -0.172338
      7.34103     10.22466      0.85963         0.130913     -0.033646     -0.140517
     10.20469     15.35523      2.66341        -0.002543      0.022417     -0.007422
      3.09366     10.78258      3.48160         0.173657     -0.057640      0.010508
      5.76760      9.98666      3.40527        -0.184310     -0.272096      0.067348
      7.52038     10.13616      5.96659         0.127568     -0.207712      0.047457
      8.81154     15.35533      5.12226         0.003605      0.035098      0.002664
     11.82628      5.05467      6.89484         0.007437     -0.018822      0.004060
     13.18885      7.54504      7.65632         0.012821     -0.035926     -0.034837
      8.73236     12.81981      1.83907         0.007683      0.049739     -0.011923
      1.42674      2.48248      0.90887        -0.011461      0.014896     -0.010239
      7.45454      7.75397      7.52277         0.034252     -0.026795      0.060526
      2.80135     12.94245      1.77209        -0.014119     -0.010671     -0.007590
      4.41690      2.53332      0.91163         0.005630     -0.002284     -0.002482
     10.39420      7.67589      7.64722        -0.019287     -0.008525      0.010587
      5.96070     12.65754      1.85177        -0.005733      0.009866     -0.003473
      7.31982      2.60251      0.90242         0.007073      0.000349      0.006147
      7.31291      7.76951      2.59492         0.027702     -0.047448     -0.015893
      7.32610     12.79631      4.31618        -0.058220      0.042344      0.014194
      8.99014      2.22214      3.56125         0.016630      0.003336      0.021120
      1.52269      7.83953      2.60538         0.021671      0.025966      0.024804
     10.15865     13.14697      4.25745        -0.007302      0.020224     -0.012027
      2.93998      2.44601      3.35025         0.006026      0.001531     -0.002557
      4.37106      7.79264      2.66168        -0.023630     -0.004998      0.009502
      4.42990     12.80314      4.15372         0.008270      0.017040     -0.020880
      5.91364      2.50459      3.41692         0.000066      0.012693     -0.002074
      6.01944      7.71548      5.10140        -0.031765     -0.028959      0.020807
      5.88501     12.72225      6.68780         0.010607     -0.003272     -0.042033
      7.49336      2.39922      5.91367         0.013928     -0.008260      0.006938
      8.85354      7.69446      5.12490         0.003959      0.000963      0.000928
      8.89123     12.79945      6.72328        -0.010221      0.039449      0.033114
     10.36868      2.47742      5.99431        -0.001621      0.000504      0.009757
     11.76090      7.65176      5.19791         0.003340     -0.033743      0.019716
     11.82815     12.72725      6.92454         0.040068      0.008952      0.017752
      4.36386      2.65284      5.92298        -0.012000      0.008104     -0.012779
      4.58455     11.31398      7.46269        -0.076546      0.034976     -0.017635
      0.01759      3.92437      0.02314         0.015444      0.027851      0.011297
      8.83265      1.12927      1.80632        -0.004880     -0.026473     -0.006694
      8.90413      9.00527      2.01492         0.346660     -0.249953      0.258280
      1.44115      6.44746      0.83124         0.013524     -0.047189      0.003685
      1.39585     14.17586      0.74539        -0.000252     -0.004936     -0.018252
      2.87899     11.30302      0.08845        -0.059166     -0.066397      0.032356
      2.90168      3.71537      0.06615        -0.000750      0.030187     -0.003912
      3.00402      1.10059      1.70605         0.016158     -0.038225     -0.003024
      2.87433      8.97138      1.46194        -0.028510      0.103797      0.017641
      4.44907      6.43031      0.87092         0.010480     -0.036330      0.005889
      4.26539     14.15753      0.81206        -0.019880     -0.008730     -0.006818
      5.59175     11.44738      0.03197        -0.399336      0.278913     -0.092806
     10.31917      3.93683      7.68330        -0.016445      0.034047     -0.000893
      5.87255      1.41135      1.74788         0.000007     -0.076709      0.000901
      5.80882      8.99128      1.70083         0.084391      0.122595     -0.104125
      7.35405      6.32703      0.99586         0.017409     -0.030622      0.020906
      7.29786     13.90144      0.91622        -0.001060     -0.005720     -0.008059
      7.33762     11.41210      2.61820        -0.026709      0.355405     -0.044091
      7.28917      3.87625      2.57734        -0.009778      0.047270     -0.002735
      7.40461      1.12962      4.29602        -0.005157     -0.022076     -0.009396
      7.45444      8.95276      4.40619         0.048727      0.058499     -0.103059
      8.81297      6.54100      3.48118         0.018101     -0.045125      0.021453
      8.69312     14.19365      3.37868        -0.004440     -0.001326     -0.014551
     10.07975     11.38627      2.52199        -0.040560     -0.035523     -0.014918
      1.49794      3.71063      2.50308        -0.002469      0.023788     -0.007214
     10.43504      1.08999      4.42873         0.015020     -0.029585      0.025164
     10.20912      9.10057      4.34069        -0.177175      0.439551      0.265995
      2.97463      6.44528      3.42865        -0.007070     -0.035896      0.009404
      2.89848     14.20522      3.37034        -0.015407     -0.014949     -0.007735
      4.23340     11.84734      2.38962         0.011069      0.055111     -0.023107
      4.33912      3.70033      2.52957        -0.005786      0.027114     -0.008049
      4.46311      1.39427      4.23538        -0.000193     -0.078787      0.002625
      4.52287      8.68798      4.37254        -0.083789      0.003142      0.117224
      5.98187      6.44818      3.46224         0.015777     -0.064857      0.007921
      5.87587     13.92340      3.43527         0.005665      0.012465     -0.005790
      5.96930     11.39619      5.11026         0.012533      0.046835      0.019795
      5.85979      3.84527      5.07989        -0.007496      0.041431     -0.009452
      6.05707      1.16799      6.81811         0.023130     -0.048486      0.009005
      5.65703      8.98829      6.83007        -0.005502      0.060066     -0.034622
      7.40321      6.55113      5.95191         0.007652     -0.036669      0.014408
      7.29789     14.13246      5.95034         0.018735      0.016110     -0.013274
      9.10490     11.70628      4.95924         0.141372     -0.361704     -0.150957
      8.86839      3.64746      5.15268        -0.003477      0.004043     -0.004711
      8.93680      1.12957      6.92177         0.000546     -0.035605      0.038897
      8.98969      9.10797      6.92807         0.047832     -0.000128      0.030052
     10.28185      6.35892      5.97077        -0.014426     -0.009411     -0.012544
     10.28569     14.16968      6.00231        -0.023870     -0.029928     -0.017377
     11.81439     11.48733      5.43557        -0.011145      0.048254      0.037086
     11.76497      3.92522      5.16598        -0.006139      0.028231     -0.017491
     11.83331      1.36884      6.89958        -0.000634     -0.083727      0.006196
     11.73640      9.13395      6.71186         0.020239     -0.025360     -0.037452
      4.51330      6.24796      5.93457         0.024624     -0.052219      0.010790
      4.46124     13.90009      5.90688         0.000655      0.001244     -0.011351
 -----------------------------------------------------------------------------------
    total drift:                                0.003847     -0.031080     -0.028761


--------------------------------------------------------------------------------------------------------



  FREE ENERGIE OF THE ION-ELECTRON SYSTEM (eV)
  ---------------------------------------------------
  free  energy   TOTEN  =      -859.5190600852 eV

  energy  without entropy=     -859.4826045613  energy(sigma->0) =     -859.50083232
 
 d Force = 0.6231595E-01[ 0.613E-01, 0.634E-01]  d Energy = 0.6575701E-01-0.344E-02
 d Force = 0.9094285E+01[ 0.884E+01, 0.935E+01]  d Ewald  =-0.2179754E+02 0.309E+02


--------------------------------------------------------------------------------------------------------


    POTLOK:  cpu time    0.3260: real time    0.3268


--------------------------------------------------------------------------------------------------------


 Quasi-Newton relaxation of ions (Broydens 2nd method)
  g(Force)  = 0.978E-01   g(Stress)= 0.507E-02

 retain information from N=  1 steps
 eigenvalues of (default step * inverse Hessian matrix)
  average eigenvalue of G=   0.4580
 eigenvalue spectrum of G is  0.4580


--------------------------------------------------------------------------------------------------------


     LOOP+:  cpu time  202.3786: real time  203.1353
    4ORBIT:  cpu time    0.0000: real time    0.0000

volume of typ            1:    19.7 %

volume of typ            2:     4.4 %

volume of typ            3:    20.6 %

volume of typ            4:     8.6 %
 
total charge     
 
# of ion       s       p       d       tot
------------------------------------------
    1        0.225   6.070   2.241   8.537
    2        0.234   6.088   2.142   8.463
    3        0.285   6.181   1.959   8.425
    4        0.273   6.155   1.953   8.381
    5        0.220   6.056   2.262   8.539
    6        0.270   6.135   2.027   8.432
    7        0.227   6.076   2.237   8.540
    8        0.242   6.099   2.141   8.482
    9        0.238   6.087   2.178   8.504
   10        0.224   6.062   2.279   8.564
   11        0.275   6.156   2.021   8.452
   12        0.231   6.076   2.199   8.506
   13        0.224   6.072   2.234   8.530
   14        0.238   6.095   2.137   8.470
   15        0.227   6.074   2.243   8.543
   16        0.235   6.090   2.147   8.472
   17        0.232   6.078   2.196   8.506
   18        0.275   6.163   1.992   8.430
   19        0.238   6.088   2.176   8.502
   20        0.277   6.147   2.038   8.462
   21        0.178   0.187   8.091   8.456
   22        0.201   0.223   7.965   8.389
   23        0.210   0.216   8.146   8.572
   24        0.208   0.215   8.109   8.532
   25        0.208   0.212   8.077   8.498
   26        0.198   0.217   7.972   8.387
   27        0.200   0.216   8.001   8.417
   28        2.073   0.240   0.091   2.404
   29        2.078   0.262   0.101   2.441
   30        2.079   0.259   0.104   2.442
   31        2.084   0.274   0.110   2.468
   32        2.086   0.281   0.112   2.479
   33        2.086   0.287   0.118   2.491
   34        2.070   0.235   0.090   2.395
   35        2.086   0.284   0.114   2.484
   36        2.078   0.259   0.104   2.441
   37        2.074   0.252   0.098   2.424
   38        2.075   0.254   0.097   2.425
   39        2.077   0.252   0.099   2.428
   40        2.077   0.263   0.104   2.444
   41        2.097   0.307   0.124   2.528
   42        2.081   0.270   0.109   2.459
   43        2.079   0.265   0.103   2.446
   44        2.085   0.285   0.114   2.484
   45        2.083   0.276   0.114   2.474
   46        2.097   0.315   0.132   2.543
   47        2.079   0.268   0.104   2.450
   48        2.076   0.251   0.100   2.428
   49        2.090   0.298   0.121   2.509
   50        2.071   0.239   0.091   2.400
   51        2.075   0.249   0.098   2.421
   52        2.078   0.259   0.101   2.438
   53        2.087   0.287   0.119   2.493
   54        2.077   0.254   0.102   2.433
   55        1.247   2.848   0.006   4.102
   56        1.244   2.835   0.005   4.084
   57        1.243   2.837   0.005   4.085
   58        1.251   2.856   0.006   4.113
   59        1.247   2.834   0.007   4.087
   60        1.245   2.838   0.005   4.088
   61        1.249   2.841   0.005   4.095
   62        1.245   2.832   0.006   4.083
   63        1.246   2.844   0.005   4.095
   64        1.247   2.856   0.004   4.108
   65        1.246   2.839   0.006   4.091
   66        1.247   2.844   0.006   4.097
   67        1.249   2.854   0.005   4.109
   68        1.243   2.840   0.005   4.088
   69        1.243   2.844   0.006   4.093
   70        1.249   2.828   0.006   4.083
   71        1.241   2.836   0.005   4.081
   72        1.241   2.847   0.006   4.094
   73        1.255   2.827   0.006   4.087
   74        1.246   2.844   0.006   4.096
   75        1.242   2.839   0.005   4.086
   76        1.254   2.838   0.007   4.099
   77        1.245   2.836   0.006   4.088
   78        1.242   2.835   0.005   4.081
   79        1.252   2.847   0.005   4.105
   80        1.244   2.836   0.006   4.085
   81        1.241   2.833   0.004   4.079
   82        1.251   2.834   0.005   4.090
   83        1.243   2.845   0.006   4.094
   84        1.242   2.844   0.005   4.091
   85        1.250   2.850   0.007   4.108
   86        1.246   2.836   0.007   4.089
   87        1.244   2.841   0.006   4.091
   88        1.251   2.846   0.005   4.103
   89        1.245   2.844   0.006   4.096
   90        1.243   2.849   0.006   4.099
   91        1.256   2.815   0.005   4.077
   92        1.244   2.843   0.006   4.093
   93        1.245   2.843   0.006   4.094
   94        1.250   2.854   0.005   4.108
   95        1.243   2.846   0.006   4.094
   96        1.245   2.840   0.005   4.091
   97        1.251   2.847   0.005   4.103
   98        1.244   2.835   0.006   4.085
   99        1.246   2.841   0.005   4.093
  100        1.249   2.843   0.005   4.098
  101        1.244   2.831   0.005   4.080
  102        1.243   2.841   0.005   4.089
  103        1.249   2.861   0.008   4.118
  104        1.243   2.839   0.005   4.087
  105        1.242   2.845   0.006   4.093
  106        1.244   2.851   0.005   4.100
  107        1.243   2.838   0.005   4.086
  108        1.243   2.843   0.006   4.092
--------------------------------------------------
tot         129.75  284.19  102.34  516.29
 
magnetization (x)
 
# of ion       s       p       d       tot
------------------------------------------
    1       -0.000  -0.000   0.009   0.009
    2        0.001   0.001   0.037   0.038
    3        0.000   0.000   0.017   0.018
    4       -0.000  -0.001  -0.020  -0.021
    5       -0.000   0.000   0.000   0.001
    6        0.001   0.001   0.026   0.028
    7       -0.000   0.000   0.011   0.011
    8        0.001   0.001   0.047   0.049
    9       -0.000  -0.000  -0.004  -0.004
   10        0.000   0.000   0.008   0.009
   11        0.001   0.001   0.043   0.045
   12        0.001   0.001   0.039   0.040
   13       -0.000   0.000   0.007   0.007
   14        0.001   0.001   0.042   0.043
   15       -0.000  -0.000   0.011   0.011
   16        0.001   0.001   0.050   0.051
   17        0.001   0.001   0.037   0.038
   18        0.001   0.001   0.043   0.045
   19       -0.000  -0.000  -0.004  -0.005
   20        0.001   0.000   0.010   0.011
   21        0.001  -0.001  -0.819  -0.819
   22        0.002   0.001   1.394   1.396
   23       -0.000   0.000   0.026   0.027
   24        0.001  -0.000  -0.515  -0.515
   25       -0.000  -0.001  -0.718  -0.718
   26        0.002   0.001   1.357   1.359
   27       -0.003  -0.001  -1.300  -1.304
   28        0.000   0.001   0.000   0.001
   29        0.001   0.002   0.000   0.003
   30       -0.001  -0.001  -0.000  -0.002
   31        0.000   0.000   0.000   0.001
   32       -0.000  -0.001  -0.000  -0.001
   33        0.001   0.001   0.000   0.002
   34        0.000  -0.001  -0.000  -0.001
   35        0.000   0.000   0.000   0.001
   36        0.001   0.002   0.000   0.003
   37       -0.001  -0.002  -0.001  -0.004
   38        0.001   0.001   0.000   0.002
   39       -0.000  -0.001  -0.000  -0.002
   40        0.000   0.000   0.000   0.001
   41        0.000  -0.001  -0.000  -0.001
   42        0.000   0.001   0.000   0.002
   43       -0.000  -0.001  -0.000  -0.001
   44        0.001   0.001   0.000   0.002
   45        0.001   0.001   0.001   0.003
   46       -0.000  -0.001  -0.000  -0.002
   47        0.002   0.002   0.000   0.003
   48       -0.000  -0.000  -0.000  -0.001
   49       -0.000  -0.001  -0.000  -0.002
   50       -0.000   0.000   0.000   0.000
   51        0.001   0.002   0.001   0.004
   52       -0.001  -0.002  -0.001  -0.004
   53        0.001   0.001   0.001   0.003
   54        0.000   0.000   0.000   0.001
   55       -0.002  -0.022  -0.000  -0.024
   56       -0.003  -0.034   0.000  -0.037
   57        0.004   0.055   0.000   0.059
   58        0.001  -0.000   0.000   0.000
   59        0.000   0.001   0.000   0.002
   60        0.004   0.037   0.000   0.040
   61       -0.003  -0.021  -0.000  -0.023
   62        0.000   0.001   0.000   0.001
   63        0.004   0.036   0.000   0.040
   64        0.000   0.001   0.000   0.002
   65        0.000   0.001   0.000   0.001
   66        0.000  -0.000   0.000  -0.000
   67        0.000  -0.004   0.000  -0.004
   68       -0.004  -0.042  -0.000  -0.046
   69       -0.000   0.001   0.000   0.001
   70       -0.003  -0.042  -0.000  -0.045
   71       -0.004  -0.041  -0.000  -0.045
   72        0.000   0.002   0.000   0.002
   73       -0.002  -0.028  -0.000  -0.030
   74        0.000   0.001   0.000   0.001
   75        0.004   0.052   0.000   0.056
   76       -0.002  -0.029  -0.000  -0.032
   77       -0.000   0.001   0.000   0.001
   78        0.008   0.100   0.000   0.109
   79       -0.000  -0.002   0.000  -0.002
   80        0.000   0.000   0.000   0.000
   81        0.009   0.104   0.000   0.113
   82        0.000   0.003   0.000   0.003
   83        0.000   0.001   0.000   0.001
   84        0.004   0.053   0.000   0.057
   85        0.001   0.005   0.000   0.006
   86        0.000   0.004   0.000   0.005
   87        0.000   0.001   0.000   0.001
   88       -0.002  -0.026  -0.000  -0.028
   89       -0.000  -0.001   0.000  -0.001
   90        0.000   0.001   0.000   0.001
   91       -0.003  -0.039  -0.000  -0.041
   92        0.000  -0.000   0.000  -0.000
   93       -0.000  -0.001  -0.000  -0.001
   94       -0.000  -0.003   0.000  -0.003
   95        0.000   0.001   0.000   0.001
   96        0.004   0.036   0.000   0.039
   97        0.001   0.011   0.000   0.011
   98        0.000   0.004   0.000   0.005
   99        0.003   0.032   0.000   0.035
  100       -0.003  -0.032  -0.000  -0.035
  101       -0.003  -0.033   0.000  -0.036
  102        0.004   0.054   0.000   0.059
  103        0.000   0.000   0.000   0.000
  104       -0.004  -0.041  -0.000  -0.046
  105        0.000   0.002   0.000   0.002
  106       -0.003  -0.025  -0.000  -0.029
  107       -0.004  -0.045  -0.000  -0.049
  108       -0.000   0.001   0.000   0.001
--------------------------------------------------
tot           0.02    0.10   -0.16   -0.04
 

 total amount of memory used by VASP MPI-rank0   155124. kBytes
=======================================================================

   base      :      30000. kBytes
   nonlr-proj:      42909. kBytes
   fftplans  :       9702. kBytes
   grid      :      59236. kBytes
   one-center:       1679. kBytes
   wavefun   :      11598. kBytes
 
  
  
 General timing and accounting informations for this job:
 ========================================================
  
                  Total CPU time used (sec):     3577.614
                            User time (sec):     3560.175
                          System time (sec):       17.439
                         Elapsed time (sec):     3594.635
  
                   Maximum memory used (kb):      229396.
                   Average memory used (kb):           0.
  
                          Minor page faults:        41575
                          Major page faults:           53
                 Voluntary context switches:         1392
