 vasp.5.4.4.18Apr17-6-g9f103f2a35 (build May 12 2020 05:39:39) gamma-only       
  
 MD_VERSION_INFO: Compiled 2020-05-12T12:39:39-UTC in devlin.sd.materialsdesign.
 com:/home/medea2/data/build/wwolf/vasp-gpu5.4.4/13047/x86_64/src/src/build/gam 
 from svn 13047
 
 This VASP executable licensed from Materials Design, Inc.
 
 executed on                        Lin64 date 2023.04.04  02:22:48
 running on   16 total cores
 distrk:  each k-point on   16 cores,    1 groups
 distr:  one band on NCORES_PER_BAND=   1 cores,   16 groups


--------------------------------------------------------------------------------------------------------


 INCAR:
 POTCAR:    PAW_PBE Ta_pv 07Sep2000               
 POTCAR:    PAW_PBE Ni 02Aug2007                  
 POTCAR:    PAW_PBE Li_sv 10Sep2004               
 POTCAR:    PAW_PBE O 08Apr2002                   

 ----------------------------------------------------------------------------- 
|                                                                             |
|           W    W    AA    RRRRR   N    N  II  N    N   GGGG   !!!           |
|           W    W   A  A   R    R  NN   N  II  NN   N  G    G  !!!           |
|           W    W  A    A  R    R  N N  N  II  N N  N  G       !!!           |
|           W WW W  AAAAAA  RRRRR   N  N N  II  N  N N  G  GGG   !            |
|           WW  WW  A    A  R   R   N   NN  II  N   NN  G    G                |
|           W    W  A    A  R    R  N    N  II  N    N   GGGG   !!!           |
|                                                                             |
|      For optimal performance we recommend to set                            |
|        NCORE= 4 - approx SQRT( number of cores)                             |
|      NCORE specifies how many cores store one orbital (NPAR=cpu/NCORE).     |
|      This setting can  greatly improve the performance of VASP for DFT.     |
|      The default,   NCORE=1            might be grossly inefficient         |
|      on modern multi-core architectures or massively parallel machines.     |
|      Do your own testing !!!!                                               |
|      Unfortunately you need to use the default for GW and RPA calculations. |
|      (for HF NCORE is supported but not extensively tested yet)             |
|                                                                             |
 ----------------------------------------------------------------------------- 

 POTCAR:    PAW_PBE Ta_pv 07Sep2000               
  local pseudopotential read in
  partial core-charges read in
  partial kinetic energy density read in
  atomic valenz-charges read in
  non local Contribution for L=           1  read in
    real space projection operators read in
  non local Contribution for L=           1  read in
    real space projection operators read in
  non local Contribution for L=           2  read in
    real space projection operators read in
  non local Contribution for L=           2  read in
    real space projection operators read in
  non local Contribution for L=           0  read in
    real space projection operators read in
  non local Contribution for L=           0  read in
    real space projection operators read in
    PAW grid and wavefunctions read in
 
   number of l-projection  operators is LMAX  =           6
   number of lm-projection operators is LMMAX =          18
 
 POTCAR:    PAW_PBE Ni 02Aug2007                  
  local pseudopotential read in
  partial core-charges read in
  partial kinetic energy density read in
  atomic valenz-charges read in
  non local Contribution for L=           2  read in
    real space projection operators read in
  non local Contribution for L=           2  read in
    real space projection operators read in
  non local Contribution for L=           0  read in
    real space projection operators read in
  non local Contribution for L=           0  read in
    real space projection operators read in
  non local Contribution for L=           1  read in
    real space projection operators read in
  non local Contribution for L=           1  read in
    real space projection operators read in
    PAW grid and wavefunctions read in
 
   number of l-projection  operators is LMAX  =           6
   number of lm-projection operators is LMMAX =          18
 
 POTCAR:    PAW_PBE Li_sv 10Sep2004               
  local pseudopotential read in
  atomic valenz-charges read in
  non local Contribution for L=           0  read in
    real space projection operators read in
  non local Contribution for L=           0  read in
    real space projection operators read in
  non local Contribution for L=           1  read in
    real space projection operators read in
    PAW grid and wavefunctions read in
 
   number of l-projection  operators is LMAX  =           3
   number of lm-projection operators is LMMAX =           5
 
 POTCAR:    PAW_PBE O 08Apr2002                   
  local pseudopotential read in
  partial core-charges read in
  partial kinetic energy density read in
  kinetic energy density of atom read in
  atomic valenz-charges read in
  non local Contribution for L=           0  read in
    real space projection operators read in
  non local Contribution for L=           0  read in
    real space projection operators read in
  non local Contribution for L=           1  read in
    real space projection operators read in
  non local Contribution for L=           1  read in
    real space projection operators read in
    PAW grid and wavefunctions read in
 
   number of l-projection  operators is LMAX  =           4
   number of lm-projection operators is LMMAX =           8
 
 Optimization of the real space projectors (new method)

 maximal supplied QI-value         = 15.12
 optimisation between [QCUT,QGAM] = [ 11.34, 22.83] = [ 36.00,145.93] Ry 
 Optimized for a Real-space Cutoff    1.61 Angstroem

   l    n(q)    QCUT    max X(q) W(low)/X(q) W(high)/X(q)  e(spline) 
   1     11    11.338     4.092    0.40E-05    0.64E-05    0.47E-07
   1     11    11.338     4.834    0.13E-04    0.44E-04    0.21E-06
   2     10    11.338    62.294    0.15E-03    0.31E-03    0.77E-06
   2     10    11.338    50.966    0.15E-03    0.31E-03    0.77E-06
   0     11    11.338   103.792    0.33E-04    0.19E-04    0.90E-07
   0     11    11.338    56.335    0.26E-04    0.17E-04    0.79E-07
 Optimization of the real space projectors (new method)

 maximal supplied QI-value         = 16.25
 optimisation between [QCUT,QGAM] = [ 11.38, 22.75] = [ 36.24,144.96] Ry 
 Optimized for a Real-space Cutoff    1.47 Angstroem

   l    n(q)    QCUT    max X(q) W(low)/X(q) W(high)/X(q)  e(spline) 
   2      9    11.376    60.317    0.17E-03    0.16E-04    0.16E-06
   2      9    11.376    55.921    0.17E-03    0.16E-04    0.17E-06
   0     10    11.376    51.690    0.45E-04    0.60E-04    0.21E-06
   0     10    11.376    30.015    0.37E-04    0.55E-04    0.19E-06
   1     10    11.376    18.849    0.83E-04    0.11E-03    0.92E-07
   1     10    11.376    14.624    0.69E-04    0.92E-04    0.82E-07
 Optimization of the real space projectors (new method)

 maximal supplied QI-value         = 22.11
 optimisation between [QCUT,QGAM] = [ 11.28, 22.77] = [ 35.61,145.23] Ry 
 Optimized for a Real-space Cutoff    1.10 Angstroem

   l    n(q)    QCUT    max X(q) W(low)/X(q) W(high)/X(q)  e(spline) 
   0      7    11.276    10.506    0.54E-04    0.58E-04    0.16E-07
   0      7    11.276     8.367    0.11E-03    0.14E-03    0.35E-07
   1      7    11.276     8.983    0.23E-03    0.43E-03    0.86E-07
 Optimization of the real space projectors (new method)

 maximal supplied QI-value         = 24.76
 optimisation between [QCUT,QGAM] = [ 11.39, 22.77] = [ 36.31,145.25] Ry 
 Optimized for a Real-space Cutoff    1.10 Angstroem

   l    n(q)    QCUT    max X(q) W(low)/X(q) W(high)/X(q)  e(spline) 
   0      7    11.387    20.381    0.22E-03    0.48E-03    0.18E-06
   0      7    11.387    15.268    0.22E-03    0.52E-03    0.19E-06
   1      7    11.387     5.964    0.22E-03    0.73E-03    0.24E-06
   1      7    11.387     5.382    0.19E-03    0.60E-03    0.21E-06

 ----------------------------------------------------------------------------- 
|                                                                             |
|  ADVICE TO THIS USER RUNNING 'VASP/VAMP'   (HEAR YOUR MASTER'S VOICE ...):  |
|                                                                             |
|      You enforced a specific xc-type in the INCAR file,                     |
|      a different type was found on the POTCAR file                          |
|          I HOPE YOU KNOW, WHAT YOU ARE  DOING                               |
|                                                                             |
 ----------------------------------------------------------------------------- 

  PAW_PBE Ta_pv 07Sep2000               :
 energy of atom  1       EATOM=-1047.1984
 kinetic energy error for atom=    0.0019 (will be added to EATOM!!)
  PAW_PBE Ni 02Aug2007                  :
 energy of atom  2       EATOM=-1077.6739
 kinetic energy error for atom=    0.0030 (will be added to EATOM!!)
  PAW_PBE Li_sv 10Sep2004               :
 energy of atom  3       EATOM= -202.7858
 kinetic energy error for atom=    0.0143 (will be added to EATOM!!)
  PAW_PBE O 08Apr2002                   :
 energy of atom  4       EATOM= -432.3788
 kinetic energy error for atom=    0.0224 (will be added to EATOM!!)
 
 
 POSCAR: ce120559_1                              
  positions in direct lattice
  No initial velocities read in
 exchange correlation table for  LEXCH =       14
   RHO(1)=    0.500       N(1)  =     2000
   RHO(2)=  100.500       N(2)  =     4000
 


--------------------------------------------------------------------------------------------------------


 ion  position               nearest neighbor table
   1  1.000  1.000  0.988-  60 2.10  57 2.11  72 2.13  93 2.15 108 2.16 105 2.17  17 2.72   7 2.87
                            14 2.89   4 3.04   8 3.04  21 3.05  29 3.08  54 3.08  30 3.08
   2  0.900  0.336  0.195-  56 1.92  71 1.92  59 2.04  74 2.08  77 2.18  80 2.21  27 2.74  24 2.79
                            28 2.85   5 2.87  19 2.95  36 2.95  30 3.04  37 3.04   9 3.08  22 3.11
   3  0.110  0.661  0.111-  58 1.95  64 1.95  94 1.96  55 2.08  61 2.09  79 2.10  20 2.91  23 2.96
                            25 2.97  31 2.99  40 3.03  28 3.09  18 3.09  10 3.09  47 3.10   6 3.10
   4  0.345  1.000  0.988-  60 2.10  63 2.11  66 2.11  93 2.13  99 2.17  96 2.17  15 2.73  14 2.88
                             7 2.90  48 3.04   1 3.04  21 3.04  11 3.04  47 3.08  30 3.09
   5  0.210  0.332  0.223-  62 1.98  86 2.01  80 2.04  59 2.08  83 2.08  65 2.08   2 2.87  24 2.88
                            22 2.90  40 3.01  30 3.01  19 3.02  33 3.04  42 3.04  31 3.09  12 3.12
   6  0.478  0.664  0.076- 100 1.90  67 1.93  70 2.03  61 2.04  64 2.17  85 2.21  26 2.64  25 2.75
                            20 2.82  50 2.86  34 2.94  35 3.05  31 3.08   3 3.10  13 3.10  23 3.27
   7  0.667  0.003  0.001-  99 2.14 105 2.15  69 2.16  66 2.20 102 2.21  72 2.21   8 2.87   1 2.87
                            11 2.89  17 2.89   4 2.90  15 2.90  33 3.04  36 3.07
   8  0.655  0.000  0.333-  78 2.10  57 2.10  75 2.12  72 2.13  69 2.17  90 2.18  11 2.72   7 2.87
                            14 2.89  15 3.04   1 3.04  21 3.05  35 3.05  45 3.06  29 3.07
   9  0.563  0.339  0.555-  77 1.96  89 1.97  95 1.99  74 2.04  98 2.08  92 2.11  22 2.83  24 2.96
                            19 2.97  46 3.01  16 3.02  37 3.03  49 3.05   2 3.08  48 3.08  45 3.09
  10  0.778  0.664  0.478-  82 1.90  97 1.94  76 2.02  79 2.06  58 2.16  73 2.20  26 2.64  25 2.78
                            23 2.79  49 2.85  41 2.94  40 3.00  38 3.06  13 3.09   3 3.09  20 3.25
  11  0.345  1.000  0.333-  63 2.10  66 2.11  84 2.11  87 2.11  90 2.17  69 2.18   8 2.72   7 2.89
                            14 2.89  21 3.04   4 3.04  17 3.05  45 3.06  44 3.08  35 3.08  32 3.09
  12  0.194  0.336  0.585- 107 1.90 104 1.94  83 2.03  92 2.03  89 2.14  86 2.17  27 2.68  24 2.83
                            22 2.86  54 2.89  52 2.94  46 3.06   5 3.12   9 3.13  19 3.17
  13  0.445  0.667  0.444-  91 1.97  85 1.98  73 1.98  76 2.05  88 2.06  70 2.08  23 2.95  20 2.96
                            25 2.97  35 2.98  44 3.02  38 3.02  43 3.05  37 3.05  10 3.09  46 3.10
  14  0.334  0.997  0.667- 108 2.14  96 2.15  90 2.15  87 2.20  75 2.20  93 2.21  15 2.87   4 2.88
                             8 2.89  11 2.89   1 2.89  17 2.90  47 3.02  38 3.02  44 3.08
  15  0.655  1.000  0.678-  78 2.10  81 2.11  75 2.12 102 2.12  99 2.17  96 2.19   4 2.73  14 2.87
                             7 2.90   8 3.04  17 3.04  21 3.05  38 3.08  50 3.08  39 3.09  48 3.10
  16  0.585  0.338  0.886-  68 1.89 101 1.90  65 1.97  98 2.08  95 2.18  62 2.21  27 2.71  22 2.79
                            19 2.85  51 2.91  34 2.94  49 3.00   9 3.02  33 3.06  31 3.10   5 3.15
  17  1.000  1.000  0.678-  81 2.11  87 2.12 102 2.12  84 2.12 108 2.16 105 2.18   1 2.72   7 2.89
                            14 2.90  21 3.04  15 3.04  11 3.05  44 3.07  42 3.08
  18  0.078  0.663  0.777- 106 1.90 103 1.93  88 2.00  55 2.06  91 2.19  94 2.19  26 2.64  23 2.77
                            20 2.78  53 2.87  52 2.92  28 3.06  44 3.07   3 3.09  13 3.10  25 3.29
  19  0.552  0.334  0.225-  68 2.10  89 2.10  86 2.11  71 2.16  74 2.20  65 2.22  16 2.85   2 2.95
                             9 2.97  27 2.98   5 3.02  12 3.17
  20  0.781  0.667  0.108-  73 2.17  67 2.17  58 2.18 106 2.19  55 2.30  70 2.39  18 2.78   6 2.82
                             3 2.91  26 2.93  13 2.96  10 3.25
  21  0.000  1.000  0.333-  57 2.11  60 2.13  78 2.13  84 2.13  63 2.13  81 2.14  17 3.04  11 3.04
                             4 3.04   8 3.05   1 3.05  15 3.05
  22  0.885  0.333  0.555-  77 2.17 104 2.18  80 2.20 101 2.23  98 2.31  83 2.39  16 2.79   9 2.83
                            12 2.86   5 2.90  27 2.97   2 3.11
  23  0.109  0.666  0.448- 103 2.14  85 2.16  64 2.18  82 2.20  88 2.33  79 2.33  18 2.77  10 2.79
                            26 2.92  13 2.95   3 2.96   6 3.27
  24  0.225  0.334  0.889-  62 2.11  95 2.16  56 2.18 107 2.20  92 2.31  59 2.33   2 2.79  12 2.83
                             5 2.88  27 2.95   9 2.96  16 3.16
  25  0.450  0.667  0.779- 100 2.15  91 2.15  97 2.16  94 2.24  61 2.33  76 2.37   6 2.75  10 2.78
                            26 2.88   3 2.97  13 2.97  18 3.29
  26  0.778  0.666  0.778-  97 2.17 103 2.18 106 2.20 100 2.21  67 2.22  82 2.23   6 2.64  10 2.64
                            18 2.64  25 2.88  23 2.92  20 2.93
  27  0.891  0.334  0.889-  68 2.11  56 2.15 104 2.18  71 2.18 107 2.19 101 2.20  12 2.68  16 2.71
                             2 2.74  24 2.95  22 2.97  19 2.98
  28  0.998  0.494  0.992- 106 2.02  71 2.03 107 2.05  59 2.12  94 2.13   2 2.85  18 3.06   3 3.09

  29  0.889  0.835  0.224-  79 1.93  72 2.03  78 2.18  60 2.19  73 2.28   8 3.07   1 3.08
  30  0.108  0.165  0.113-  80 2.02  93 2.05  56 2.07  57 2.18  63 2.19   5 3.01   2 3.04   1 3.08
                             4 3.09
  31  0.334  0.499  0.989- 100 2.04  65 2.05  95 2.12  64 2.16  59 2.16  94 2.17   3 2.99   6 3.08
                             5 3.09  16 3.10
  32  0.209  0.835  0.235-  61 2.00  84 2.10  66 2.14  60 2.19  79 2.22  85 2.28  11 3.09
  33  0.450  0.172  0.113-  69 1.99  99 2.06  68 2.07  62 2.10  63 2.19  86 2.23   5 3.04   7 3.04
                            16 3.06  11 3.10
  34  0.683  0.500  0.999- 101 2.01 106 2.02  71 2.10 100 2.14  70 2.22   6 2.94  16 2.94
  35  0.562  0.828  0.220-  67 1.97  85 2.10  72 2.12  90 2.12  66 2.19  73 2.19  13 2.98   6 3.05
                             8 3.05  11 3.08
  36  0.772  0.176  0.105- 105 2.04  69 2.04  56 2.05  68 2.06  74 2.20  57 2.28   2 2.95   7 3.07

  37  0.669  0.500  0.320-  76 1.97  71 1.97  77 2.09  70 2.20  58 2.25  89 2.28   9 3.03   2 3.04
                            13 3.05
  38  0.552  0.830  0.563-  96 1.98  97 2.00  90 2.04  73 2.11  78 2.17  91 2.26  13 3.02  14 3.02
                            10 3.06  15 3.08
  39  0.792  0.166  0.443-  80 2.05  81 2.11  75 2.14  74 2.14  57 2.19  98 2.28  15 3.09
  40  0.998  0.500  0.345-  82 1.93  59 1.96  58 2.12  83 2.18  77 2.19  64 2.28  10 3.00   5 3.01
                             3 3.03
  41  0.898  0.830  0.553- 103 2.07  97 2.07 102 2.11  84 2.18  79 2.18  78 2.28  10 2.94
  42  0.099  0.165  0.444- 104 2.08  80 2.08  87 2.12  81 2.13  63 2.20  86 2.21   5 3.04  17 3.08

  43  0.334  0.500  0.333-  70 1.88  83 1.89  64 2.24  89 2.26  88 2.27  13 3.05
  44  0.218  0.830  0.553- 103 2.01 108 2.05  90 2.06  84 2.09  91 2.14  85 2.23  13 3.02  18 3.07
                            17 3.07  11 3.08  14 3.08
  45  0.449  0.174  0.433-  92 1.95  69 2.03  86 2.18  74 2.19  75 2.21  87 2.22   8 3.06  11 3.06
                             9 3.09
  46  0.332  0.500  0.678-  88 1.96 107 2.04  95 2.11  94 2.16  89 2.19   9 3.01  12 3.06  13 3.10

  47  0.231  0.830  0.883-  55 1.95  96 1.97 108 2.04  60 2.18  91 2.21  61 2.25  14 3.02   4 3.08
                             3 3.10
  48  0.434  0.172  0.785-  98 1.92  93 2.09  99 2.13  62 2.18  75 2.21  92 2.22   4 3.04   9 3.08
                            15 3.10
  49  0.668  0.505  0.675-  82 1.99 101 2.01 100 2.03  95 2.11  76 2.23  10 2.85  16 3.00   9 3.05

  50  0.561  0.823  0.875-  97 1.98  67 2.02  96 2.08 102 2.19  61 2.21   6 2.86  15 3.08
  51  0.787  0.175  0.775- 105 2.02 104 2.05  68 2.11  99 2.14  98 2.16  81 2.17  16 2.91
  52  0.985  0.499  0.668- 106 2.04 101 2.04  82 2.04 107 2.12  83 2.23  18 2.92  12 2.94
  53  0.879  0.823  0.894-  67 2.01 103 2.03  72 2.17 102 2.17  55 2.17 108 2.23  18 2.87
  54  0.102  0.177  0.792-  56 2.00 104 2.02 105 2.11  93 2.16  92 2.23  12 2.89   1 3.08
  55  0.035  0.748  0.976-  47 1.95  18 2.06   3 2.08  53 2.17  20 2.30
  56  0.995  0.249  0.012-   2 1.92  54 2.00  36 2.05  30 2.07  27 2.15  24 2.18
  57  0.884  0.076  0.218-   8 2.10   1 2.11  21 2.11  30 2.18  39 2.19  36 2.28
  58  0.898  0.591  0.234-   3 1.95  40 2.12  10 2.16  20 2.18  37 2.25
  59  0.095  0.424  0.136-  40 1.96   2 2.04   5 2.08  28 2.12  31 2.16  24 2.33
  60  0.117  0.923  0.100-   4 2.10   1 2.10  21 2.13  47 2.18  32 2.19  29 2.19
  61  0.319  0.748  0.038-  32 2.00   6 2.04   3 2.09  50 2.21  47 2.25  25 2.33
  62  0.341  0.260  0.009-   5 1.98  33 2.10  24 2.11  48 2.18  16 2.21
  63  0.233  0.077  0.217-  11 2.10   4 2.11  21 2.13  30 2.19  33 2.19  42 2.20
  64  0.233  0.592  0.203-   3 1.95  31 2.16   6 2.17  23 2.18  43 2.24  40 2.28
  65  0.434  0.410  0.093-  16 1.97  31 2.05   5 2.08  19 2.22
  66  0.438  0.915  0.115-  11 2.11   4 2.11  32 2.14  35 2.19   7 2.20
  67  0.654  0.754  0.008-   6 1.93  35 1.97  53 2.01  50 2.02  20 2.17  26 2.22
  68  0.661  0.256  0.998-  16 1.89  36 2.06  33 2.07  19 2.10  51 2.11  27 2.11
  69  0.558  0.095  0.217-  33 1.99  45 2.03  36 2.04   7 2.16   8 2.17  11 2.18
  70  0.519  0.582  0.234-  43 1.88   6 2.03  13 2.08  37 2.20  34 2.22  20 2.39
  71  0.781  0.417  0.121-   2 1.92  37 1.97  28 2.03  34 2.10  19 2.16  27 2.18
  72  0.782  0.913  0.114-  29 2.03  35 2.12   1 2.13   8 2.13  53 2.17   7 2.21
  73  0.659  0.740  0.352-  13 1.98  38 2.11  20 2.17  35 2.19  10 2.20  29 2.28
  74  0.680  0.258  0.341-   9 2.04   2 2.08  39 2.14  45 2.19  19 2.20  36 2.20
  75  0.562  0.086  0.552-  15 2.12   8 2.12  39 2.14  14 2.20  48 2.21  45 2.21
  76  0.580  0.582  0.518-  37 1.97  10 2.02  13 2.05  49 2.23  25 2.37
  77  0.770  0.414  0.434-   9 1.96  37 2.09  22 2.17   2 2.18  40 2.19
  78  0.767  0.923  0.449-   8 2.10  15 2.10  21 2.13  38 2.17  29 2.18  41 2.28
  79  0.977  0.749  0.321-  29 1.93  10 2.06   3 2.10  41 2.18  32 2.22  23 2.33
  80  0.004  0.247  0.322-  30 2.02   5 2.04  39 2.05  42 2.08  22 2.20   2 2.21
  81  0.883  0.078  0.566-  39 2.11  17 2.11  15 2.11  42 2.13  21 2.14  51 2.17
  82  0.886  0.576  0.547-  10 1.90  40 1.93  49 1.99  52 2.04  23 2.20  26 2.23
  83  0.147  0.418  0.430-  43 1.89  12 2.03   5 2.08  40 2.18  52 2.23  22 2.39
  84  0.117  0.922  0.449-  44 2.09  32 2.10  11 2.11  17 2.12  21 2.13  41 2.18
  85  0.351  0.740  0.323-  13 1.98  35 2.10  23 2.16   6 2.21  44 2.23  32 2.28
  86  0.316  0.262  0.342-   5 2.01  19 2.11  12 2.17  45 2.18  42 2.21  33 2.23
  87  0.219  0.085  0.552-  11 2.11  17 2.12  42 2.12  14 2.20  45 2.22
  88  0.236  0.584  0.578-  46 1.96  18 2.00  13 2.06  43 2.27  23 2.33
  89  0.437  0.406  0.460-   9 1.97  19 2.10  12 2.14  46 2.19  43 2.26  37 2.28
  90  0.441  0.905  0.451-  38 2.04  44 2.06  35 2.12  14 2.15  11 2.17   8 2.18
  91  0.323  0.737  0.661-  13 1.97  44 2.14  25 2.15  18 2.19  47 2.21  38 2.26
  92  0.348  0.254  0.632-  45 1.95  12 2.03   9 2.11  48 2.22  54 2.23  24 2.31
  93  0.220  0.087  0.894-  30 2.05  48 2.09   4 2.13   1 2.15  54 2.16  14 2.21
  94  0.203  0.588  0.898-   3 1.96  28 2.13  46 2.16  31 2.17  18 2.19  25 2.24
  95  0.459  0.414  0.769-   9 1.99  46 2.11  49 2.11  31 2.12  24 2.16  16 2.18
  96  0.441  0.905  0.775-  47 1.97  38 1.98  50 2.08  14 2.15   4 2.17  15 2.19
  97  0.674  0.754  0.656-  10 1.94  50 1.98  38 2.00  41 2.07  25 2.16  26 2.17
  98  0.634  0.248  0.688-  48 1.92   9 2.08  16 2.08  51 2.16  39 2.28  22 2.31
  99  0.559  0.093  0.893-  33 2.06  48 2.13  51 2.14   7 2.14  15 2.17   4 2.17
 100  0.549  0.577  0.898-   6 1.90  49 2.03  31 2.04  34 2.14  25 2.15  26 2.21
 101  0.766  0.423  0.786-  16 1.90  49 2.01  34 2.01  52 2.04  27 2.20  22 2.23
 102  0.782  0.915  0.772-  41 2.11  17 2.12  15 2.12  53 2.17  50 2.19   7 2.21
 103  0.005  0.752  0.669-  18 1.93  44 2.01  53 2.03  41 2.07  23 2.14  26 2.18
 104  0.012  0.248  0.660-  12 1.94  54 2.02  51 2.05  42 2.08  27 2.18  22 2.18
 105  0.881  0.095  0.892-  51 2.02  36 2.04  54 2.11   7 2.15   1 2.17  17 2.18
 106  0.898  0.577  0.884-  18 1.90  28 2.02  34 2.02  52 2.04  20 2.19  26 2.20
 107  0.117  0.421  0.766-  12 1.90  46 2.04  28 2.05  52 2.12  27 2.19  24 2.20
 108  0.119  0.907  0.774-  47 2.04  44 2.05  14 2.14   1 2.16  17 2.16  53 2.23
 
  LATTYP: Found a triclinic cell.
 ALAT       =    17.5287784023
 B/A-ratio  =     0.8650421831
 C/A-ratio  =     0.8712978643
 COS(alpha) =     0.0004228600
 COS(beta)  =     0.4363846120
 COS(gamma) =     0.8641353945
  
  Lattice vectors:
  
 A1 = (   4.3781001397, -15.1550530664,  -7.6429495614)
 A2 = (  -0.0327283203, -15.1630970528,  -0.0033135537)
 A3 = (   0.0112365749,  -0.0031449956, -15.2727827291)


Analysis of symmetry for initial positions (statically):
=====================================================================
 Subroutine PRICEL returns:
 Original cell was already a primitive cell.
 

 Routine SETGRP: Setting up the symmetry group for a 
 triclinic supercell.


 Subroutine GETGRP returns: Found  1 space group operations
 (whereof  1 operations were pure point group operations)
 out of a pool of  2 trial point group operations.


The static configuration has the point symmetry C_1 .


Analysis of symmetry for dynamics (positions and initial velocities):
=====================================================================
 Subroutine PRICEL returns:
 Original cell was already a primitive cell.
 

 Routine SETGRP: Setting up the symmetry group for a 
 triclinic supercell.


 Subroutine GETGRP returns: Found  1 space group operations
 (whereof  1 operations were pure point group operations)
 out of a pool of  2 trial point group operations.


The dynamic configuration has the point symmetry C_1 .


Analysis of structural, dynamic, and magnetic symmetry:
=====================================================================
 Subroutine PRICEL returns:
 Original cell was already a primitive cell.
 

 Routine SETGRP: Setting up the symmetry group for a 
 triclinic supercell.


 Subroutine GETGRP returns: Found  1 space group operations
 (whereof  1 operations were pure point group operations)
 out of a pool of  2 trial point group operations.


The magnetic configuration has the point symmetry C_1 .


 Subroutine INISYM returns: Found  1 space group operations
 (whereof  1 operations are pure point group operations),
 and found     1 'primitive' translations

 
 
 KPOINTS: Automatic mesh                          

Automatic generation of k-mesh.
Space group operators:
 irot       det(A)        alpha          n_x          n_y          n_z        tau_x        tau_y        tau_z
    1     1.000000     0.000000     1.000000     0.000000     0.000000     0.000000     0.000000     0.000000
 
 Subroutine IBZKPT returns following result:
 ===========================================
 
 Found      1 irreducible k-points:
 
 Following reciprocal coordinates:
            Coordinates               Weight
  0.000000  0.000000  0.000000      1.000000
 
 Following cartesian coordinates:
            Coordinates               Weight
  0.000000  0.000000  0.000000      1.000000
 


--------------------------------------------------------------------------------------------------------




 Dimension of arrays:
   k-points           NKPTS =      1   k-points in BZ     NKDIM =      1   number of bands    NBANDS=    432
   number of dos      NEDOS =    301   number of ions     NIONS =    108
   non local maximal  LDIM  =      6   non local SUM 2l+1 LMDIM =     18
   total plane-waves  NPLWV = 458752
   max r-space proj   IRMAX =   7927   max aug-charges    IRDMAX=  25460
   dimension x,y,z NGX =    64 NGY =  112 NGZ =   64
   dimension x,y,z NGXF=   128 NGYF=  224 NGZF=  128
   support grid    NGXF=   128 NGYF=  224 NGZF=  128
   ions per type =              18   9  27  54
   NGX,Y,Z   is equivalent  to a cutoff of  12.08, 12.28, 12.08 a.u.
   NGXF,Y,Z  is equivalent  to a cutoff of  24.15, 24.56, 24.15 a.u.

 SYSTEM =  unknown system                          
 POSCAR =  ce120559_1                              

 Startparameter for this run:
   NWRITE =      1    write-flag & timer
   PREC   = accura    normal or accurate (medium, high low for compatibility)
   ISTART =      0    job   : 0-new  1-cont  2-samecut
   ICHARG =      2    charge: 1-file 2-atom 10-const
   ISPIN  =      2    spin polarized calculation?
   LNONCOLLINEAR =      F non collinear calculations
   LSORBIT =      F    spin-orbit coupling
   INIWAV =      1    electr: 0-lowe 1-rand  2-diag
   LASPH  =      F    aspherical Exc in radial PAW
   METAGGA=      F    non-selfconsistent MetaGGA calc.

 Electronic Relaxation 1
   ENCUT  =  500.0 eV  36.75 Ry    6.06 a.u.  16.06 27.65 16.06*2*pi/ulx,y,z
   ENINI  =  500.0     initial cutoff
   ENAUG  =  628.9 eV  augmentation charge cutoff
   NELM   =     80;   NELMIN=  2; NELMDL= -5     # of ELM steps 
   EDIFF  = 0.1E-04   stopping-criterion for ELM
   LREAL  =      T    real-space projection
   NLSPLINE    = F    spline interpolate recip. space projectors
   LCOMPAT=      F    compatible to vasp.4.4
   GGA_COMPAT  = T    GGA compatible to vasp.4.4-vasp.4.6
   LMAXPAW     = -100 max onsite density
   LMAXMIX     =    2 max onsite mixed and CHGCAR
   VOSKOWN=      1    Vosko Wilk Nusair interpolation
   ROPT   =   -0.00025  -0.00025  -0.00025  -0.00025
 Ionic relaxation
   EDIFFG = -.2E-01   stopping-criterion for IOM
   NSW    =     20    number of steps for IOM
   NBLOCK =      1;   KBLOCK =     20    inner block; outer block 
   IBRION =      1    ionic relax: 0-MD 1-quasi-New 2-CG
   NFREE  =      0    steps in history (QN), initial steepest desc. (CG)
   ISIF   =      3    stress and relaxation
   IWAVPR =     11    prediction:  0-non 1-charg 2-wave 3-comb
   ISYM   =      2    0-nonsym 1-usesym 2-fastsym
   LCORR  =      T    Harris-Foulkes like correction to forces

   POTIM  = 0.5000    time-step for ionic-motion
   TEIN   =    0.0    initial temperature
   TEBEG  =    0.0;   TEEND  =   0.0 temperature during run
   SMASS  =  -3.00    Nose mass-parameter (am)
   estimated Nose-frequenzy (Omega)   =  0.10E-29 period in steps =****** mass=  -0.177E-26a.u.
   SCALEE = 1.0000    scale energy and forces
   NPACO  =    256;   APACO  = 16.0  distance and # of slots for P.C.
   PSTRESS=    0.0 pullay stress

  Mass of Ions in am
   POMASS = 180.95 58.69  7.01 16.00
  Ionic Valenz
   ZVAL   =  11.00 10.00  3.00  6.00
  Atomic Wigner-Seitz radii
   RWIGS  =   1.34  1.15  1.23  0.73
  virtual crystal weights 
   VCA    =   1.00  1.00  1.00  1.00
   NELECT =     693.0000    total number of electrons
   NUPDOWN=      -1.0000    fix difference up-down

 DOS related values:
   EMIN   =  10.00;   EMAX   =-10.00  energy-range for DOS
   EFERMI =   0.00
   ISMEAR =     0;   SIGMA  =   0.05  broadening in eV -4-tet -1-fermi 0-gaus

 Electronic relaxation 2 (details)
   IALGO  =     38    algorithm
   LDIAG  =      T    sub-space diagonalisation (order eigenvalues)
   LSUBROT=      F    optimize rotation matrix (better conditioning)
   TURBO    =      0    0=normal 1=particle mesh
   IRESTART =      0    0=no restart 2=restart with 2 vectors
   NREBOOT  =      0    no. of reboots
   NMIN     =      0    reboot dimension
   EREF     =   0.00    reference energy to select bands
   IMIX   =      4    mixing-type and parameters
     AMIX     =   0.40;   BMIX     =  1.00
     AMIX_MAG =   1.60;   BMIX_MAG =  1.00
     AMIN     =   0.10
     WC   =   100.;   INIMIX=   1;  MIXPRE=   1;  MAXMIX= -45

 Intra band minimization:
   WEIMIN = 0.0010     energy-eigenvalue tresh-hold
   EBREAK =  0.58E-08  absolut break condition
   DEPER  =   0.30     relativ break condition  

   TIME   =   0.40     timestep for ELM

  volume/ion in A,a.u.               =       9.45        63.74
  Fermi-wavevector in a.u.,A,eV,Ry     =   1.439116  2.719535 28.178408  2.071055
  Thomas-Fermi vector in A             =   2.558007
 
 Write flags
   LWAVE        =      F    write WAVECAR
   LDOWNSAMPLE  =      F    k-point downsampling of WAVECAR
   LCHARG       =      T    write CHGCAR
   LVTOT        =      F    write LOCPOT, total local potential
   LVHAR        =      F    write LOCPOT, Hartree potential only
   LELF         =      F    write electronic localiz. function (ELF)
   LORBIT       =      0    0 simple, 1 ext, 2 COOP (PROOUT), +10 PAW based schemes


 Dipole corrections
   LMONO  =      F    monopole corrections only (constant potential shift)
   LDIPOL =      F    correct potential (dipole corrections)
   IDIPOL =      0    1-x, 2-y, 3-z, 4-all directions 
   EPSILON=  1.0000000 bulk dielectric constant

 Exchange correlation treatment:
   GGA     =    PS    GGA type
   LEXCH   =    14    internal setting for exchange type
   VOSKOWN=      1    Vosko Wilk Nusair interpolation
   LHFCALC =     F    Hartree Fock is set to
   LHFONE  =     F    Hartree Fock one center treatment
   AEXX    =    0.0000 exact exchange contribution

 Linear response parameters
   LEPSILON=     F    determine dielectric tensor
   LRPA    =     F    only Hartree local field effects (RPA)
   LNABLA  =     F    use nabla operator in PAW spheres
   LVEL    =     F    velocity operator in full k-point grid
   LINTERFAST=   F  fast interpolation
   KINTER  =     0    interpolate to denser k-point grid
   CSHIFT  =0.1000    complex shift for real part using Kramers Kronig
   OMEGAMAX=  -1.0    maximum frequency
   DEG_THRESHOLD= 0.2000000E-02 threshold for treating states as degnerate
   RTIME   =   -0.100 relaxation time in fs
  (WPLASMAI=    0.000 imaginary part of plasma frequency in eV, 0.658/RTIME)
   DFIELD  = 0.0000000 0.0000000 0.0000000 field for delta impulse in time
 
 Orbital magnetization related:
   ORBITALMAG=     F  switch on orbital magnetization
   LCHIMAG   =     F  perturbation theory with respect to B field
   DQ        =  0.001000  dq finite difference perturbation B field
   LLRAUG    =     F  two centre corrections for induced B field



--------------------------------------------------------------------------------------------------------


 quasi-Newton-method for relaxation of ions
 charge density and potential will be updated during run
 spin polarized calculation
 Variant of blocked Davidson
 Davidson routine will perform the subspace rotation
 perform sub-space diagonalisation
    after iterative eigenvector-optimisation
 modified Broyden-mixing scheme, WC =      100.0
 initial mixing is a Kerker type mixing with AMIX =  0.4000 and BMIX =      1.0000
 Hartree-type preconditioning will be used
 using additional bands           85
 real space projection scheme for non local part
 use partial core corrections
 calculate Harris-corrections to forces 
   (improved forces if not selfconsistent)
 use gradient corrections 
 use of overlap-Matrix (Vanderbilt PP)
 Gauss-broadening in eV      SIGMA  =   0.05


--------------------------------------------------------------------------------------------------------


  energy-cutoff  :      500.00
  volume of cell :     1020.17
      direct lattice vectors                 reciprocal lattice vectors
     8.810420345  0.019232968 -0.006489286     0.113454301 -0.000230592 -0.065392434
     0.032728320 15.163097053  0.003313554    -0.000143977  0.065949902 -0.000013686
     4.399591885  0.011188982  7.633146721     0.000096515 -0.000028825  0.130951982

  length of vectors
     8.810443728 15.163132736  8.810304355     0.130950762  0.065950060  0.130952021


 
 k-points in units of 2pi/SCALE and weight: Automatic mesh                          
   0.00000000  0.00000000  0.00000000       1.000
 
 k-points in reciprocal lattice and weights: Automatic mesh                          
   0.00000000  0.00000000  0.00000000       1.000
 
 position of ions in fractional coordinates (direct lattice) 
   0.99959363  0.99982888  0.98781502
   0.89963198  0.33587347  0.19513145
   0.11010239  0.66075706  0.11075557
   0.34492097  0.99954620  0.98798381
   0.21026725  0.33216888  0.22263550
   0.47809801  0.66399054  0.07644943
   0.66710762  0.00342712  0.00085314
   0.65468555  0.00006905  0.33287482
   0.56294686  0.33866079  0.55534396
   0.77812702  0.66361663  0.47772376
   0.34522736  0.99986766  0.33331985
   0.19379678  0.33629029  0.58462275
   0.44518563  0.66674453  0.44400579
   0.33441354  0.99660687  0.66684480
   0.65465684  0.99997983  0.67819708
   0.58503366  0.33785224  0.88627776
   0.99990069  0.99999832  0.67844341
   0.07762091  0.66289370  0.77685938
   0.55158442  0.33423346  0.22471236
   0.78097157  0.66711184  0.10788643
   0.00014868  0.99993533  0.33321310
   0.88457007  0.33279232  0.55513639
   0.10895610  0.66646453  0.44754687
   0.22520497  0.33367965  0.88909915
   0.45043283  0.66704589  0.77890413
   0.77750986  0.66583851  0.77759519
   0.89069228  0.33353279  0.88927011
   0.99807740  0.49370448  0.99226763
   0.88906647  0.83536204  0.22374754
   0.10776674  0.16493566  0.11314083
   0.33388745  0.49879620  0.98901313
   0.20902908  0.83474122  0.23484749
   0.44961499  0.17176952  0.11286584
   0.68255266  0.49989982  0.99920870
   0.56232278  0.82798984  0.21975167
   0.77164700  0.17626242  0.10478076
   0.66883731  0.49964087  0.31973031
   0.55230502  0.82979861  0.56256890
   0.79184657  0.16550347  0.44270851
   0.99840805  0.49972870  0.34478917
   0.89806224  0.82976953  0.55269553
   0.09938818  0.16544061  0.44444700
   0.33398714  0.49996824  0.33292380
   0.21803502  0.83004034  0.55346494
   0.44936090  0.17373864  0.43255566
   0.33211941  0.49972178  0.67841810
   0.23082805  0.82958798  0.88295918
   0.43417576  0.17182746  0.78529625
   0.66816999  0.50465281  0.67542423
   0.56072169  0.82307187  0.87544128
   0.78694709  0.17479832  0.77456528
   0.98477294  0.49933791  0.66794507
   0.87885349  0.82326654  0.89388641
   0.10247446  0.17730656  0.79197346
   0.03531001  0.74756701  0.97643918
   0.99546627  0.24931425  0.01160728
   0.88374056  0.07647568  0.21764871
   0.89753876  0.59091825  0.23403407
   0.09467179  0.42432519  0.13605916
   0.11652759  0.92297420  0.10040169
   0.31864401  0.74774326  0.03814378
   0.34102785  0.25996582  0.00908203
   0.23289277  0.07732448  0.21675419
   0.23313931  0.59152487  0.20338962
   0.43361240  0.41002461  0.09330999
   0.43822289  0.91528141  0.11475218
   0.65426626  0.75436941  0.00838447
   0.66069728  0.25647829  0.99752269
   0.55840245  0.09533746  0.21650814
   0.51882758  0.58161029  0.23439985
   0.78117143  0.41714958  0.12142650
   0.78174018  0.91305037  0.11411506
   0.65877561  0.74022850  0.35156517
   0.68018028  0.25780026  0.34141926
   0.56163671  0.08557135  0.55213291
   0.57978878  0.58229684  0.51778257
   0.76967899  0.41376080  0.43402140
   0.76749575  0.92314704  0.44901241
   0.97680309  0.74863684  0.32109642
   0.00411845  0.24749181  0.32150613
   0.88295534  0.07799485  0.56600737
   0.88552113  0.57602588  0.54724622
   0.14731758  0.41839795  0.42961433
   0.11697087  0.92151997  0.44878185
   0.35080896  0.73975869  0.32346819
   0.31563337  0.26217939  0.34175065
   0.21929650  0.08464717  0.55232753
   0.23585081  0.58364849  0.57829314
   0.43748151  0.40608201  0.45976903
   0.44123809  0.90533019  0.45125900
   0.32290095  0.73695541  0.66057222
   0.34787663  0.25357359  0.63207077
   0.21958476  0.08689428  0.89420729
   0.20287308  0.58842199  0.89841423
   0.45879479  0.41410604  0.76893243
   0.44097491  0.90461063  0.77543301
   0.67394568  0.75393629  0.65625430
   0.63360907  0.24844400  0.68754757
   0.55850153  0.09346544  0.89259210
   0.54910711  0.57706228  0.89838841
   0.76579673  0.42306570  0.78611919
   0.78157037  0.91457470  0.77172435
   0.00494482  0.75225797  0.66918467
   0.01154174  0.24820428  0.65971076
   0.88139647  0.09450184  0.89237161
   0.89845520  0.57666997  0.88440779
   0.11690504  0.42128601  0.76614404
   0.11912458  0.90654933  0.77397542
 
 position of ions in cartesian coordinates  (Angst):
  13.18554572 15.19078014  7.53696332
   8.79562722  5.11236794  1.48474195
   1.47895311 10.02248027  0.84688848
   7.41833775 15.17390443  7.54249914
   2.84291953  5.04324409  1.69914561
   4.57032202 10.07820364  0.58264737
   5.88136418  0.06480576  0.00219445
   7.23257051  0.01736309  2.53663413
   7.41416905  5.15218730  4.23649097
   8.97913476 10.08279430  3.64368499
   4.54079345 15.17145963  2.54535216
   4.29053882  5.10947093  4.46236794
   5.89753823 10.12344223  3.38848170
   5.91278610 15.12553977  5.09125640
   8.78431997 15.18297054  5.17584305
   9.06471024  5.14405478  6.76241122
  11.82714777 15.18989373  5.17548300
   4.12343247 10.06170665  5.93157446
   5.85927217  5.08113730  1.71279053
   7.37717752 10.13170912  0.82065551
   1.50003779 15.16584763  2.54677686
  10.24669943  5.06938657  4.23280001
   2.95078488 10.11276949  3.41769224
   5.90674463  5.07389639  6.78626851
   7.41719415 10.13185987  5.94477681
  10.29308195 10.11982827  5.93265898
  11.77071491  5.08447075  6.78325445
  13.17521216  7.51638740  7.56928351
   8.84478717 12.68627858  1.70489641
   1.45264182  2.50427403  0.86346775
   7.30926769  7.58078289  7.54876843
   2.90218685 12.66391009  1.79403486
   4.46348242  2.61446819  0.85917300
  10.42604721  7.60433713  7.62433378
   5.94821644 12.56816424  1.67649125
   7.26529578  2.68869763  0.79538353
   7.31577313  7.59254419  2.43786368
   7.36827087 12.59923390  4.29333647
   8.92965455  2.52972820  3.37466890
  10.32968151  7.60049497  2.62700324
  10.37109756 12.60533242  4.21572778
   2.83645165  2.51547647  3.39243240
   4.42365906  7.59121559  2.54074555
   4.38316586 12.59636840  4.22601458
   5.86781296  2.64789826  3.29942048
   5.92722943  7.59130830  5.17796553
   5.94550321 12.59344198  6.74100794
   7.28587758  2.62257361  5.99203336
   8.87496587  7.67250774  5.15294849
   8.81871590 12.50089829  6.68146035
  10.34682663  2.67428582  5.90784291
  11.63129175  7.59792292  5.09378683
  11.70274820 12.51017509  6.82019093
   4.39300602  2.69934884  6.04517215
   4.63149654 11.34703560  7.45555149
   8.82970321  3.79965181  0.08296632
   8.74619423  1.17904038  1.65586310
   8.95668791  8.98003171  1.78255005
   1.44659049  6.43742722  1.03935120
   1.49859091 13.99851194  0.76868297
   2.99967711 11.34465888  0.29156698
   3.05306418  3.94854756  0.06797285
   3.00804387  1.17938307  1.65326145
   2.96824626  8.97610870  1.55294995
   4.24425280  6.22662665  0.71079365
   4.39574625 13.88821314  0.87610931
   5.82593826 11.45125387  0.06225381
  10.21810759  3.91287364  7.61079945
   5.87542800  1.45877340  1.64933067
   5.62138787  8.83161456  1.78776882
   7.43032831  6.34166245  0.92317929
   7.41940188 13.86098339  0.86900950
   7.37505974 11.24076045  2.68172633
   7.50321695  3.92595238  2.60254366
   7.38021557  1.31450643  4.21115044
   7.40527245  8.84636802  3.95047738
   8.70425416  6.29355464  3.30932538
   8.76764458 14.01755337  3.42545600
  10.04324065 11.37403263  2.44711798
   1.45888103  3.75641887  2.45489681
  10.27196176  1.20595838  4.31494599
  10.22832577  8.75749065  4.17337298
   3.20175099  6.35184902  3.27973961
   3.03517932 13.98036785  3.42791216
   4.53811348 11.22739919  2.46925488
   4.29300674  3.98534594  2.60745336
   4.36488042  1.29391096  4.21485448
   4.64130042  8.86092532  4.41459983
   5.89048247  6.17101934  3.50799110
   5.90247842 13.74114498  3.44466270
   5.77526059 11.18812788  5.04259122
   5.85409181  3.85872388  4.82327168
   5.87162508  1.33181494  6.82447842
   5.75931113  8.93625393  6.85836090
   7.43871683  6.29655763  5.86776897
   7.32636948 13.73385634  5.91912980
   8.84967089 11.45231393  5.00741014
   8.61542211  3.78705962  5.24486304
   8.85073317  1.43795438  6.80997189
   8.80929309  8.77066437  6.85587936
  10.21944093  6.43851069  5.99699549
  10.31116817 13.89145167  5.88864385
   3.01232553 11.41414321  5.11044533
   3.01226900  3.77114906  5.03641657
  11.69463717  1.45987717  6.80619693
  11.82567475  8.77127831  6.74689492
   4.41449163  6.39882146  5.84872719
   4.48438344 13.75704659  5.91009881
 


--------------------------------------------------------------------------------------------------------


 use serial FFT for orbitals x direction half grid
 k-point  1 :   0.0000 0.0000 0.0000  plane waves:   12928

 maximum and minimum number of plane-waves per node :     12928    12928

 maximum number of plane-waves:     12928
 maximum index in each direction: 
   IXMAX=   16   IYMAX=   27   IZMAX=   16
   IXMIN=    0   IYMIN=  -27   IZMIN=  -13

 The following grids will avoid any aliasing or wrap around errors in the Hartre
 e energy
  - symmetry arguments have not been applied
  - exchange correlation energies might require even more grid points
  - we recommend to set PREC=Normal or Accurate and rely on VASP defaults
 WARNING: aliasing errors must be expected set NGX to    70 to avoid them
 NGY is ok and might be reduce to   112
 NGZ is ok and might be reduce to    60

 serial   3D FFT for wavefunctions
 parallel 3D FFT for charge:
    minimum data exchange during FFTs selected (reduces bandwidth)


 total amount of memory used by VASP MPI-rank0   154440. kBytes
=======================================================================

   base      :      30000. kBytes
   nonlr-proj:      42198. kBytes
   fftplans  :       9702. kBytes
   grid      :      59236. kBytes
   one-center:       1679. kBytes
   wavefun   :      11625. kBytes
 
     INWAV:  cpu time    0.0000: real time    0.0000
 Broyden mixing: mesh for mixing (old mesh)
   NGX = 33   NGY = 55   NGZ = 33
  (NGX  =128   NGY  =224   NGZ  =128)
  gives a total of  59895 points

 initial charge density was supplied:
 charge density of overlapping atoms calculated
 number of electron     693.0000000 magnetization      22.5000000
 keeping initial charge density in first step


--------------------------------------------------------------------------------------------------------


 Maximum index for non-local projection operator         7657
 Maximum index for augmentation-charges         1572 (set IRDMAX)


--------------------------------------------------------------------------------------------------------


 First call to EWALD:  gamma=   0.176
 Maximum number of real-space cells 3x 2x 3
 Maximum number of reciprocal cells 2x 4x 2

    FEWALD:  cpu time    0.0046: real time    0.0047


--------------------------------------- Iteration      1(   1)  ---------------------------------------


    POTLOK:  cpu time    0.2929: real time    0.2960
    SETDIJ:  cpu time    0.0416: real time    0.0417
     EDDAV:  cpu time    5.6112: real time    5.6437
    --------------------------------------------
      LOOP:  cpu time    5.9463: real time    5.9821

 eigenvalue-minimisations  :  1728
 total energy-change (2. order) : 0.1128201E+05  (-0.3619171E+05)
 number of electron     693.0000000 magnetization      22.5000000
 augmentation part      693.0000000 magnetization      22.5000000

 Free energy of the ion-electron system (eV)
  ---------------------------------------------------
  alpha Z        PSCENC =      3850.40098805
  Ewald energy   TEWEN  =    -44934.13965157
  -Hartree energ DENC   =    -12551.16711052
  -exchange      EXHF   =         0.00000000
  -V(xc)+E(xc)   XCENC  =      2603.41101004
  PAW double counting   =     44269.97746772   -45068.59845511
  entropy T*S    EENTRO =        -0.02876826
  eigenvalues    EBANDS =      5874.33340712
  atomic energy  EATOM  =     57237.82299039
  Solvation  Ediel_sol  =         0.00000000
  ---------------------------------------------------
  free energy    TOTEN  =     11282.01187786 eV

  energy without entropy =    11282.04064613  energy(sigma->0) =    11282.02626199


--------------------------------------------------------------------------------------------------------




--------------------------------------- Iteration      1(   2)  ---------------------------------------


     EDDAV:  cpu time    5.9459: real time    5.9601
    --------------------------------------------
      LOOP:  cpu time    5.9457: real time    5.9599

 eigenvalue-minimisations  :  1856
 total energy-change (2. order) :-0.1017272E+05  (-0.9560584E+04)
 number of electron     693.0000000 magnetization      22.5000000
 augmentation part      693.0000000 magnetization      22.5000000

 Free energy of the ion-electron system (eV)
  ---------------------------------------------------
  alpha Z        PSCENC =      3850.40098805
  Ewald energy   TEWEN  =    -44934.13965157
  -Hartree energ DENC   =    -12551.16711052
  -exchange      EXHF   =         0.00000000
  -V(xc)+E(xc)   XCENC  =      2603.41101004
  PAW double counting   =     44269.97746772   -45068.59845511
  entropy T*S    EENTRO =        -0.03159808
  eigenvalues    EBANDS =     -4298.38371603
  atomic energy  EATOM  =     57237.82299039
  Solvation  Ediel_sol  =         0.00000000
  ---------------------------------------------------
  free energy    TOTEN  =      1109.29192490 eV

  energy without entropy =     1109.32352297  energy(sigma->0) =     1109.30772393


--------------------------------------------------------------------------------------------------------




--------------------------------------- Iteration      1(   3)  ---------------------------------------


     EDDAV:  cpu time    6.3190: real time    6.3341
    --------------------------------------------
      LOOP:  cpu time    6.3191: real time    6.3341

 eigenvalue-minimisations  :  2000
 total energy-change (2. order) :-0.1840046E+04  (-0.1724580E+04)
 number of electron     693.0000000 magnetization      22.5000000
 augmentation part      693.0000000 magnetization      22.5000000

 Free energy of the ion-electron system (eV)
  ---------------------------------------------------
  alpha Z        PSCENC =      3850.40098805
  Ewald energy   TEWEN  =    -44934.13965157
  -Hartree energ DENC   =    -12551.16711052
  -exchange      EXHF   =         0.00000000
  -V(xc)+E(xc)   XCENC  =      2603.41101004
  PAW double counting   =     44269.97746772   -45068.59845511
  entropy T*S    EENTRO =        -0.05305788
  eigenvalues    EBANDS =     -6138.40824474
  atomic energy  EATOM  =     57237.82299039
  Solvation  Ediel_sol  =         0.00000000
  ---------------------------------------------------
  free energy    TOTEN  =      -730.75406363 eV

  energy without entropy =     -730.70100574  energy(sigma->0) =     -730.72753468


--------------------------------------------------------------------------------------------------------




--------------------------------------- Iteration      1(   4)  ---------------------------------------


     EDDAV:  cpu time    7.1111: real time    7.1279
    --------------------------------------------
      LOOP:  cpu time    7.1111: real time    7.1280

 eigenvalue-minimisations  :  2320
 total energy-change (2. order) :-0.2147621E+03  (-0.2068993E+03)
 number of electron     693.0000000 magnetization      22.5000000
 augmentation part      693.0000000 magnetization      22.5000000

 Free energy of the ion-electron system (eV)
  ---------------------------------------------------
  alpha Z        PSCENC =      3850.40098805
  Ewald energy   TEWEN  =    -44934.13965157
  -Hartree energ DENC   =    -12551.16711052
  -exchange      EXHF   =         0.00000000
  -V(xc)+E(xc)   XCENC  =      2603.41101004
  PAW double counting   =     44269.97746772   -45068.59845511
  entropy T*S    EENTRO =        -0.09593902
  eigenvalues    EBANDS =     -6353.12744813
  atomic energy  EATOM  =     57237.82299039
  Solvation  Ediel_sol  =         0.00000000
  ---------------------------------------------------
  free energy    TOTEN  =      -945.51614816 eV

  energy without entropy =     -945.42020913  energy(sigma->0) =     -945.46817865


--------------------------------------------------------------------------------------------------------




--------------------------------------- Iteration      1(   5)  ---------------------------------------


     EDDAV:  cpu time    9.1213: real time    9.1430
    CHARGE:  cpu time    0.3546: real time    0.3853
    MIXING:  cpu time    0.0057: real time    0.0083
    --------------------------------------------
      LOOP:  cpu time    9.4812: real time    9.5363

 eigenvalue-minimisations  :  3168
 total energy-change (2. order) :-0.2073552E+02  (-0.2047413E+02)
 number of electron     693.0000074 magnetization      21.8398582
 augmentation part      172.4029067 magnetization      18.2609728

 Broyden mixing:
  rms(total) = 0.13961E+02    rms(broyden)= 0.13960E+02
  rms(prec ) = 0.14941E+02
  weight for this iteration     100.00

 Free energy of the ion-electron system (eV)
  ---------------------------------------------------
  alpha Z        PSCENC =      3850.40098805
  Ewald energy   TEWEN  =    -44934.13965157
  -Hartree energ DENC   =    -12551.16711052
  -exchange      EXHF   =         0.00000000
  -V(xc)+E(xc)   XCENC  =      2603.41101004
  PAW double counting   =     44269.97746772   -45068.59845511
  entropy T*S    EENTRO =        -0.10618713
  eigenvalues    EBANDS =     -6373.85271631
  atomic energy  EATOM  =     57237.82299039
  Solvation  Ediel_sol  =         0.00000000
  ---------------------------------------------------
  free energy    TOTEN  =      -966.25166444 eV

  energy without entropy =     -966.14547731  energy(sigma->0) =     -966.19857087


--------------------------------------------------------------------------------------------------------




--------------------------------------- Iteration      1(   6)  ---------------------------------------


    POTLOK:  cpu time    0.2616: real time    0.2622
    SETDIJ:  cpu time    0.0417: real time    0.0418
     EDDAV:  cpu time    7.3169: real time    7.3342
    CHARGE:  cpu time    0.3174: real time    0.3181
    MIXING:  cpu time    0.0080: real time    0.2544
    --------------------------------------------
      LOOP:  cpu time    7.9455: real time    8.2107

 eigenvalue-minimisations  :  2496
 total energy-change (2. order) :-0.3248352E+02  (-0.1342925E+03)
 number of electron     693.0000071 magnetization      19.7468769
 augmentation part      191.3350525 magnetization      19.1709034

 Broyden mixing:
  rms(total) = 0.16028E+02    rms(broyden)= 0.16027E+02
  rms(prec ) = 0.17174E+02
  weight for this iteration     100.00

 eigenvalues of (default mixing * dielectric matrix)
  average eigenvalue GAMMA=   0.3480
  0.3480

 Free energy of the ion-electron system (eV)
  ---------------------------------------------------
  alpha Z        PSCENC =      3850.40098805
  Ewald energy   TEWEN  =    -44934.13965157
  -Hartree energ DENC   =    -12534.11512693
  -exchange      EXHF   =         0.00000000
  -V(xc)+E(xc)   XCENC  =      2635.26326521
  PAW double counting   =     57742.87125329   -58465.03823885
  entropy T*S    EENTRO =        -0.03879162
  eigenvalues    EBANDS =     -6531.76187360
  atomic energy  EATOM  =     57237.82299039
  Solvation  Ediel_sol  =         0.00000000
  ---------------------------------------------------
  free energy    TOTEN  =      -998.73518563 eV

  energy without entropy =     -998.69639401  energy(sigma->0) =     -998.71578982


--------------------------------------------------------------------------------------------------------




--------------------------------------- Iteration      1(   7)  ---------------------------------------


    POTLOK:  cpu time    0.2691: real time    0.2697
    SETDIJ:  cpu time    0.0420: real time    0.0421
     EDDAV:  cpu time    7.1798: real time    7.1969
    CHARGE:  cpu time    0.3219: real time    0.3226
    MIXING:  cpu time    0.0078: real time    0.0109
    --------------------------------------------
      LOOP:  cpu time    7.8205: real time    7.8423

 eigenvalue-minimisations  :  2432
 total energy-change (2. order) : 0.1390412E+03  (-0.4646908E+02)
 number of electron     693.0000069 magnetization      16.0526729
 augmentation part      184.5876690 magnetization      15.0367536

 Broyden mixing:
  rms(total) = 0.67040E+01    rms(broyden)= 0.67038E+01
  rms(prec ) = 0.71811E+01
  weight for this iteration     100.00

 eigenvalues of (default mixing * dielectric matrix)
  average eigenvalue GAMMA=   0.7013
  0.7926  0.6100

 Free energy of the ion-electron system (eV)
  ---------------------------------------------------
  alpha Z        PSCENC =      3850.40098805
  Ewald energy   TEWEN  =    -44934.13965157
  -Hartree energ DENC   =    -12700.75531914
  -exchange      EXHF   =         0.00000000
  -V(xc)+E(xc)   XCENC  =      2633.05459221
  PAW double counting   =     62440.44446569   -63279.65505768
  entropy T*S    EENTRO =        -0.01818722
  eigenvalues    EBANDS =     -6106.84884069
  atomic energy  EATOM  =     57237.82299039
  Solvation  Ediel_sol  =         0.00000000
  ---------------------------------------------------
  free energy    TOTEN  =      -859.69401996 eV

  energy without entropy =     -859.67583274  energy(sigma->0) =     -859.68492635


--------------------------------------------------------------------------------------------------------




--------------------------------------- Iteration      1(   8)  ---------------------------------------


    POTLOK:  cpu time    0.2699: real time    0.2705
    SETDIJ:  cpu time    0.0419: real time    0.0420
     EDDAV:  cpu time    7.5199: real time    7.5377
    CHARGE:  cpu time    0.3276: real time    0.3284
    MIXING:  cpu time    0.0061: real time    0.0061
    --------------------------------------------
      LOOP:  cpu time    8.1653: real time    8.1847

 eigenvalue-minimisations  :  2560
 total energy-change (2. order) :-0.1336626E+03  (-0.5624587E+02)
 number of electron     693.0000062 magnetization      14.3293360
 augmentation part      148.3151980 magnetization      11.4783090

 Broyden mixing:
  rms(total) = 0.17224E+02    rms(broyden)= 0.17223E+02
  rms(prec ) = 0.21679E+02
  weight for this iteration     100.00

 eigenvalues of (default mixing * dielectric matrix)
  average eigenvalue GAMMA=   0.6369
  1.2589  0.4289  0.2229

 Free energy of the ion-electron system (eV)
  ---------------------------------------------------
  alpha Z        PSCENC =      3850.40098805
  Ewald energy   TEWEN  =    -44934.13965157
  -Hartree energ DENC   =    -12763.36337490
  -exchange      EXHF   =         0.00000000
  -V(xc)+E(xc)   XCENC  =      2629.29222810
  PAW double counting   =     70909.21959524   -71833.29910800
  entropy T*S    EENTRO =        -0.04635377
  eigenvalues    EBANDS =     -6089.24388703
  atomic energy  EATOM  =     57237.82299039
  Solvation  Ediel_sol  =         0.00000000
  ---------------------------------------------------
  free energy    TOTEN  =      -993.35657350 eV

  energy without entropy =     -993.31021973  energy(sigma->0) =     -993.33339662


--------------------------------------------------------------------------------------------------------




--------------------------------------- Iteration      1(   9)  ---------------------------------------


    POTLOK:  cpu time    0.2584: real time    0.2590
    SETDIJ:  cpu time    0.0418: real time    0.0419
     EDDAV:  cpu time    6.9580: real time    6.9791
    CHARGE:  cpu time    0.3243: real time    0.3251
    MIXING:  cpu time    0.0069: real time    0.0069
    --------------------------------------------
      LOOP:  cpu time    7.5894: real time    7.6120

 eigenvalue-minimisations  :  2352
 total energy-change (2. order) : 0.1214232E+03  (-0.1413468E+02)
 number of electron     693.0000072 magnetization      12.8646189
 augmentation part      179.1647020 magnetization       9.6538089

 Broyden mixing:
  rms(total) = 0.74372E+01    rms(broyden)= 0.74367E+01
  rms(prec ) = 0.94135E+01
  weight for this iteration     100.00

 eigenvalues of (default mixing * dielectric matrix)
  average eigenvalue GAMMA=   0.6582
  1.6114  0.4393  0.4393  0.1429

 Free energy of the ion-electron system (eV)
  ---------------------------------------------------
  alpha Z        PSCENC =      3850.40098805
  Ewald energy   TEWEN  =    -44934.13965157
  -Hartree energ DENC   =    -12585.25314844
  -exchange      EXHF   =         0.00000000
  -V(xc)+E(xc)   XCENC  =      2620.41124957
  PAW double counting   =     74668.40864184   -75557.90903944
  entropy T*S    EENTRO =        -0.04809562
  eigenvalues    EBANDS =     -6171.62729308
  atomic energy  EATOM  =     57237.82299039
  Solvation  Ediel_sol  =         0.00000000
  ---------------------------------------------------
  free energy    TOTEN  =      -871.93335830 eV

  energy without entropy =     -871.88526268  energy(sigma->0) =     -871.90931049


--------------------------------------------------------------------------------------------------------




--------------------------------------- Iteration      1(  10)  ---------------------------------------


    POTLOK:  cpu time    0.2688: real time    0.2695
    SETDIJ:  cpu time    0.0420: real time    0.0421
     EDDAV:  cpu time    6.7819: real time    6.7980
    CHARGE:  cpu time    0.3205: real time    0.3213
    MIXING:  cpu time    0.0082: real time    0.0082
    --------------------------------------------
      LOOP:  cpu time    7.4215: real time    7.4391

 eigenvalue-minimisations  :  2288
 total energy-change (2. order) : 0.7832554E+00  (-0.2273296E+02)
 number of electron     693.0000069 magnetization      10.5451867
 augmentation part      184.8094225 magnetization       8.6444727

 Broyden mixing:
  rms(total) = 0.51645E+01    rms(broyden)= 0.51643E+01
  rms(prec ) = 0.59081E+01
  weight for this iteration     100.00

 eigenvalues of (default mixing * dielectric matrix)
  average eigenvalue GAMMA=   0.6414
  1.8854  0.4918  0.4918  0.1770  0.1609

 Free energy of the ion-electron system (eV)
  ---------------------------------------------------
  alpha Z        PSCENC =      3850.40098805
  Ewald energy   TEWEN  =    -44934.13965157
  -Hartree energ DENC   =    -12532.67385352
  -exchange      EXHF   =         0.00000000
  -V(xc)+E(xc)   XCENC  =      2618.69142621
  PAW double counting   =     77619.73635313   -78501.09090931
  entropy T*S    EENTRO =        -0.02341705
  eigenvalues    EBANDS =     -6229.87402926
  atomic energy  EATOM  =     57237.82299039
  Solvation  Ediel_sol  =         0.00000000
  ---------------------------------------------------
  free energy    TOTEN  =      -871.15010293 eV

  energy without entropy =     -871.12668589  energy(sigma->0) =     -871.13839441


--------------------------------------------------------------------------------------------------------




--------------------------------------- Iteration      1(  11)  ---------------------------------------


    POTLOK:  cpu time    0.2586: real time    0.2592
    SETDIJ:  cpu time    0.0413: real time    0.0414
     EDDAV:  cpu time    7.0772: real time    7.0940
    CHARGE:  cpu time    0.3190: real time    0.3197
    MIXING:  cpu time    0.0069: real time    0.0070
    --------------------------------------------
      LOOP:  cpu time    7.7031: real time    7.7213

 eigenvalue-minimisations  :  2416
 total energy-change (2. order) : 0.1128906E+02  (-0.5315283E+01)
 number of electron     693.0000069 magnetization       9.4587536
 augmentation part      184.0917081 magnetization       8.9878429

 Broyden mixing:
  rms(total) = 0.38201E+01    rms(broyden)= 0.38198E+01
  rms(prec ) = 0.45548E+01
  weight for this iteration     100.00

 eigenvalues of (default mixing * dielectric matrix)
  average eigenvalue GAMMA=   0.5904
  1.9182  0.4982  0.4982  0.2411  0.2411  0.1456

 Free energy of the ion-electron system (eV)
  ---------------------------------------------------
  alpha Z        PSCENC =      3850.40098805
  Ewald energy   TEWEN  =    -44934.13965157
  -Hartree energ DENC   =    -12555.56446909
  -exchange      EXHF   =         0.00000000
  -V(xc)+E(xc)   XCENC  =      2620.88286204
  PAW double counting   =     81647.29535188   -82543.96933775
  entropy T*S    EENTRO =        -0.02604786
  eigenvalues    EBANDS =     -6182.56373097
  atomic energy  EATOM  =     57237.82299039
  Solvation  Ediel_sol  =         0.00000000
  ---------------------------------------------------
  free energy    TOTEN  =      -859.86104487 eV

  energy without entropy =     -859.83499702  energy(sigma->0) =     -859.84802095


--------------------------------------------------------------------------------------------------------




--------------------------------------- Iteration      1(  12)  ---------------------------------------


    POTLOK:  cpu time    0.2625: real time    0.2632
    SETDIJ:  cpu time    0.0407: real time    0.0408
     EDDAV:  cpu time    6.8606: real time    6.8769
    CHARGE:  cpu time    0.3235: real time    0.3242
    MIXING:  cpu time    0.0079: real time    0.0079
    --------------------------------------------
      LOOP:  cpu time    7.4952: real time    7.5130

 eigenvalue-minimisations  :  2304
 total energy-change (2. order) : 0.4162300E+01  (-0.8652982E+01)
 number of electron     693.0000069 magnetization       8.3548596
 augmentation part      182.0615921 magnetization       7.2798965

 Broyden mixing:
  rms(total) = 0.34631E+01    rms(broyden)= 0.34625E+01
  rms(prec ) = 0.42890E+01
  weight for this iteration     100.00

 eigenvalues of (default mixing * dielectric matrix)
  average eigenvalue GAMMA=   0.5651
  1.9464  0.5184  0.5184  0.3199  0.3199  0.1560  0.1766

 Free energy of the ion-electron system (eV)
  ---------------------------------------------------
  alpha Z        PSCENC =      3850.40098805
  Ewald energy   TEWEN  =    -44934.13965157
  -Hartree energ DENC   =    -12585.95848945
  -exchange      EXHF   =         0.00000000
  -V(xc)+E(xc)   XCENC  =      2622.17636070
  PAW double counting   =     82556.84099923   -83463.43256708
  entropy T*S    EENTRO =        -0.02189145
  eigenvalues    EBANDS =     -6139.38748388
  atomic energy  EATOM  =     57237.82299039
  Solvation  Ediel_sol  =         0.00000000
  ---------------------------------------------------
  free energy    TOTEN  =      -855.69874507 eV

  energy without entropy =     -855.67685361  energy(sigma->0) =     -855.68779934


--------------------------------------------------------------------------------------------------------




--------------------------------------- Iteration      1(  13)  ---------------------------------------


    POTLOK:  cpu time    0.2578: real time    0.2584
    SETDIJ:  cpu time    0.0427: real time    0.0428
     EDDAV:  cpu time    6.3179: real time    6.3329
    CHARGE:  cpu time    0.2517: real time    0.2523
    MIXING:  cpu time    0.0073: real time    0.0073
    --------------------------------------------
      LOOP:  cpu time    6.8774: real time    6.8937

 eigenvalue-minimisations  :  2080
 total energy-change (2. order) : 0.3296339E+01  (-0.4600606E+01)
 number of electron     693.0000069 magnetization       7.9338886
 augmentation part      182.6516871 magnetization       7.9944601

 Broyden mixing:
  rms(total) = 0.31890E+01    rms(broyden)= 0.31883E+01
  rms(prec ) = 0.38096E+01
  weight for this iteration     100.00

 eigenvalues of (default mixing * dielectric matrix)
  average eigenvalue GAMMA=   0.5394
  1.9797  0.5117  0.5117  0.3925  0.3925  0.2266  0.1504  0.1504

 Free energy of the ion-electron system (eV)
  ---------------------------------------------------
  alpha Z        PSCENC =      3850.40098805
  Ewald energy   TEWEN  =    -44934.13965157
  -Hartree energ DENC   =    -12584.37597757
  -exchange      EXHF   =         0.00000000
  -V(xc)+E(xc)   XCENC  =      2621.91921600
  PAW double counting   =     83256.43505114   -84161.17881500
  entropy T*S    EENTRO =        -0.03631349
  eigenvalues    EBANDS =     -6139.24989433
  atomic energy  EATOM  =     57237.82299039
  Solvation  Ediel_sol  =         0.00000000
  ---------------------------------------------------
  free energy    TOTEN  =      -852.40240637 eV

  energy without entropy =     -852.36609288  energy(sigma->0) =     -852.38424963


--------------------------------------------------------------------------------------------------------




--------------------------------------- Iteration      1(  14)  ---------------------------------------


    POTLOK:  cpu time    0.2442: real time    0.2448
    SETDIJ:  cpu time    0.0412: real time    0.0413
     EDDAV:  cpu time    6.4021: real time    6.4173
    CHARGE:  cpu time    0.3246: real time    0.3254
    MIXING:  cpu time    0.0083: real time    0.0083
    --------------------------------------------
      LOOP:  cpu time    7.0205: real time    7.0371

 eigenvalue-minimisations  :  2256
 total energy-change (2. order) : 0.3753376E+01  (-0.3530557E+01)
 number of electron     693.0000070 magnetization       7.5794666
 augmentation part      182.2923982 magnetization       7.6212849

 Broyden mixing:
  rms(total) = 0.27772E+01    rms(broyden)= 0.27766E+01
  rms(prec ) = 0.33424E+01
  weight for this iteration     100.00

 eigenvalues of (default mixing * dielectric matrix)
  average eigenvalue GAMMA=   0.5168
  2.0111  0.5254  0.5254  0.4621  0.4621  0.2349  0.1560  0.1560  0.1183

 Free energy of the ion-electron system (eV)
  ---------------------------------------------------
  alpha Z        PSCENC =      3850.40098805
  Ewald energy   TEWEN  =    -44934.13965157
  -Hartree energ DENC   =    -12592.78438399
  -exchange      EXHF   =         0.00000000
  -V(xc)+E(xc)   XCENC  =      2622.36120804
  PAW double counting   =     83431.57687176   -84337.64095835
  entropy T*S    EENTRO =        -0.04448068
  eigenvalues    EBANDS =     -6126.20161397
  atomic energy  EATOM  =     57237.82299039
  Solvation  Ediel_sol  =         0.00000000
  ---------------------------------------------------
  free energy    TOTEN  =      -848.64903032 eV

  energy without entropy =     -848.60454964  energy(sigma->0) =     -848.62678998


--------------------------------------------------------------------------------------------------------




--------------------------------------- Iteration      1(  15)  ---------------------------------------


    POTLOK:  cpu time    0.2720: real time    0.2726
    SETDIJ:  cpu time    0.0450: real time    0.0451
     EDDAV:  cpu time    6.8755: real time    6.8918
    CHARGE:  cpu time    0.3244: real time    0.3252
    MIXING:  cpu time    0.0081: real time    0.0081
    --------------------------------------------
      LOOP:  cpu time    7.5249: real time    7.5428

 eigenvalue-minimisations  :  2416
 total energy-change (2. order) : 0.1732497E+01  (-0.2291760E+01)
 number of electron     693.0000069 magnetization       6.0476821
 augmentation part      181.5864350 magnetization       5.1807738

 Broyden mixing:
  rms(total) = 0.27396E+01    rms(broyden)= 0.27388E+01
  rms(prec ) = 0.34221E+01
  weight for this iteration     100.00

 eigenvalues of (default mixing * dielectric matrix)
  average eigenvalue GAMMA=   0.5444
  2.1222  0.6511  0.6511  0.5834  0.5834  0.2289  0.2289  0.1501  0.1226  0.1226

 Free energy of the ion-electron system (eV)
  ---------------------------------------------------
  alpha Z        PSCENC =      3850.40098805
  Ewald energy   TEWEN  =    -44934.13965157
  -Hartree energ DENC   =    -12598.31034332
  -exchange      EXHF   =         0.00000000
  -V(xc)+E(xc)   XCENC  =      2622.58613977
  PAW double counting   =     83526.90606074   -84433.68769477
  entropy T*S    EENTRO =        -0.05102035
  eigenvalues    EBANDS =     -6118.44400277
  atomic energy  EATOM  =     57237.82299039
  Solvation  Ediel_sol  =         0.00000000
  ---------------------------------------------------
  free energy    TOTEN  =      -846.91653382 eV

  energy without entropy =     -846.86551347  energy(sigma->0) =     -846.89102365


--------------------------------------------------------------------------------------------------------




--------------------------------------- Iteration      1(  16)  ---------------------------------------


    POTLOK:  cpu time    0.2585: real time    0.2591
    SETDIJ:  cpu time    0.0420: real time    0.0421
     EDDAV:  cpu time    6.6576: real time    6.6734
    CHARGE:  cpu time    0.3041: real time    0.3049
    MIXING:  cpu time    0.0094: real time    0.0166
    --------------------------------------------
      LOOP:  cpu time    7.2716: real time    7.2961

 eigenvalue-minimisations  :  2288
 total energy-change (2. order) : 0.1148869E+01  (-0.3495033E+01)
 number of electron     693.0000069 magnetization       5.7635227
 augmentation part      182.1081868 magnetization       5.3556749

 Broyden mixing:
  rms(total) = 0.28924E+01    rms(broyden)= 0.28918E+01
  rms(prec ) = 0.35561E+01
  weight for this iteration     100.00

 eigenvalues of (default mixing * dielectric matrix)
  average eigenvalue GAMMA=   0.5126
  2.1077  0.7204  0.7204  0.5510  0.5510  0.2174  0.1869  0.1869  0.1488  0.1242
  0.1242

 Free energy of the ion-electron system (eV)
  ---------------------------------------------------
  alpha Z        PSCENC =      3850.40098805
  Ewald energy   TEWEN  =    -44934.13965157
  -Hartree energ DENC   =    -12603.46722694
  -exchange      EXHF   =         0.00000000
  -V(xc)+E(xc)   XCENC  =      2622.70895378
  PAW double counting   =     83804.32759064   -84707.10178251
  entropy T*S    EENTRO =        -0.01579028
  eigenvalues    EBANDS =     -6116.30373679
  atomic energy  EATOM  =     57237.82299039
  Solvation  Ediel_sol  =         0.00000000
  ---------------------------------------------------
  free energy    TOTEN  =      -845.76766523 eV

  energy without entropy =     -845.75187495  energy(sigma->0) =     -845.75977009


--------------------------------------------------------------------------------------------------------




--------------------------------------- Iteration      1(  17)  ---------------------------------------


    POTLOK:  cpu time    0.2570: real time    0.2576
    SETDIJ:  cpu time    0.0426: real time    0.0427
     EDDAV:  cpu time    6.9120: real time    6.9284
    CHARGE:  cpu time    0.3061: real time    0.3068
    MIXING:  cpu time    0.0095: real time    0.0095
    --------------------------------------------
      LOOP:  cpu time    7.5273: real time    7.5452

 eigenvalue-minimisations  :  2400
 total energy-change (2. order) : 0.2264961E+01  (-0.1656714E+01)
 number of electron     693.0000070 magnetization       5.6265655
 augmentation part      181.9684467 magnetization       5.9135044

 Broyden mixing:
  rms(total) = 0.22280E+01    rms(broyden)= 0.22273E+01
  rms(prec ) = 0.26739E+01
  weight for this iteration     100.00

 eigenvalues of (default mixing * dielectric matrix)
  average eigenvalue GAMMA=   0.4826
  2.1076  0.6943  0.6943  0.5897  0.5897  0.1821  0.1821  0.1866  0.1866  0.1495
  0.1144  0.1144

 Free energy of the ion-electron system (eV)
  ---------------------------------------------------
  alpha Z        PSCENC =      3850.40098805
  Ewald energy   TEWEN  =    -44934.13965157
  -Hartree energ DENC   =    -12606.53421853
  -exchange      EXHF   =         0.00000000
  -V(xc)+E(xc)   XCENC  =      2622.75334193
  PAW double counting   =     83778.53112953   -84680.56569335
  entropy T*S    EENTRO =        -0.04902380
  eigenvalues    EBANDS =     -6111.72256691
  atomic energy  EATOM  =     57237.82299039
  Solvation  Ediel_sol  =         0.00000000
  ---------------------------------------------------
  free energy    TOTEN  =      -843.50270426 eV

  energy without entropy =     -843.45368046  energy(sigma->0) =     -843.47819236


--------------------------------------------------------------------------------------------------------




--------------------------------------- Iteration      1(  18)  ---------------------------------------


    POTLOK:  cpu time    0.2671: real time    0.2677
    SETDIJ:  cpu time    0.0417: real time    0.0418
     EDDAV:  cpu time    7.2858: real time    7.3030
    CHARGE:  cpu time    0.3115: real time    0.3122
    MIXING:  cpu time    0.0097: real time    0.0097
    --------------------------------------------
      LOOP:  cpu time    7.9157: real time    7.9345

 eigenvalue-minimisations  :  2528
 total energy-change (2. order) : 0.5098191E+00  (-0.3163530E+00)
 number of electron     693.0000069 magnetization       4.4610434
 augmentation part      181.8961347 magnetization       4.4883104

 Broyden mixing:
  rms(total) = 0.21614E+01    rms(broyden)= 0.21610E+01
  rms(prec ) = 0.26111E+01
  weight for this iteration     100.00

 eigenvalues of (default mixing * dielectric matrix)
  average eigenvalue GAMMA=   0.5118
  2.0584  0.9534  0.9534  0.6210  0.6210  0.3113  0.3113  0.1868  0.1868  0.1485
  0.1205  0.1205  0.0604

 Free energy of the ion-electron system (eV)
  ---------------------------------------------------
  alpha Z        PSCENC =      3850.40098805
  Ewald energy   TEWEN  =    -44934.13965157
  -Hartree energ DENC   =    -12607.93175969
  -exchange      EXHF   =         0.00000000
  -V(xc)+E(xc)   XCENC  =      2622.79567039
  PAW double counting   =     83769.16729229   -84670.70525869
  entropy T*S    EENTRO =        -0.06218832
  eigenvalues    EBANDS =     -6110.34096797
  atomic energy  EATOM  =     57237.82299039
  Solvation  Ediel_sol  =         0.00000000
  ---------------------------------------------------
  free energy    TOTEN  =      -842.99288513 eV

  energy without entropy =     -842.93069681  energy(sigma->0) =     -842.96179097


--------------------------------------------------------------------------------------------------------




--------------------------------------- Iteration      1(  19)  ---------------------------------------


    POTLOK:  cpu time    0.2577: real time    0.2583
    SETDIJ:  cpu time    0.0408: real time    0.0409
     EDDAV:  cpu time    7.3253: real time    7.3426
    CHARGE:  cpu time    0.3243: real time    0.3251
    MIXING:  cpu time    0.0112: real time    0.0112
    --------------------------------------------
      LOOP:  cpu time    7.9592: real time    7.9781

 eigenvalue-minimisations  :  2496
 total energy-change (2. order) : 0.9797620E+00  (-0.1536855E+01)
 number of electron     693.0000070 magnetization       4.3449834
 augmentation part      180.5606077 magnetization       3.8962830

 Broyden mixing:
  rms(total) = 0.26078E+01    rms(broyden)= 0.26069E+01
  rms(prec ) = 0.29484E+01
  weight for this iteration     100.00

 eigenvalues of (default mixing * dielectric matrix)
  average eigenvalue GAMMA=   0.4834
  2.0718  0.9613  0.9613  0.6319  0.6319  0.3151  0.3151  0.1781  0.1781  0.1464
  0.1221  0.1221  0.0818  0.0501

 Free energy of the ion-electron system (eV)
  ---------------------------------------------------
  alpha Z        PSCENC =      3850.40098805
  Ewald energy   TEWEN  =    -44934.13965157
  -Hartree energ DENC   =    -12618.41872811
  -exchange      EXHF   =         0.00000000
  -V(xc)+E(xc)   XCENC  =      2623.05250102
  PAW double counting   =     83646.79427633   -84545.52993061
  entropy T*S    EENTRO =        -0.01079606
  eigenvalues    EBANDS =     -6101.98477253
  atomic energy  EATOM  =     57237.82299039
  Solvation  Ediel_sol  =         0.00000000
  ---------------------------------------------------
  free energy    TOTEN  =      -842.01312310 eV

  energy without entropy =     -842.00232704  energy(sigma->0) =     -842.00772507


--------------------------------------------------------------------------------------------------------




--------------------------------------- Iteration      1(  20)  ---------------------------------------


    POTLOK:  cpu time    0.2676: real time    0.2682
    SETDIJ:  cpu time    0.0413: real time    0.0414
     EDDAV:  cpu time    7.2549: real time    7.2721
    CHARGE:  cpu time    0.3193: real time    0.3201
    MIXING:  cpu time    0.0130: real time    0.0130
    --------------------------------------------
      LOOP:  cpu time    7.8961: real time    7.9148

 eigenvalue-minimisations  :  2432
 total energy-change (2. order) : 0.2906743E+00  (-0.1796553E+00)
 number of electron     693.0000069 magnetization       4.2911048
 augmentation part      180.6335440 magnetization       3.9044037

 Broyden mixing:
  rms(total) = 0.24377E+01    rms(broyden)= 0.24375E+01
  rms(prec ) = 0.27841E+01
  weight for this iteration     100.00

 eigenvalues of (default mixing * dielectric matrix)
  average eigenvalue GAMMA=   0.4582
  2.0836  0.9562  0.9562  0.6405  0.6405  0.3167  0.3167  0.1656  0.1656  0.1433
  0.1281  0.1281  0.0856  0.0856  0.0607

 Free energy of the ion-electron system (eV)
  ---------------------------------------------------
  alpha Z        PSCENC =      3850.40098805
  Ewald energy   TEWEN  =    -44934.13965157
  -Hartree energ DENC   =    -12618.36669303
  -exchange      EXHF   =         0.00000000
  -V(xc)+E(xc)   XCENC  =      2623.05997395
  PAW double counting   =     83669.64792642   -84567.97531348
  entropy T*S    EENTRO =        -0.03165214
  eigenvalues    EBANDS =     -6102.14101740
  atomic energy  EATOM  =     57237.82299039
  Solvation  Ediel_sol  =         0.00000000
  ---------------------------------------------------
  free energy    TOTEN  =      -841.72244882 eV

  energy without entropy =     -841.69079668  energy(sigma->0) =     -841.70662275


--------------------------------------------------------------------------------------------------------




--------------------------------------- Iteration      1(  21)  ---------------------------------------


    POTLOK:  cpu time    0.2612: real time    0.2618
    SETDIJ:  cpu time    0.0408: real time    0.0409
     EDDAV:  cpu time    7.2484: real time    7.2656
    CHARGE:  cpu time    0.3183: real time    0.3191
    MIXING:  cpu time    0.0101: real time    0.0101
    --------------------------------------------
      LOOP:  cpu time    7.8787: real time    7.8974

 eigenvalue-minimisations  :  2464
 total energy-change (2. order) :-0.1753695E+00  (-0.9028368E-01)
[...]
      5.83979      5.18348      1.71022         0.016240      0.094312      0.102174
      7.28773     10.38808      0.61731        -0.104805      0.428811     -0.519212
      1.49785     15.31038      2.57144         0.019653     -0.013889      0.011007
     10.00432      4.82964      4.25923        -0.324011     -0.752558      0.569363
      2.78999     10.23050      3.63957        -0.351985      0.102006      0.621592
      5.71111      4.95502      6.89184        -0.284232     -0.502902      0.171333
      7.62268     10.33224      5.96587         0.570027      0.289725      0.004638
     10.20953     10.14656      5.94917         0.118891     -0.576879      0.155877
     11.75164      5.23428      6.67741         0.179169      0.542051     -0.197779
     13.09168      7.61282      7.53642         0.041575      0.080288     -0.033742
      8.78664     12.83052      1.71775         0.035301      0.012126      0.039493
      1.42193      2.49932      0.89028        -0.035542     -0.021963      0.049909
      7.23062      7.66237      7.56358        -0.013782      0.069374      0.037749
      2.87819     12.77413      1.78592        -0.010436     -0.067766     -0.041095
      4.41814      2.66478      0.83755         0.006719      0.107868     -0.050322
     10.35439      7.69365      7.61591        -0.023605      0.031335      0.012917
      5.89293     12.68266      1.70130        -0.017674     -0.060620      0.071217
      7.21358      2.71120      0.78341        -0.004153      0.050265     -0.025260
      7.29399      7.68342      2.41216         0.093357      0.022853     -0.012059
      7.31518     12.71285      4.27240        -0.001917     -0.056944     -0.028436
      8.84605      2.54319      3.32115        -0.022125     -0.061828     -0.094102
     10.23783      7.66676      2.63512        -0.084743     -0.031854      0.074003
     10.28891     12.74946      4.21956        -0.014422     -0.008276      0.031276
      2.81835      2.55572      3.37911         0.002330      0.057848     -0.012017
      4.36851      7.65240      2.53379        -0.013815      0.000230     -0.009970
      4.36975     12.71228      4.24982         0.056834     -0.046277      0.019904
      5.81609      2.69983      3.27707         0.015930      0.092518      0.005592
      5.89126      7.65561      5.18990         0.036359     -0.077478     -0.004985
      5.88828     12.69856      6.73440         0.005772     -0.067462     -0.017710
      7.21835      2.67573      5.99719        -0.009164      0.081163      0.033051
      8.79982      7.72903      5.16206         0.001057     -0.062132      0.015862
      8.76133     12.66349      6.68758         0.060237      0.022153      0.022896
     10.25942      2.68559      5.89604         0.016420      0.001593      0.045915
     11.51547      7.65637      5.07979        -0.040797     -0.037675     -0.004771
     11.60799     12.66498      6.80383        -0.006167      0.011682     -0.055630
      4.33687      2.69683      6.03986        -0.073934      0.002076     -0.013958
      4.55693     11.44498      7.45710        -0.050045      0.031736      0.025483
      8.80377      3.74763      0.04614        -0.043857     -0.289182      0.200273
      8.71837      1.17556      1.65335         0.042318     -0.053550      0.021445
      8.86800      9.14685      1.78769        -0.003500      0.055581      0.075517
      1.44030      6.58537      1.10799        -0.051497     -0.120668      0.077337
      1.49782     14.10720      0.80843         0.017024      0.021709      0.008443
      2.96121     11.44241      0.26287        -0.026749     -0.050858     -0.134351
      3.05231      4.01699      0.05861         0.117815      0.086553      0.004180
      2.95491      1.20470      1.65950        -0.023107     -0.006306     -0.015294
      2.95234      9.13721      1.56018         0.023366      0.074452     -0.093390
      4.18618      6.34819      0.69566         0.003955     -0.068304     -0.000740
      4.38106     14.03062      0.89368        -0.012601      0.061332      0.018180
      5.83104     11.60359      0.10595        -0.109434      0.203577     -0.006933
     10.17432      3.92897      7.63746         0.056516      0.145229     -0.023171
      5.81633      1.47864      1.64079        -0.013296      0.018764      0.003540
      5.59896      8.88811      1.79880         0.096188     -0.045311      0.025020
      7.31309      6.36529      0.90932        -0.065562     -0.079926     -0.116988
      7.37580     13.97176      0.88316         0.008821      0.017138      0.017580
      7.31063     11.27252      2.69842        -0.008348     -0.093246      0.112064
      7.53131      3.89114      2.60756         0.037399     -0.069435     -0.055005
      7.30228      1.34583      4.18728         0.001084     -0.006196     -0.016551
      7.34873      8.90871      3.95537        -0.008535     -0.022425      0.107755
      8.64469      6.32110      3.24068        -0.141873      0.177354     -0.243117
      8.72986     14.15110      3.42151         0.020736      0.050968      0.010110
      9.98750     11.48015      2.42563         0.097838     -0.043779     -0.034244
      1.44907      3.86805      2.44809         0.098992      0.236213     -0.216016
     10.18794      1.23793      4.26892        -0.013803     -0.023576     -0.014591
     10.19370      8.80416      4.13643        -0.090766     -0.078996      0.043391
      3.15396      6.42068      3.28661        -0.161497     -0.032844     -0.075316
      2.98757     14.13204      3.42557        -0.008420      0.066878      0.000886
      4.51961     11.26304      2.47294         0.090160     -0.098013     -0.044001
      4.27092      4.08382      2.57898        -0.013763      0.049059     -0.018300
      4.32990      1.29441      4.20011        -0.001562     -0.038705     -0.011158
      4.61004      8.90965      4.39338        -0.056499     -0.036854     -0.073825
      5.83570      6.23559      3.50678         0.028250     -0.093206     -0.003596
      5.86327     13.89919      3.44400        -0.007612      0.068883      0.000077
      5.74255     11.21826      5.03418        -0.031594     -0.115997     -0.032152
      5.80142      3.95548      4.85081         0.006861      0.136170      0.065326
      5.80854      1.35900      6.79394         0.006741      0.010424     -0.009882
      5.68585      9.07783      6.87171        -0.137486     -0.022511      0.042659
      7.39583      6.25953      5.83425         0.030246     -0.110640     -0.007248
      7.28127     13.87329      5.93510        -0.003834      0.017886     -0.000802
      8.77178     11.60734      5.01226         0.107489      0.187928     -0.141446
      8.58172      3.88482      5.26068        -0.017908     -0.280090     -0.020198
      8.75765      1.42432      6.78151        -0.010145     -0.042924     -0.002068
      8.70239      8.84199      6.82892         0.047186     -0.020784      0.074417
     10.16393      6.55347      6.00005         0.093038      0.209354      0.261592
     10.23764     14.06698      5.90525        -0.000551      0.102870      0.010928
      2.99366     11.57977      5.07178         0.088322      0.203631      0.055956
      2.91882      3.81003      4.98792         0.079121     -0.161855     -0.112625
     11.59800      1.47090      6.76375        -0.009441     -0.026674     -0.009322
     11.70655      8.84961      6.74845        -0.088580     -0.048871     -0.150725
      4.41552      6.42886      5.88802        -0.028552      0.024559     -0.065891
      4.44068     13.91650      5.92537         0.005315      0.057534     -0.004876
 -----------------------------------------------------------------------------------
    total drift:                               -0.005091     -0.003305     -0.007361


--------------------------------------------------------------------------------------------------------



  FREE ENERGIE OF THE ION-ELECTRON SYSTEM (eV)
  ---------------------------------------------------
  free  energy   TOTEN  =      -841.9119226764 eV

  energy  without entropy=     -841.8449744503  energy(sigma->0) =     -841.87844856
 
 d Force = 0.3793378E-01[ 0.379E-01, 0.379E-01]  d Energy = 0.3811301E-01-0.179E-03
 d Force =-0.4136756E+01[-0.417E+01,-0.411E+01]  d Ewald  =-0.5086559E+01 0.950E+00


--------------------------------------------------------------------------------------------------------


    POTLOK:  cpu time    0.3148: real time    0.3156


--------------------------------------------------------------------------------------------------------


 Quasi-Newton relaxation of ions (Broydens 2nd method)
  g(Force)  = 0.253E+00   g(Stress)= 0.183E-02

 retain information from N=  2 steps
 eigenvalues of (default step * inverse Hessian matrix)
  average eigenvalue of G=   3.9082
 eigenvalue spectrum of G is  1.4472  6.3691


--------------------------------------------------------------------------------------------------------


     LOOP+:  cpu time  137.0788: real time  137.5504
    4ORBIT:  cpu time    0.0000: real time    0.0000

volume of typ            1:    17.7 %

volume of typ            2:     5.6 %

volume of typ            3:    20.6 %

volume of typ            4:     8.6 %
 
total charge     
 
# of ion       s       p       d       tot
------------------------------------------
    1        0.230   6.080   2.165   8.475
    2        0.261   6.131   2.065   8.457
    3        0.288   6.181   1.956   8.425
    4        0.232   6.085   2.139   8.457
    5        0.267   6.146   2.019   8.432
    6        0.267   6.140   2.029   8.435
    7        0.218   6.052   2.267   8.537
    8        0.232   6.084   2.167   8.483
    9        0.279   6.168   1.985   8.432
   10        0.268   6.143   2.032   8.443
   11        0.235   6.090   2.146   8.471
   12        0.275   6.152   2.006   8.432
   13        0.290   6.189   1.943   8.422
   14        0.219   6.052   2.274   8.545
   15        0.232   6.085   2.136   8.454
   16        0.278   6.152   2.029   8.458
   17        0.234   6.088   2.132   8.454
   18        0.268   6.143   2.038   8.449
   19        0.179   0.190   8.071   8.441
   20        0.181   0.191   8.136   8.508
   21        0.197   0.209   7.996   8.403
   22        0.176   0.202   8.173   8.551
   23        0.189   0.189   8.135   8.513
   24        0.189   0.195   8.123   8.506
   25        0.191   0.196   8.141   8.528
   26        0.181   0.189   8.142   8.513
   27        0.184   0.195   8.109   8.488
   28        2.079   0.270   0.104   2.453
   29        2.079   0.256   0.101   2.436
   30        2.079   0.264   0.104   2.446
   31        2.077   0.263   0.101   2.441
   32        2.068   0.228   0.086   2.382
   33        2.081   0.272   0.108   2.461
   34        2.084   0.281   0.110   2.475
   35        2.083   0.276   0.110   2.469
   36        2.083   0.278   0.112   2.473
   37        2.082   0.270   0.105   2.457
   38        2.086   0.284   0.114   2.485
   39        2.076   0.252   0.097   2.425
   40        2.100   0.319   0.131   2.550
   41        2.072   0.245   0.095   2.412
   42        2.072   0.245   0.094   2.411
   43        2.092   0.295   0.119   2.506
   44        2.084   0.277   0.110   2.470
   45        2.073   0.244   0.095   2.413
   46        2.075   0.255   0.097   2.427
   47        2.084   0.276   0.111   2.471
   48        2.075   0.250   0.099   2.423
   49        2.083   0.283   0.111   2.476
   50        2.080   0.269   0.107   2.456
   51        2.081   0.272   0.108   2.461
   52        2.083   0.279   0.109   2.471
   53        2.077   0.263   0.104   2.445
   54        2.078   0.264   0.105   2.447
   55        1.249   2.852   0.006   4.107
   56        1.247   2.842   0.007   4.096
   57        1.243   2.836   0.005   4.084
   58        1.252   2.843   0.005   4.100
   59        1.250   2.846   0.006   4.102
   60        1.244   2.832   0.005   4.081
   61        1.249   2.848   0.005   4.101
   62        1.247   2.847   0.005   4.099
   63        1.243   2.831   0.005   4.079
   64        1.252   2.842   0.005   4.099
   65        1.250   2.851   0.005   4.106
   66        1.247   2.835   0.006   4.088
   67        1.247   2.842   0.006   4.095
   68        1.252   2.831   0.005   4.088
   69        1.243   2.839   0.006   4.087
   70        1.248   2.862   0.005   4.114
   71        1.250   2.831   0.006   4.086
   72        1.244   2.839   0.006   4.089
   73        1.250   2.843   0.005   4.099
   74        1.249   2.847   0.005   4.102
   75        1.246   2.832   0.006   4.085
   76        1.251   2.854   0.005   4.109
   77        1.253   2.840   0.006   4.098
   78        1.244   2.832   0.005   4.081
   79        1.248   2.851   0.005   4.103
   80        1.247   2.843   0.006   4.095
   81        1.242   2.835   0.005   4.082
   82        1.249   2.843   0.006   4.098
   83        1.247   2.864   0.004   4.115
   84        1.241   2.835   0.005   4.081
   85        1.251   2.840   0.005   4.096
   86        1.246   2.843   0.005   4.093
   87        1.246   2.836   0.006   4.088
   88        1.252   2.852   0.005   4.110
   89        1.247   2.843   0.005   4.095
   90        1.244   2.834   0.006   4.084
   91        1.250   2.844   0.005   4.098
   92        1.246   2.851   0.005   4.102
   93        1.244   2.839   0.006   4.089
   94        1.249   2.847   0.004   4.100
   95        1.248   2.847   0.004   4.099
   96        1.244   2.837   0.006   4.087
   97        1.248   2.839   0.006   4.093
   98        1.247   2.855   0.007   4.109
   99        1.246   2.832   0.006   4.084
  100        1.251   2.825   0.006   4.082
  101        1.256   2.838   0.006   4.099
  102        1.246   2.839   0.006   4.091
  103        1.248   2.834   0.006   4.088
  104        1.250   2.829   0.006   4.086
  105        1.245   2.838   0.006   4.089
  106        1.251   2.829   0.006   4.086
  107        1.251   2.825   0.006   4.082
  108        1.246   2.832   0.006   4.085
--------------------------------------------------
tot         129.78  272.54  113.70  516.02
 
magnetization (x)
 
# of ion       s       p       d       tot
------------------------------------------
    1       -0.001  -0.001  -0.051  -0.052
    2        0.002   0.003   0.185   0.191
    3        0.000   0.000   0.022   0.023
    4       -0.000  -0.000  -0.026  -0.027
    5        0.002   0.002   0.179   0.183
    6        0.002   0.001   0.050   0.053
    7       -0.000  -0.000  -0.017  -0.018
    8       -0.001  -0.001  -0.056  -0.057
    9        0.000   0.000   0.015   0.016
   10        0.002   0.001   0.047   0.050
   11       -0.001  -0.001  -0.056  -0.057
   12        0.001   0.001   0.036   0.038
   13        0.000   0.000   0.017   0.018
   14       -0.000  -0.000  -0.021  -0.021
   15       -0.001  -0.000  -0.032  -0.033
   16        0.001   0.001   0.024   0.026
   17       -0.001  -0.001  -0.037  -0.038
   18        0.002   0.002   0.050   0.053
   19       -0.000  -0.001  -0.880  -0.881
   20        0.000  -0.001  -0.477  -0.478
   21        0.002   0.001   1.312   1.316
   22        0.000   0.000  -0.014  -0.013
   23        0.001  -0.002  -0.488  -0.489
   24        0.001  -0.001  -0.490  -0.490
   25        0.001  -0.002  -0.441  -0.442
   26        0.000   0.001  -0.526  -0.525
   27       -0.001  -0.000  -0.744  -0.744
   28       -0.001  -0.002  -0.000  -0.003
   29        0.000   0.000  -0.000   0.000
   30       -0.000  -0.001  -0.000  -0.001
   31        0.000  -0.002  -0.000  -0.002
   32        0.000  -0.000  -0.000  -0.000
   33        0.000   0.000   0.000   0.000
   34        0.000   0.000   0.000   0.001
   35       -0.000  -0.000  -0.000  -0.001
   36       -0.000   0.000   0.000   0.000
   37        0.000  -0.000  -0.000  -0.000
   38        0.000   0.000   0.000   0.001
   39        0.000  -0.000  -0.000  -0.000
   40        0.000  -0.000  -0.000  -0.000
   41       -0.000  -0.001  -0.000  -0.001
   42       -0.000  -0.001  -0.000  -0.002
   43        0.000   0.001   0.000   0.001
   44        0.001   0.001   0.000   0.002
   45        0.000   0.001   0.000   0.001
   46       -0.000  -0.002  -0.001  -0.003
   47        0.001   0.001   0.000   0.002
   48        0.000   0.000   0.000   0.000
   49       -0.001  -0.001  -0.000  -0.002
   50       -0.000  -0.000   0.000  -0.000
   51        0.000   0.000   0.000   0.001
   52       -0.000  -0.000   0.000  -0.000
   53       -0.000  -0.000   0.000  -0.000
   54        0.000   0.001   0.000   0.001
   55        0.000  -0.000   0.000  -0.000
   56       -0.004  -0.032   0.000  -0.036
   57        0.004   0.044   0.000   0.048
   58       -0.001  -0.008   0.000  -0.009
   59        0.001   0.023   0.001   0.024
   60        0.003   0.036  -0.000   0.039
   61        0.000  -0.001   0.000  -0.000
   62       -0.002  -0.011   0.000  -0.013
   63        0.004   0.040   0.000   0.043
   64       -0.001  -0.007   0.000  -0.008
   65       -0.001  -0.012   0.000  -0.013
   66       -0.000  -0.000  -0.000  -0.001
   67       -0.002  -0.017   0.000  -0.018
   68       -0.003  -0.031  -0.000  -0.034
   69       -0.000  -0.003  -0.000  -0.003
   70        0.000   0.004   0.000   0.005
   71       -0.003  -0.036   0.000  -0.039
   72        0.000  -0.001  -0.000  -0.001
   73       -0.002  -0.009   0.000  -0.011
   74       -0.000  -0.007   0.000  -0.007
   75        0.000  -0.001  -0.000  -0.001
   76        0.000   0.002   0.000   0.003
   77       -0.000  -0.001   0.000  -0.001
   78        0.004   0.038   0.000   0.042
   79        0.000  -0.000   0.000   0.000
   80        0.000   0.014   0.001   0.015
   81        0.003   0.037  -0.000   0.040
   82       -0.002  -0.021   0.000  -0.022
   83        0.000   0.001   0.000   0.001
   84        0.004   0.042   0.000   0.046
   85       -0.001  -0.009   0.000  -0.011
   86       -0.003  -0.026   0.000  -0.029
   87        0.000   0.001  -0.000   0.001
   88        0.000   0.001   0.000   0.002
   89       -0.003  -0.024  -0.000  -0.027
   90        0.000  -0.000  -0.000  -0.000
   91       -0.002  -0.008   0.000  -0.009
   92        0.000  -0.001   0.000  -0.001
   93       -0.000  -0.002  -0.000  -0.002
   94       -0.001  -0.003   0.000  -0.003
   95       -0.001  -0.005  -0.000  -0.007
   96        0.000   0.001  -0.000   0.001
   97       -0.003  -0.026   0.000  -0.029
   98        0.000   0.001   0.000   0.001
   99        0.000   0.002  -0.000   0.002
  100       -0.003  -0.034   0.000  -0.037
  101       -0.001  -0.015  -0.000  -0.016
  102       -0.000  -0.001  -0.000  -0.001
  103       -0.002  -0.023   0.000  -0.026
  104       -0.001  -0.015   0.000  -0.016
  105       -0.000  -0.001  -0.000  -0.001
  106       -0.003  -0.033   0.000  -0.036
  107       -0.004  -0.044   0.000  -0.049
  108       -0.000   0.001  -0.000   0.000
--------------------------------------------------
tot          -0.01   -0.18   -2.41   -2.61
 

 total amount of memory used by VASP MPI-rank0   154440. kBytes
=======================================================================

   base      :      30000. kBytes
   nonlr-proj:      42198. kBytes
   fftplans  :       9702. kBytes
   grid      :      59236. kBytes
   one-center:       1679. kBytes
   wavefun   :      11625. kBytes
 
  
  
 General timing and accounting informations for this job:
 ========================================================
  
                  Total CPU time used (sec):     5082.312
                            User time (sec):     5060.451
                          System time (sec):       21.860
                         Elapsed time (sec):     5101.098
  
                   Maximum memory used (kb):      223580.
                   Average memory used (kb):           0.
  
                          Minor page faults:        42299
                          Major page faults:           65
                 Voluntary context switches:         1457
