 vasp.5.4.4.18Apr17-6-g9f103f2a35 (build May 12 2020 05:39:39) gamma-only       
  
 MD_VERSION_INFO: Compiled 2020-05-12T12:39:39-UTC in devlin.sd.materialsdesign.
 com:/home/medea2/data/build/wwolf/vasp-gpu5.4.4/13047/x86_64/src/src/build/gam 
 from svn 13047
 
 This VASP executable licensed from Materials Design, Inc.
 
 executed on                        Lin64 date 2023.04.04  06:32:18
 running on   16 total cores
 distrk:  each k-point on   16 cores,    1 groups
 distr:  one band on NCORES_PER_BAND=   1 cores,   16 groups


--------------------------------------------------------------------------------------------------------


 INCAR:
 POTCAR:    PAW_PBE Ta_pv 07Sep2000               
 POTCAR:    PAW_PBE Ni 02Aug2007                  
 POTCAR:    PAW_PBE Li_sv 10Sep2004               
 POTCAR:    PAW_PBE O 08Apr2002                   

 ----------------------------------------------------------------------------- 
|                                                                             |
|           W    W    AA    RRRRR   N    N  II  N    N   GGGG   !!!           |
|           W    W   A  A   R    R  NN   N  II  NN   N  G    G  !!!           |
|           W    W  A    A  R    R  N N  N  II  N N  N  G       !!!           |
|           W WW W  AAAAAA  RRRRR   N  N N  II  N  N N  G  GGG   !            |
|           WW  WW  A    A  R   R   N   NN  II  N   NN  G    G                |
|           W    W  A    A  R    R  N    N  II  N    N   GGGG   !!!           |
|                                                                             |
|      For optimal performance we recommend to set                            |
|        NCORE= 4 - approx SQRT( number of cores)                             |
|      NCORE specifies how many cores store one orbital (NPAR=cpu/NCORE).     |
|      This setting can  greatly improve the performance of VASP for DFT.     |
|      The default,   NCORE=1            might be grossly inefficient         |
|      on modern multi-core architectures or massively parallel machines.     |
|      Do your own testing !!!!                                               |
|      Unfortunately you need to use the default for GW and RPA calculations. |
|      (for HF NCORE is supported but not extensively tested yet)             |
|                                                                             |
 ----------------------------------------------------------------------------- 

 POTCAR:    PAW_PBE Ta_pv 07Sep2000               
  local pseudopotential read in
  partial core-charges read in
  partial kinetic energy density read in
  atomic valenz-charges read in
  non local Contribution for L=           1  read in
    real space projection operators read in
  non local Contribution for L=           1  read in
    real space projection operators read in
  non local Contribution for L=           2  read in
    real space projection operators read in
  non local Contribution for L=           2  read in
    real space projection operators read in
  non local Contribution for L=           0  read in
    real space projection operators read in
  non local Contribution for L=           0  read in
    real space projection operators read in
    PAW grid and wavefunctions read in
 
   number of l-projection  operators is LMAX  =           6
   number of lm-projection operators is LMMAX =          18
 
 POTCAR:    PAW_PBE Ni 02Aug2007                  
  local pseudopotential read in
  partial core-charges read in
  partial kinetic energy density read in
  atomic valenz-charges read in
  non local Contribution for L=           2  read in
    real space projection operators read in
  non local Contribution for L=           2  read in
    real space projection operators read in
  non local Contribution for L=           0  read in
    real space projection operators read in
  non local Contribution for L=           0  read in
    real space projection operators read in
  non local Contribution for L=           1  read in
    real space projection operators read in
  non local Contribution for L=           1  read in
    real space projection operators read in
    PAW grid and wavefunctions read in
 
   number of l-projection  operators is LMAX  =           6
   number of lm-projection operators is LMMAX =          18
 
 POTCAR:    PAW_PBE Li_sv 10Sep2004               
  local pseudopotential read in
  atomic valenz-charges read in
  non local Contribution for L=           0  read in
    real space projection operators read in
  non local Contribution for L=           0  read in
    real space projection operators read in
  non local Contribution for L=           1  read in
    real space projection operators read in
    PAW grid and wavefunctions read in
 
   number of l-projection  operators is LMAX  =           3
   number of lm-projection operators is LMMAX =           5
 
 POTCAR:    PAW_PBE O 08Apr2002                   
  local pseudopotential read in
  partial core-charges read in
  partial kinetic energy density read in
  kinetic energy density of atom read in
  atomic valenz-charges read in
  non local Contribution for L=           0  read in
    real space projection operators read in
  non local Contribution for L=           0  read in
    real space projection operators read in
  non local Contribution for L=           1  read in
    real space projection operators read in
  non local Contribution for L=           1  read in
    real space projection operators read in
    PAW grid and wavefunctions read in
 
   number of l-projection  operators is LMAX  =           4
   number of lm-projection operators is LMMAX =           8
 
 Optimization of the real space projectors (new method)

 maximal supplied QI-value         = 15.12
 optimisation between [QCUT,QGAM] = [ 11.34, 22.83] = [ 36.00,145.93] Ry 
 Optimized for a Real-space Cutoff    1.61 Angstroem

   l    n(q)    QCUT    max X(q) W(low)/X(q) W(high)/X(q)  e(spline) 
   1     11    11.338     4.092    0.40E-05    0.64E-05    0.47E-07
   1     11    11.338     4.834    0.13E-04    0.44E-04    0.21E-06
   2     10    11.338    62.294    0.15E-03    0.31E-03    0.77E-06
   2     10    11.338    50.966    0.15E-03    0.31E-03    0.77E-06
   0     11    11.338   103.792    0.33E-04    0.19E-04    0.90E-07
   0     11    11.338    56.335    0.26E-04    0.17E-04    0.79E-07
 Optimization of the real space projectors (new method)

 maximal supplied QI-value         = 16.25
 optimisation between [QCUT,QGAM] = [ 11.38, 22.75] = [ 36.24,144.96] Ry 
 Optimized for a Real-space Cutoff    1.47 Angstroem

   l    n(q)    QCUT    max X(q) W(low)/X(q) W(high)/X(q)  e(spline) 
   2      9    11.376    60.317    0.17E-03    0.16E-04    0.16E-06
   2      9    11.376    55.921    0.17E-03    0.16E-04    0.17E-06
   0     10    11.376    51.690    0.45E-04    0.60E-04    0.21E-06
   0     10    11.376    30.015    0.37E-04    0.55E-04    0.19E-06
   1     10    11.376    18.849    0.83E-04    0.11E-03    0.92E-07
   1     10    11.376    14.624    0.69E-04    0.92E-04    0.82E-07
 Optimization of the real space projectors (new method)

 maximal supplied QI-value         = 22.11
 optimisation between [QCUT,QGAM] = [ 11.28, 22.77] = [ 35.61,145.23] Ry 
 Optimized for a Real-space Cutoff    1.10 Angstroem

   l    n(q)    QCUT    max X(q) W(low)/X(q) W(high)/X(q)  e(spline) 
   0      7    11.276    10.506    0.54E-04    0.58E-04    0.16E-07
   0      7    11.276     8.367    0.11E-03    0.14E-03    0.35E-07
   1      7    11.276     8.983    0.23E-03    0.43E-03    0.86E-07
 Optimization of the real space projectors (new method)

 maximal supplied QI-value         = 24.76
 optimisation between [QCUT,QGAM] = [ 11.39, 22.77] = [ 36.31,145.25] Ry 
 Optimized for a Real-space Cutoff    1.10 Angstroem

   l    n(q)    QCUT    max X(q) W(low)/X(q) W(high)/X(q)  e(spline) 
   0      7    11.387    20.381    0.22E-03    0.48E-03    0.18E-06
   0      7    11.387    15.268    0.22E-03    0.52E-03    0.19E-06
   1      7    11.387     5.964    0.22E-03    0.73E-03    0.24E-06
   1      7    11.387     5.382    0.19E-03    0.60E-03    0.21E-06

 ----------------------------------------------------------------------------- 
|                                                                             |
|  ADVICE TO THIS USER RUNNING 'VASP/VAMP'   (HEAR YOUR MASTER'S VOICE ...):  |
|                                                                             |
|      You enforced a specific xc-type in the INCAR file,                     |
|      a different type was found on the POTCAR file                          |
|          I HOPE YOU KNOW, WHAT YOU ARE  DOING                               |
|                                                                             |
 ----------------------------------------------------------------------------- 

  PAW_PBE Ta_pv 07Sep2000               :
 energy of atom  1       EATOM=-1047.1984
 kinetic energy error for atom=    0.0019 (will be added to EATOM!!)
  PAW_PBE Ni 02Aug2007                  :
 energy of atom  2       EATOM=-1077.6739
 kinetic energy error for atom=    0.0030 (will be added to EATOM!!)
  PAW_PBE Li_sv 10Sep2004               :
 energy of atom  3       EATOM= -202.7858
 kinetic energy error for atom=    0.0143 (will be added to EATOM!!)
  PAW_PBE O 08Apr2002                   :
 energy of atom  4       EATOM= -432.3788
 kinetic energy error for atom=    0.0224 (will be added to EATOM!!)
 
 
 POSCAR: ce425596_1                              
  positions in direct lattice
  No initial velocities read in
 exchange correlation table for  LEXCH =       14
   RHO(1)=    0.500       N(1)  =     2000
   RHO(2)=  100.500       N(2)  =     4000
 


--------------------------------------------------------------------------------------------------------


 ion  position               nearest neighbor table
   1  0.005  0.004  0.990-  93 1.98 105 1.98 108 1.99  57 2.02  60 2.02  72 2.02  20 2.86  26 2.86
                             9 2.92   7 2.92  54 2.93  36 2.94  30 2.94  29 2.96  47 2.99  53 2.99
   2  0.884  0.330  0.232-  74 1.98  80 1.98  77 1.99  56 2.02  71 2.02  59 2.02  15 2.86  13 2.86
                             8 2.92  10 2.92  39 2.93  30 2.94  36 2.94  28 2.96  37 2.99  40 2.99
   3  0.444  0.667  0.111-  67 2.00  61 2.00  70 2.00  64 2.00  85 2.00 100 2.00  11 2.89   6 2.89
                            16 2.90  25 2.90  19 2.90  22 2.90  50 3.01  43 3.01  35 3.02  32 3.02
   4  0.776  0.667  0.448-  97 2.00  82 2.01  76 2.01  58 2.01  79 2.01  73 2.01  25 2.88  22 2.88
                            16 2.90  19 2.90   6 2.93  11 2.93  29 2.95  40 2.98  37 2.98  49 3.00
   5  0.113  0.666  0.774-  88 2.00 103 2.01  91 2.01  55 2.01 106 2.01  94 2.01  16 2.88  19 2.88
                            25 2.90  22 2.90  11 2.93   6 2.93  28 2.95  53 2.98  47 2.98  44 3.00
   6  0.112  0.667  0.111-  55 2.05  58 2.05  61 2.05  64 2.05  79 2.07  94 2.07   3 2.89  22 2.90
                            16 2.90  11 2.91   4 2.93   5 2.93
   7  0.336  0.001  0.000-  99 1.93  63 1.95  96 1.95  66 2.01  60 2.02  93 2.11   9 2.85  23 2.88
                            17 2.89  14 2.92   1 2.92  20 2.93
   8  0.225  0.333  0.222-  86 1.93  62 1.95  83 1.95  65 2.01  59 2.02  80 2.11  10 2.85  18 2.88
                            24 2.89  21 2.92   2 2.92  15 2.93
   9  0.664  0.001  0.000-  99 1.93  69 1.95 102 1.95  66 2.01  72 2.02 105 2.11   7 2.85  23 2.88
                            17 2.89  12 2.92   1 2.92  26 2.93
  10  0.553  0.333  0.222-  86 1.93  68 1.95  89 1.95  65 2.01  71 2.02  74 2.11   8 2.85  18 2.88
                            24 2.89  27 2.92   2 2.92  13 2.93
  11  0.777  0.667  0.111-  55 2.05  58 2.05  67 2.05  70 2.05  73 2.07 106 2.07   3 2.89  19 2.90
                            25 2.90   6 2.91   5 2.93   4 2.93
  12  0.664  0.002  0.335-  78 1.95  90 1.96  69 1.96  57 2.03  75 2.03  72 2.10  39 2.79  35 2.82
                            20 2.86  17 2.88  23 2.91   9 2.92  14 2.93   1 2.99
  13  0.553  0.330  0.558-  98 1.96  92 1.97  89 1.97  95 2.01  77 2.06  74 2.09  46 2.83  21 2.86
                             2 2.86  18 2.88  24 2.90  15 2.92  10 2.93
  14  0.001  0.002  0.335-  78 1.95  84 1.96  63 1.96  57 2.03  81 2.03  60 2.10  39 2.79  32 2.82
                            26 2.86  17 2.88  23 2.91   7 2.92  12 2.93   1 2.99
  15  0.889  0.330  0.558-  98 1.96 104 1.97  83 1.97 101 2.01  77 2.06  80 2.09  52 2.83  27 2.86
                             2 2.86  18 2.88  24 2.90  13 2.92   8 2.93
  16  0.111  0.667  0.445-  85 2.04 103 2.06  79 2.06  82 2.06  64 2.06  88 2.06   5 2.88  19 2.89
                             4 2.90   6 2.90   3 2.90  25 2.90
  17  0.333  0.999  0.333-  66 1.89  84 1.91  90 1.91  87 1.91  63 1.92  69 1.92  44 2.80  12 2.88
                            14 2.88   9 2.89   7 2.89  26 2.90  20 2.90
  18  0.223  0.329  0.554- 104 1.90  92 1.90  89 1.92  83 1.92 107 1.93  86 1.95  54 2.77  13 2.88
                            15 2.88  10 2.88   8 2.88  27 2.91  21 2.91
  19  0.444  0.667  0.445-  85 2.04  91 2.06  73 2.06  76 2.06  70 2.06  88 2.06   5 2.88  16 2.89
                             4 2.90  11 2.90   3 2.90  22 2.90
  20  0.336  0.003  0.664-  87 1.96  75 1.97  96 1.97  90 2.01 108 2.06  93 2.09  38 2.83  12 2.86
                             1 2.86  23 2.88  17 2.90  26 2.92   7 2.93
  21  0.225  0.332  0.887- 107 1.95  95 1.96  62 1.96  56 2.03  92 2.03  59 2.10  54 2.79  31 2.82
                            13 2.86  24 2.88  18 2.91   8 2.92  27 2.93   2 2.99
  22  0.445  0.666  0.778- 100 2.04  76 2.06  94 2.06  91 2.06  61 2.06  97 2.06   4 2.88  25 2.89
                             5 2.90   6 2.90   3 2.90  19 2.90
  23  0.666  0.004  0.668-  81 1.90  75 1.90  96 1.92 102 1.92  78 1.93  99 1.95  39 2.77  20 2.88
                            26 2.88   7 2.88   9 2.88  14 2.91  12 2.91
  24  0.555  0.334  0.889-  65 1.89 101 1.91  95 1.91  98 1.91  68 1.92  62 1.92  49 2.80  21 2.88
                            27 2.88   8 2.89  10 2.89  15 2.90  13 2.90
  25  0.778  0.666  0.778- 100 2.04  82 2.06 106 2.06 103 2.06  67 2.06  97 2.06   4 2.88  22 2.89
                             5 2.90  11 2.90   3 2.90  16 2.90
  26  1.000  0.003  0.664-  87 1.96  81 1.97 102 1.97  84 2.01 108 2.06 105 2.09  41 2.83  14 2.86
                             1 2.86  23 2.88  17 2.90  20 2.92   9 2.93
  27  0.888  0.332  0.887- 107 1.95 101 1.96  68 1.96  56 2.03 104 2.03  71 2.10  54 2.79  34 2.82
                            15 2.86  24 2.88  18 2.91  10 2.92  21 2.93   2 2.99
  28  0.995  0.501  0.010- 106 2.07  94 2.07  58 2.07  71 2.09  59 2.09   5 2.95   2 2.96
  29  0.894  0.832  0.212-  79 2.07  73 2.07  55 2.07  60 2.09  72 2.09   4 2.95   1 2.96
  30  0.121  0.167  0.111-  80 2.03  93 2.03  62 2.14  63 2.14  56 2.15  57 2.15   2 2.94   1 2.94

  31  0.329  0.493  0.997-  59 2.07  95 2.07  65 2.07  94 2.12 100 2.14  64 2.15  21 2.82   3 3.02

  32  0.215  0.840  0.225-  60 2.07  84 2.07  66 2.07  79 2.12  85 2.14  61 2.15  14 2.82   3 3.02

  33  0.444  0.167  0.111-  68 2.14  62 2.14  63 2.14  69 2.14  86 2.15  99 2.15
  34  0.674  0.493  0.997-  71 2.07 101 2.07  65 2.07 106 2.12 100 2.14  70 2.15  27 2.82   3 3.02

  35  0.560  0.840  0.225-  72 2.07  90 2.07  66 2.07  73 2.12  85 2.14  67 2.15  12 2.82   3 3.02

  36  0.768  0.167  0.111-  74 2.03 105 2.03  68 2.14  69 2.14  56 2.15  57 2.15   2 2.94   1 2.94

  37  0.657  0.501  0.331-  70 2.02  71 2.05  76 2.08  58 2.12  77 2.17  89 2.17   4 2.98   2 2.99

  38  0.548  0.840  0.558-  91 2.10  90 2.11  73 2.13  96 2.13  97 2.13  78 2.19  20 2.83   4 3.01

  39  0.778  0.158  0.443-  81 2.03  75 2.03  57 2.06  80 2.08  74 2.08  23 2.77  14 2.79  12 2.79
                             2 2.93
  40  0.012  0.501  0.331-  64 2.02  59 2.05  82 2.08  58 2.12  77 2.17  83 2.17   4 2.98   2 2.99

  41  0.894  0.840  0.558- 103 2.10  84 2.11  79 2.13 102 2.13  97 2.13  78 2.19  26 2.83   4 3.01

  42  0.109  0.167  0.445-  80 2.06 104 2.08  87 2.14  81 2.17  86 2.17  63 2.19
  43  0.329  0.495  0.343-  88 2.09  83 2.10  89 2.10  70 2.12  64 2.12  65 2.24   3 3.01
  44  0.226  0.840  0.549-  84 2.08  90 2.08 108 2.10 103 2.13  91 2.13  85 2.14  17 2.80   5 3.00

  45  0.446  0.167  0.445-  74 2.06  92 2.08  87 2.14  75 2.17  86 2.17  69 2.19
  46  0.341  0.493  0.664-  76 2.10  95 2.11  94 2.13  89 2.13  88 2.13 107 2.19  13 2.83   5 3.01

  47  0.232  0.833  0.891-  61 2.02  60 2.05  91 2.08  55 2.12 108 2.17  96 2.17   5 2.98   1 2.99

  48  0.443  0.167  0.777-  93 2.06  75 2.08  98 2.14  92 2.17  99 2.17  62 2.19
  49  0.663  0.494  0.673-  95 2.08 101 2.08  77 2.10  82 2.13  76 2.13 100 2.14  24 2.80   4 3.00

  50  0.560  0.838  0.879-  97 2.09  96 2.10 102 2.10  61 2.12  67 2.12  66 2.24   3 3.01
  51  0.780  0.167  0.777- 105 2.06  81 2.08  98 2.14 104 2.17  99 2.17  68 2.19
  52  0.995  0.493  0.664-  82 2.10 101 2.11 106 2.13  83 2.13  88 2.13 107 2.19  15 2.83   5 3.01

  53  0.877  0.833  0.891-  67 2.02  72 2.05 103 2.08  55 2.12 108 2.17 102 2.17   5 2.98   1 2.99

  54  0.111  0.176  0.779- 104 2.03  92 2.03  56 2.06 105 2.08  93 2.08  18 2.77  27 2.79  21 2.79
                             1 2.93
  55  0.004  0.746  0.992-   5 2.01  11 2.05   6 2.05  29 2.07  47 2.12  53 2.12
  56  0.997  0.256  0.005-   2 2.02  21 2.03  27 2.03  54 2.06  30 2.15  36 2.15
  57  0.891  0.077  0.217-   1 2.02  12 2.03  14 2.03  39 2.06  36 2.15  30 2.15
  58  0.885  0.588  0.230-   4 2.01   6 2.05  11 2.05  28 2.07  37 2.12  40 2.12
  59  0.103  0.411  0.120-   2 2.02   8 2.02  40 2.05  31 2.07  28 2.09  21 2.10
  60  0.112  0.922  0.102-   1 2.02   7 2.02  47 2.05  32 2.07  29 2.09  14 2.10
  61  0.337  0.748  0.001-   3 2.00  47 2.02   6 2.05  22 2.06  50 2.12  32 2.15
  62  0.338  0.263  0.001-  24 1.92   8 1.95  21 1.96  30 2.14  33 2.14  48 2.19
  63  0.227  0.070  0.222-  17 1.92   7 1.95  14 1.96  30 2.14  33 2.14  42 2.19
  64  0.227  0.585  0.221-   3 2.00  40 2.02   6 2.05  16 2.06  43 2.12  31 2.15
  65  0.452  0.408  0.097-  24 1.89  10 2.01   8 2.01  34 2.07  31 2.07  43 2.24
  66  0.437  0.926  0.125-  17 1.89   9 2.01   7 2.01  35 2.07  32 2.07  50 2.24
  67  0.662  0.748  0.001-   3 2.00  53 2.02  11 2.05  25 2.06  50 2.12  35 2.15
  68  0.662  0.263  0.001-  24 1.92  10 1.95  27 1.96  36 2.14  33 2.14  51 2.19
  69  0.551  0.070  0.222-  17 1.92   9 1.95  12 1.96  36 2.14  33 2.14  45 2.19
  70  0.552  0.585  0.221-   3 2.00  37 2.02  11 2.05  19 2.06  43 2.12  34 2.15
  71  0.776  0.411  0.120-   2 2.02  10 2.02  37 2.05  34 2.07  28 2.09  27 2.10
  72  0.786  0.922  0.102-   1 2.02   9 2.02  53 2.05  35 2.07  29 2.09  12 2.10
  73  0.670  0.748  0.337-   4 2.01  19 2.06  29 2.07  11 2.07  35 2.12  38 2.13
  74  0.673  0.247  0.331-   2 1.98  36 2.03  45 2.06  39 2.08  13 2.09  10 2.11
  75  0.558  0.076  0.564-  23 1.90  20 1.97  12 2.03  39 2.03  48 2.08  45 2.17
  76  0.560  0.585  0.554-   4 2.01  22 2.06  19 2.06  37 2.08  46 2.10  49 2.13
  77  0.778  0.412  0.444-   2 1.99  15 2.06  13 2.06  49 2.10  40 2.17  37 2.17
  78  0.775  0.935  0.449-  23 1.93  14 1.95  12 1.95  41 2.19  38 2.19
  79  0.994  0.748  0.337-   4 2.01  16 2.06  29 2.07   6 2.07  32 2.12  41 2.13
  80  0.997  0.247  0.331-   2 1.98  30 2.03  42 2.06  39 2.08  15 2.09   8 2.11
  81  0.878  0.076  0.564-  23 1.90  26 1.97  14 2.03  39 2.03  51 2.08  42 2.17
  82  0.887  0.585  0.554-   4 2.01  25 2.06  16 2.06  40 2.08  52 2.10  49 2.13
  83  0.115  0.400  0.445-  18 1.92   8 1.95  15 1.97  43 2.10  52 2.13  40 2.17
  84  0.118  0.930  0.439-  17 1.91  14 1.96  26 2.01  32 2.07  44 2.08  41 2.11
  85  0.336  0.747  0.328-   3 2.00  16 2.04  19 2.04  44 2.14  35 2.14  32 2.14
  86  0.334  0.262  0.331-  10 1.93   8 1.93  18 1.95  33 2.15  42 2.17  45 2.17
  87  0.227  0.071  0.546-  17 1.91  20 1.96  26 1.96  45 2.14  42 2.14
  88  0.220  0.584  0.561-   5 2.00  16 2.06  19 2.06  43 2.09  52 2.13  46 2.13
  89  0.440  0.400  0.445-  18 1.92  10 1.95  13 1.97  43 2.10  46 2.13  37 2.17
  90  0.443  0.930  0.439-  17 1.91  12 1.96  20 2.01  35 2.07  44 2.08  38 2.11
  91  0.329  0.748  0.669-   5 2.01  19 2.06  22 2.06  47 2.08  38 2.10  44 2.13
  92  0.331  0.258  0.659-  18 1.90  13 1.97  21 2.03  54 2.03  45 2.08  48 2.17
  93  0.216  0.086  0.891-   1 1.98  30 2.03  48 2.06  54 2.08  20 2.09   7 2.11
  94  0.219  0.585  0.886-   5 2.01  22 2.06  28 2.07   6 2.07  31 2.12  46 2.13
  95  0.446  0.404  0.783-  24 1.91  21 1.96  13 2.01  31 2.07  49 2.08  46 2.11
  96  0.449  0.933  0.777-  23 1.92   7 1.95  20 1.97  50 2.10  38 2.13  47 2.17
  97  0.669  0.749  0.662-   4 2.00  22 2.06  25 2.06  50 2.09  41 2.13  38 2.13
  98  0.662  0.262  0.676-  24 1.91  13 1.96  15 1.96  48 2.14  51 2.14
  99  0.554  0.072  0.891-   7 1.93   9 1.93  23 1.95  33 2.15  48 2.17  51 2.17
 100  0.553  0.586  0.894-   3 2.00  25 2.04  22 2.04  49 2.14  31 2.14  34 2.14
 101  0.771  0.404  0.783-  24 1.91  27 1.96  15 2.01  34 2.07  49 2.08  52 2.11
 102  0.774  0.933  0.777-  23 1.92   9 1.95  26 1.97  50 2.10  41 2.13  53 2.17
 103  0.002  0.748  0.669-   5 2.01  16 2.06  25 2.06  53 2.08  41 2.10  44 2.13
 104  0.011  0.258  0.659-  18 1.90  15 1.97  27 2.03  54 2.03  42 2.08  51 2.17
 105  0.892  0.086  0.891-   1 1.98  36 2.03  51 2.06  54 2.08  26 2.09   9 2.11
 106  0.895  0.585  0.886-   5 2.01  25 2.06  28 2.07  11 2.07  34 2.12  52 2.13
 107  0.113  0.398  0.773-  18 1.93  27 1.95  21 1.95  46 2.19  52 2.19
 108  0.111  0.922  0.778-   1 1.99  20 2.06  26 2.06  44 2.10  53 2.17  47 2.17
 
  LATTYP: Found a base centered monoclinic cell.
 ALAT       =    15.1086182040
 B/A-ratio  =     0.5750920717
 C/A-ratio  =     1.3799940670
 COS(beta)  =    -0.6307910698
  
  Lattice vectors:
  
 A1 = (   4.3444233201,   0.0166731573,   7.5542907023)
 A2 = (  -4.3444232230,   0.0166731573,   7.5542907023)
 A3 = (  -0.0000000972, -14.3350430281, -15.1400411690)


Analysis of symmetry for initial positions (statically):
=====================================================================
 Subroutine PRICEL returns:
 Original cell was already a primitive cell.
 

 Routine SETGRP: Setting up the symmetry group for a 
 base centered monoclinic supercell.


 Subroutine GETGRP returns: Found  4 space group operations
 (whereof  2 operations were pure point group operations)
 out of a pool of  4 trial point group operations.


The static configuration has the point symmetry C_1h.
 The point group associated with its full space group is C_2h.


Analysis of symmetry for dynamics (positions and initial velocities):
=====================================================================
 Subroutine PRICEL returns:
 Original cell was already a primitive cell.
 

 Routine SETGRP: Setting up the symmetry group for a 
 base centered monoclinic supercell.


 Subroutine GETGRP returns: Found  4 space group operations
 (whereof  2 operations were pure point group operations)
 out of a pool of  4 trial point group operations.


The dynamic configuration has the point symmetry C_1h.
 The point group associated with its full space group is C_2h.


Analysis of structural, dynamic, and magnetic symmetry:
=====================================================================
 Subroutine PRICEL returns:
 Original cell was already a primitive cell.
 

 Routine SETGRP: Setting up the symmetry group for a 
 base centered monoclinic supercell.


 Subroutine GETGRP returns: Found  4 space group operations
 (whereof  2 operations were pure point group operations)
 out of a pool of  4 trial point group operations.


The magnetic configuration has the point symmetry C_1h.
 The point group associated with its full space group is C_2h.


 Subroutine INISYM returns: Found  4 space group operations
 (whereof  2 operations are pure point group operations),
 and found     1 'primitive' translations

 
 
 KPOINTS: Automatic mesh                          

Automatic generation of k-mesh.
Space group operators:
 irot       det(A)        alpha          n_x          n_y          n_z        tau_x        tau_y        tau_z
    1     1.000000     0.000000     1.000000     0.000000     0.000000     0.000000     0.000000     0.000000
    2    -1.000000   180.000000     1.000000     0.000000    -0.000000     0.000000     0.000000     0.000000
    3    -1.000000     0.000000     1.000000     0.000000     0.000000    -0.111111    -0.666667     0.222222
    4     1.000000   180.000000     1.000000     0.000000    -0.000000    -0.111111    -0.666667     0.222222
 
 Subroutine IBZKPT returns following result:
 ===========================================
 
 Found      1 irreducible k-points:
 
 Following reciprocal coordinates:
            Coordinates               Weight
  0.000000  0.000000  0.000000      1.000000
 
 Following cartesian coordinates:
            Coordinates               Weight
  0.000000  0.000000  0.000000      1.000000
 


--------------------------------------------------------------------------------------------------------




 Dimension of arrays:
   k-points           NKPTS =      1   k-points in BZ     NKDIM =      1   number of bands    NBANDS=    448
   number of dos      NEDOS =    301   number of ions     NIONS =    108
   non local maximal  LDIM  =      6   non local SUM 2l+1 LMDIM =     18
   total plane-waves  NPLWV = 442368
   max r-space proj   IRMAX =   8304   max aug-charges    IRDMAX=  26671
   dimension x,y,z NGX =    64 NGY =  108 NGZ =   64
   dimension x,y,z NGXF=   128 NGYF=  216 NGZF=  128
   support grid    NGXF=   128 NGYF=  216 NGZF=  128
   ions per type =               5  22  27  54
   NGX,Y,Z   is equivalent  to a cutoff of  12.25, 12.55, 12.21 a.u.
   NGXF,Y,Z  is equivalent  to a cutoff of  24.49, 25.11, 24.42 a.u.

 SYSTEM =  unknown system                          
 POSCAR =  ce425596_1                              

 Startparameter for this run:
   NWRITE =      1    write-flag & timer
   PREC   = accura    normal or accurate (medium, high low for compatibility)
   ISTART =      0    job   : 0-new  1-cont  2-samecut
   ICHARG =      2    charge: 1-file 2-atom 10-const
   ISPIN  =      2    spin polarized calculation?
   LNONCOLLINEAR =      F non collinear calculations
   LSORBIT =      F    spin-orbit coupling
   INIWAV =      1    electr: 0-lowe 1-rand  2-diag
   LASPH  =      F    aspherical Exc in radial PAW
   METAGGA=      F    non-selfconsistent MetaGGA calc.

 Electronic Relaxation 1
   ENCUT  =  500.0 eV  36.75 Ry    6.06 a.u.  15.84 26.08 15.89*2*pi/ulx,y,z
   ENINI  =  500.0     initial cutoff
   ENAUG  =  628.9 eV  augmentation charge cutoff
   NELM   =     80;   NELMIN=  2; NELMDL= -5     # of ELM steps 
   EDIFF  = 0.1E-04   stopping-criterion for ELM
   LREAL  =      T    real-space projection
   NLSPLINE    = F    spline interpolate recip. space projectors
   LCOMPAT=      F    compatible to vasp.4.4
   GGA_COMPAT  = T    GGA compatible to vasp.4.4-vasp.4.6
   LMAXPAW     = -100 max onsite density
   LMAXMIX     =    2 max onsite mixed and CHGCAR
   VOSKOWN=      1    Vosko Wilk Nusair interpolation
   ROPT   =   -0.00025  -0.00025  -0.00025  -0.00025
 Ionic relaxation
   EDIFFG = -.2E-01   stopping-criterion for IOM
   NSW    =     20    number of steps for IOM
   NBLOCK =      1;   KBLOCK =     20    inner block; outer block 
   IBRION =      1    ionic relax: 0-MD 1-quasi-New 2-CG
   NFREE  =      0    steps in history (QN), initial steepest desc. (CG)
   ISIF   =      3    stress and relaxation
   IWAVPR =     11    prediction:  0-non 1-charg 2-wave 3-comb
   ISYM   =      2    0-nonsym 1-usesym 2-fastsym
   LCORR  =      T    Harris-Foulkes like correction to forces

   POTIM  = 0.5000    time-step for ionic-motion
   TEIN   =    0.0    initial temperature
   TEBEG  =    0.0;   TEEND  =   0.0 temperature during run
   SMASS  =  -3.00    Nose mass-parameter (am)
   estimated Nose-frequenzy (Omega)   =  0.10E-29 period in steps =****** mass=  -0.173E-26a.u.
   SCALEE = 1.0000    scale energy and forces
   NPACO  =    256;   APACO  = 16.0  distance and # of slots for P.C.
   PSTRESS=    0.0 pullay stress

  Mass of Ions in am
   POMASS = 180.95 58.69  7.01 16.00
  Ionic Valenz
   ZVAL   =  11.00 10.00  3.00  6.00
  Atomic Wigner-Seitz radii
   RWIGS  =   1.34  1.15  1.23  0.73
  virtual crystal weights 
   VCA    =   1.00  1.00  1.00  1.00
   NELECT =     680.0000    total number of electrons
   NUPDOWN=      -1.0000    fix difference up-down

 DOS related values:
   EMIN   =  10.00;   EMAX   =-10.00  energy-range for DOS
   EFERMI =   0.00
   ISMEAR =     0;   SIGMA  =   0.05  broadening in eV -4-tet -1-fermi 0-gaus

 Electronic relaxation 2 (details)
   IALGO  =     38    algorithm
   LDIAG  =      T    sub-space diagonalisation (order eigenvalues)
   LSUBROT=      F    optimize rotation matrix (better conditioning)
   TURBO    =      0    0=normal 1=particle mesh
   IRESTART =      0    0=no restart 2=restart with 2 vectors
   NREBOOT  =      0    no. of reboots
   NMIN     =      0    reboot dimension
   EREF     =   0.00    reference energy to select bands
   IMIX   =      4    mixing-type and parameters
     AMIX     =   0.40;   BMIX     =  1.00
     AMIX_MAG =   1.60;   BMIX_MAG =  1.00
     AMIN     =   0.10
     WC   =   100.;   INIMIX=   1;  MIXPRE=   1;  MAXMIX= -45

 Intra band minimization:
   WEIMIN = 0.0010     energy-eigenvalue tresh-hold
   EBREAK =  0.56E-08  absolut break condition
   DEPER  =   0.30     relativ break condition  

   TIME   =   0.40     timestep for ELM

  volume/ion in A,a.u.               =       8.69        58.66
  Fermi-wavevector in a.u.,A,eV,Ry     =   1.470271  2.778409 29.411669  2.161697
  Thomas-Fermi vector in A             =   2.585548
 
 Write flags
   LWAVE        =      F    write WAVECAR
   LDOWNSAMPLE  =      F    k-point downsampling of WAVECAR
   LCHARG       =      T    write CHGCAR
   LVTOT        =      F    write LOCPOT, total local potential
   LVHAR        =      F    write LOCPOT, Hartree potential only
   LELF         =      F    write electronic localiz. function (ELF)
   LORBIT       =      0    0 simple, 1 ext, 2 COOP (PROOUT), +10 PAW based schemes


 Dipole corrections
   LMONO  =      F    monopole corrections only (constant potential shift)
   LDIPOL =      F    correct potential (dipole corrections)
   IDIPOL =      0    1-x, 2-y, 3-z, 4-all directions 
   EPSILON=  1.0000000 bulk dielectric constant

 Exchange correlation treatment:
   GGA     =    PS    GGA type
   LEXCH   =    14    internal setting for exchange type
   VOSKOWN=      1    Vosko Wilk Nusair interpolation
   LHFCALC =     F    Hartree Fock is set to
   LHFONE  =     F    Hartree Fock one center treatment
   AEXX    =    0.0000 exact exchange contribution

 Linear response parameters
   LEPSILON=     F    determine dielectric tensor
   LRPA    =     F    only Hartree local field effects (RPA)
   LNABLA  =     F    use nabla operator in PAW spheres
   LVEL    =     F    velocity operator in full k-point grid
   LINTERFAST=   F  fast interpolation
   KINTER  =     0    interpolate to denser k-point grid
   CSHIFT  =0.1000    complex shift for real part using Kramers Kronig
   OMEGAMAX=  -1.0    maximum frequency
   DEG_THRESHOLD= 0.2000000E-02 threshold for treating states as degnerate
   RTIME   =   -0.100 relaxation time in fs
  (WPLASMAI=    0.000 imaginary part of plasma frequency in eV, 0.658/RTIME)
   DFIELD  = 0.0000000 0.0000000 0.0000000 field for delta impulse in time
 
 Orbital magnetization related:
   ORBITALMAG=     F  switch on orbital magnetization
   LCHIMAG   =     F  perturbation theory with respect to B field
   DQ        =  0.001000  dq finite difference perturbation B field
   LLRAUG    =     F  two centre corrections for induced B field



--------------------------------------------------------------------------------------------------------


 quasi-Newton-method for relaxation of ions
 charge density and potential will be updated during run
 spin polarized calculation
 Variant of blocked Davidson
 Davidson routine will perform the subspace rotation
 perform sub-space diagonalisation
    after iterative eigenvector-optimisation
 modified Broyden-mixing scheme, WC =      100.0
 initial mixing is a Kerker type mixing with AMIX =  0.4000 and BMIX =      1.0000
 Hartree-type preconditioning will be used
 using additional bands          108
 real space projection scheme for non local part
 use partial core corrections
 calculate Harris-corrections to forces 
   (improved forces if not selfconsistent)
 use gradient corrections 
 use of overlap-Matrix (Vanderbilt PP)
 Gauss-broadening in eV      SIGMA  =   0.05


--------------------------------------------------------------------------------------------------------


  energy-cutoff  :      500.00
  volume of cell :      938.73
      direct lattice vectors                 reciprocal lattice vectors
     8.688846543  0.000000000  0.000000000     0.115090075  0.000145595 -0.066187873
     0.000000000 14.301696714  0.031459764     0.000000000  0.069922113 -0.000154326
     4.344423320  0.016673157  7.554290702     0.000000000 -0.000291190  0.132375744

  length of vectors
     8.688846543 14.301731315  8.714447773     0.132765135  0.069922283  0.132376065


 
 k-points in units of 2pi/SCALE and weight: Automatic mesh                          
   0.00000000  0.00000000  0.00000000       1.000
 
 k-points in reciprocal lattice and weights: Automatic mesh                          
   0.00000000  0.00000000  0.00000000       1.000
 
 position of ions in fractional coordinates (direct lattice) 
   0.00487239  0.00354672  0.99025522
   0.88401650  0.32978661  0.23196700
   0.44444445  0.66666667  0.11111111
   0.77600034  0.66707806  0.44799933
   0.11288855  0.66625528  0.77422289
   0.11189167  0.66666667  0.11111111
   0.33606521  0.00051901  0.00026925
   0.22522335  0.33281432  0.22195297
   0.66366554  0.00051901  0.00026925
   0.55282368  0.33281432  0.22195297
   0.77699722  0.66666667  0.11111111
   0.66360305  0.00177998  0.33512968
   0.55281158  0.32985943  0.55788901
   0.00126726  0.00177998  0.33512968
   0.88929940  0.32985943  0.55788901
   0.11118230  0.66720282  0.44450281
   0.33344912  0.99938654  0.33310176
   0.22304250  0.32927675  0.55391500
   0.44431490  0.66720282  0.44450281
   0.33607730  0.00347390  0.66433322
   0.22528584  0.33155335  0.88709254
   0.44457399  0.66613052  0.77771941
   0.66584638  0.00405658  0.66830723
   0.55543977  0.33394679  0.88912046
   0.77770660  0.66613052  0.77771941
   0.99958948  0.00347390  0.66433322
   0.88762163  0.33155335  0.88709254
   0.99488022  0.50124720  0.01023956
   0.89400867  0.83208613  0.21198266
   0.12073270  0.16666667  0.11111111
   0.32903674  0.49337637  0.99727864
   0.21520427  0.83995696  0.22494358
   0.44444445  0.16666667  0.11111111
   0.67368462  0.49337637  0.99727864
   0.55985215  0.83995696  0.22494358
   0.76815619  0.16666667  0.11111111
   0.65672775  0.50054741  0.33101007
   0.54774575  0.83984026  0.55794888
   0.77836223  0.15758824  0.44327555
   0.01226218  0.50054741  0.33101007
   0.89430536  0.83984026  0.55794888
   0.10930204  0.16653880  0.44516160
   0.32861067  0.49492800  0.34277866
   0.22562028  0.83979845  0.54875944
   0.44553637  0.16653880  0.44516160
   0.34114313  0.49349307  0.66427335
   0.23216114  0.83278592  0.89121215
   0.44335252  0.16679454  0.77706062
   0.66326860  0.49353488  0.67346279
   0.56027822  0.83840533  0.87944356
   0.77958686  0.16679454  0.77706062
   0.99458352  0.49349307  0.66427335
   0.87662671  0.83278592  0.89121215
   0.11052666  0.17574510  0.77894667
   0.00377146  0.74580845  0.99245708
   0.99744963  0.25584654  0.00510075
   0.89143926  0.07748679  0.21712147
   0.88511743  0.58752488  0.22976514
   0.10330530  0.41107105  0.12021830
   0.11241248  0.92226229  0.10200392
   0.33713111  0.74790792  0.00130462
   0.33766524  0.26348806  0.00060840
   0.22716254  0.06984527  0.22161382
   0.22732461  0.58542541  0.22091760
   0.45155975  0.40757798  0.09688051
   0.43732915  0.92575536  0.12534171
   0.66156428  0.74790792  0.00130462
   0.66172635  0.26348806  0.00060840
   0.55122365  0.06984527  0.22161382
   0.55175778  0.58542541  0.22091760
   0.77647641  0.41107105  0.12021830
   0.78558359  0.92226229  0.10200392
   0.66984537  0.74843941  0.33656857
   0.67252451  0.24685639  0.33091811
   0.55823898  0.07560255  0.56356278
   0.55975183  0.58508467  0.55368911
   0.77798474  0.41157568  0.44403052
   0.77549848  0.93520345  0.44900304
   0.99358605  0.74843941  0.33656857
   0.99655738  0.24685639  0.33091811
   0.87819823  0.07560255  0.56356278
   0.88655905  0.58508467  0.55368911
   0.11502378  0.40028239  0.44544303
   0.11773172  0.92954044  0.43945285
   0.33613254  0.74709492  0.32773492
   0.33444002  0.26156931  0.33111997
   0.22679334  0.07119111  0.54641333
   0.21968322  0.58422981  0.56063356
   0.43953319  0.40028239  0.44544303
   0.44281544  0.92954044  0.43945285
   0.32913705  0.74824866  0.66853312
   0.33064990  0.25773078  0.65865945
   0.21636438  0.08647694  0.89130411
   0.21904352  0.58489392  0.88565365
   0.44607345  0.40379290  0.78276937
   0.44935570  0.93305095  0.77677919
   0.66920566  0.74910352  0.66158867
   0.66209554  0.26214222  0.67580890
   0.55444887  0.07176402  0.89110225
   0.55275635  0.58623841  0.89448730
   0.77115718  0.40379290  0.78276937
   0.77386512  0.93305095  0.77677919
   0.00232983  0.74824866  0.66853312
   0.01069065  0.25773078  0.65865945
   0.89233151  0.08647694  0.89130411
   0.89530284  0.58489392  0.88565365
   0.11339041  0.39812989  0.77321918
   0.11090415  0.92175766  0.77819170
 
 position of ions in cartesian coordinates  (Angst):
   4.34442332  0.06723479  7.48078738
   8.68884655  4.72037570  1.76272116
   4.34442332  9.53631710  0.86033880
   8.68884661  9.54781766  3.40530329
   4.34442327  9.54148969  5.86966501
   1.45492325  9.53631710  0.86033880
   2.92118877  0.00742721  0.00205032
   2.92118878  4.76351012  1.68716752
   5.76765777  0.00742721  0.00205032
   5.76765778  4.76351012  1.68716752
   7.23392331  9.53631710  0.86033880
   7.22189026  0.03104440  2.53172302
   7.22700101  4.72685130  4.22483306
   1.46695622  0.03104440  2.53172302
  10.15069204  4.72685130  4.22483306
   2.89715432  9.54954364  3.37889349
   4.34442329 14.29847705  2.54778799
   4.34442330  4.71845173  4.19479390
   5.79169236  9.54954364  3.37889349
   5.80626882  0.06075920  5.01867556
   5.81137961  4.75656609  6.71178552
   7.24157752  9.53976371  5.89607482
   8.68884653  0.06915877  5.04871471
   8.68884659  4.79083015  6.72718031
  10.13611564  9.53976371  5.89607482
  11.57142433  0.06075920  5.01867556
  11.56631365  4.75656609  6.71178552
   8.68884654  7.16885616  0.09312173
   8.68884655 11.90377789  1.62755587
   1.53174160  2.38546874  0.84460892
   7.19155032  7.07274699  7.54925426
   2.84712701 12.01656021  1.72571404
   4.34442332  2.38546874  0.84460892
  10.18614286  7.07274699  7.54925426
   5.84171955 12.01656021  1.72571404
   7.15710495  2.38546874  0.84460892
   7.14425451  7.16419623  2.51629340
   7.18324489 12.02044346  4.24132921
   8.68884661  2.26117002  3.35359005
   1.54459207  7.16419623  2.51629340
  10.19444816 12.02044346  4.24132921
   2.88367909  2.38920966  3.36811941
   4.34442329  7.08402535  2.60501996
   4.34442330 12.01969228  4.17190820
   5.80516758  2.38920966  3.36811941
   5.85002494  7.06886375  5.03363917
   5.88901537 11.92511098  6.75867491
   7.22810229  2.39840098  5.87538913
   8.68884653  7.06961492  5.10306018
   8.68884659 12.00528185  6.66994834
  10.14959087  2.39840098  5.87538913
  11.52766821  7.06886375  5.03363917
  11.48867781 11.92511098  6.75867491
   4.34442327  2.52644062  5.88991849
   4.34442332 10.68287365  7.52077225
   8.68884659  3.65912467  0.04658142
   8.68884651  1.11181267  1.64263642
   8.68884655  8.40643356  1.75419606
   1.41988308  5.88101790  0.92109618
   1.41988300 13.19161629  0.79958142
   2.93494830 10.69637399  0.03338449
   2.93656460  3.76833647  0.01288530
   2.93656470  1.00260087  1.67633254
   2.93494823  8.37626006  1.68729312
   4.34442332  5.83067196  0.74468584
   4.34442332 13.24196223  0.97599176
   5.75389833 10.69637399  0.03338449
   5.75228186  3.76833647  0.01288530
   5.75228195  1.00260087  1.67633254
   5.75389825  8.37626006  1.68729312
   7.26896356  5.88101790  0.92109618
   7.26896347 13.19161629  0.79958142
   7.28237997 10.70956511  2.56608255
   7.28111062  3.53598267  2.50761765
   7.29880812  1.09064111  4.25969551
   7.26905763  8.37693525  4.20113512
   8.68884656  5.89363394  3.36728370
   8.68884656 13.38248241  3.42132077
  10.09531306 10.70956511  2.56608255
  10.09658250  3.53598267  2.50761765
  10.07888494  1.09064111  4.25969551
  10.10863542  8.37693525  4.20113512
   2.93461706  5.73214428  3.37759893
   2.93212206 13.30133252  3.34899770
   4.34442329 10.69018934  2.49930829
   4.34442333  3.74640576  2.50960542
   4.34442334  1.02726410  4.13000479
   4.34442330  8.36482509  4.25356862
   5.75422953  5.73214428  3.37759893
   5.75672461 13.30133252  3.34899770
   5.76421220 10.71237196  5.07383326
   5.73446172  3.69696938  4.98381311
   5.75215926  1.25162782  6.73589090
   5.75088990  8.37974210  6.70888576
   7.27654526  5.78797483  5.92597060
   7.27904035 13.35716307  5.89736938
   8.68884653 10.72448212  5.02139976
   8.68884649  3.76034639  5.11350382
   8.68884654  1.04120474  6.73390312
   8.68884659  8.39911787  6.77566002
  10.10114790  5.78797483  5.92597060
  10.09865290 13.35716307  5.89736938
   2.92463441 10.71237196  5.07383326
   2.95438489  3.69696938  4.98381311
  11.62553392  1.25162782  6.73589090
  11.62680336  8.37974210  6.70888576
   4.34442331  5.70682494  5.85364753
   4.34442331 13.19567341  5.90768460
 


--------------------------------------------------------------------------------------------------------


 use serial FFT for orbitals x direction half grid
 k-point  1 :   0.0000 0.0000 0.0000  plane waves:   11907

 maximum and minimum number of plane-waves per node :     11907    11907

 maximum number of plane-waves:     11907
 maximum index in each direction: 
   IXMAX=   15   IYMAX=   26   IZMAX=   15
   IXMIN=    0   IYMIN=  -26   IZMIN=  -13

 The following grids will avoid any aliasing or wrap around errors in the Hartre
 e energy
  - symmetry arguments have not been applied
  - exchange correlation energies might require even more grid points
  - we recommend to set PREC=Normal or Accurate and rely on VASP defaults
 NGX is ok and might be reduce to    64
 NGY is ok and might be reduce to   108
 NGZ is ok and might be reduce to    60

 serial   3D FFT for wavefunctions
 parallel 3D FFT for charge:
    minimum data exchange during FFTs selected (reduces bandwidth)


 total amount of memory used by VASP MPI-rank0   149621. kBytes
=======================================================================

   base      :      30000. kBytes
   nonlr-proj:      40309. kBytes
   fftplans  :       9349. kBytes
   grid      :      57131. kBytes
   one-center:       1679. kBytes
   wavefun   :      11153. kBytes
 
     INWAV:  cpu time    0.0000: real time    0.0000
 Broyden mixing: mesh for mixing (old mesh)
   NGX = 31   NGY = 53   NGZ = 31
  (NGX  =128   NGY  =216   NGZ  =128)
  gives a total of  50933 points

 initial charge density was supplied:
 charge density of overlapping atoms calculated
 number of electron     680.0000000 magnetization      55.0000000
 keeping initial charge density in first step


--------------------------------------------------------------------------------------------------------


 Maximum index for non-local projection operator         8017
 Maximum index for augmentation-charges         1654 (set IRDMAX)


--------------------------------------------------------------------------------------------------------


 First call to EWALD:  gamma=   0.181
 Maximum number of real-space cells 3x 2x 3
 Maximum number of reciprocal cells 2x 4x 2

    FEWALD:  cpu time    0.0048: real time    0.0049


--------------------------------------- Iteration      1(   1)  ---------------------------------------


    POTLOK:  cpu time    0.2848: real time    0.2878
    SETDIJ:  cpu time    0.0387: real time    0.0388
     EDDAV:  cpu time    5.6544: real time    5.6845
    --------------------------------------------
      LOOP:  cpu time    5.9785: real time    6.0118

 eigenvalue-minimisations  :  1824
 total energy-change (2. order) : 0.1185582E+05  (-0.3199669E+05)
 number of electron     680.0000000 magnetization      55.0000000
 augmentation part      680.0000000 magnetization      55.0000000

 Free energy of the ion-electron system (eV)
  ---------------------------------------------------
  alpha Z        PSCENC =      2623.57688969
  Ewald energy   TEWEN  =    -43431.61138335
  -Hartree energ DENC   =    -15140.06109835
  -exchange      EXHF   =         0.00000000
  -V(xc)+E(xc)   XCENC  =      2714.67807696
  PAW double counting   =     46105.09979106   -47983.60450399
  entropy T*S    EENTRO =        -0.00418522
  eigenvalues    EBANDS =      9350.60118759
  atomic energy  EATOM  =     57617.14659671
  Solvation  Ediel_sol  =         0.00000000
  ---------------------------------------------------
  free energy    TOTEN  =     11855.82137110 eV

  energy without entropy =    11855.82555632  energy(sigma->0) =    11855.82346371


--------------------------------------------------------------------------------------------------------




--------------------------------------- Iteration      1(   2)  ---------------------------------------


     EDDAV:  cpu time    5.7731: real time    5.7869
    --------------------------------------------
      LOOP:  cpu time    5.7729: real time    5.7866

 eigenvalue-minimisations  :  1856
 total energy-change (2. order) :-0.9932602E+04  (-0.9119211E+04)
 number of electron     680.0000000 magnetization      55.0000000
 augmentation part      680.0000000 magnetization      55.0000000

 Free energy of the ion-electron system (eV)
  ---------------------------------------------------
  alpha Z        PSCENC =      2623.57688969
  Ewald energy   TEWEN  =    -43431.61138335
  -Hartree energ DENC   =    -15140.06109835
  -exchange      EXHF   =         0.00000000
  -V(xc)+E(xc)   XCENC  =      2714.67807696
  PAW double counting   =     46105.09979106   -47983.60450399
  entropy T*S    EENTRO =        -0.02290503
  eigenvalues    EBANDS =      -581.98206932
  atomic energy  EATOM  =     57617.14659671
  Solvation  Ediel_sol  =         0.00000000
  ---------------------------------------------------
  free energy    TOTEN  =      1923.21939438 eV

  energy without entropy =     1923.24229940  energy(sigma->0) =     1923.23084689


--------------------------------------------------------------------------------------------------------




--------------------------------------- Iteration      1(   3)  ---------------------------------------


     EDDAV:  cpu time    6.0485: real time    6.0628
    --------------------------------------------
      LOOP:  cpu time    6.0485: real time    6.0628

 eigenvalue-minimisations  :  1984
 total energy-change (2. order) :-0.2392207E+04  (-0.2056782E+04)
 number of electron     680.0000000 magnetization      55.0000000
 augmentation part      680.0000000 magnetization      55.0000000

 Free energy of the ion-electron system (eV)
  ---------------------------------------------------
  alpha Z        PSCENC =      2623.57688969
  Ewald energy   TEWEN  =    -43431.61138335
  -Hartree energ DENC   =    -15140.06109835
  -exchange      EXHF   =         0.00000000
  -V(xc)+E(xc)   XCENC  =      2714.67807696
  PAW double counting   =     46105.09979106   -47983.60450399
  entropy T*S    EENTRO =        -0.08299014
  eigenvalues    EBANDS =     -2974.12923830
  atomic energy  EATOM  =     57617.14659671
  Solvation  Ediel_sol  =         0.00000000
  ---------------------------------------------------
  free energy    TOTEN  =      -468.98785971 eV

  energy without entropy =     -468.90486957  energy(sigma->0) =     -468.94636464


--------------------------------------------------------------------------------------------------------




--------------------------------------- Iteration      1(   4)  ---------------------------------------


     EDDAV:  cpu time    6.5627: real time    6.5782
    --------------------------------------------
      LOOP:  cpu time    6.5627: real time    6.5782

 eigenvalue-minimisations  :  2208
 total energy-change (2. order) :-0.3774561E+03  (-0.3659905E+03)
 number of electron     680.0000000 magnetization      55.0000000
 augmentation part      680.0000000 magnetization      55.0000000

 Free energy of the ion-electron system (eV)
  ---------------------------------------------------
  alpha Z        PSCENC =      2623.57688969
  Ewald energy   TEWEN  =    -43431.61138335
  -Hartree energ DENC   =    -15140.06109835
  -exchange      EXHF   =         0.00000000
  -V(xc)+E(xc)   XCENC  =      2714.67807696
  PAW double counting   =     46105.09979106   -47983.60450399
  entropy T*S    EENTRO =        -0.15804583
  eigenvalues    EBANDS =     -3351.51032349
  atomic energy  EATOM  =     57617.14659671
  Solvation  Ediel_sol  =         0.00000000
  ---------------------------------------------------
  free energy    TOTEN  =      -846.44400059 eV

  energy without entropy =     -846.28595476  energy(sigma->0) =     -846.36497768


--------------------------------------------------------------------------------------------------------




--------------------------------------- Iteration      1(   5)  ---------------------------------------


     EDDAV:  cpu time    8.5876: real time    8.6079
    CHARGE:  cpu time    0.3956: real time    0.3966
    MIXING:  cpu time    0.0055: real time    0.0055
    --------------------------------------------
      LOOP:  cpu time    8.9883: real time    9.0096

 eigenvalue-minimisations  :  3088
 total energy-change (2. order) :-0.2733908E+02  (-0.2708447E+02)
 number of electron     679.9999907 magnetization      55.3580659
 augmentation part      200.8226025 magnetization      42.6399956

 Broyden mixing:
  rms(total) = 0.12857E+02    rms(broyden)= 0.12855E+02
  rms(prec ) = 0.14103E+02
  weight for this iteration     100.00

 Free energy of the ion-electron system (eV)
  ---------------------------------------------------
  alpha Z        PSCENC =      2623.57688969
  Ewald energy   TEWEN  =    -43431.61138335
  -Hartree energ DENC   =    -15140.06109835
  -exchange      EXHF   =         0.00000000
  -V(xc)+E(xc)   XCENC  =      2714.67807696
  PAW double counting   =     46105.09979106   -47983.60450399
  entropy T*S    EENTRO =        -0.15396154
  eigenvalues    EBANDS =     -3378.85348533
  atomic energy  EATOM  =     57617.14659671
  Solvation  Ediel_sol  =         0.00000000
  ---------------------------------------------------
  free energy    TOTEN  =      -873.78307814 eV

  energy without entropy =     -873.62911660  energy(sigma->0) =     -873.70609737


--------------------------------------------------------------------------------------------------------




--------------------------------------- Iteration      1(   6)  ---------------------------------------


    POTLOK:  cpu time    0.2611: real time    0.2617
    SETDIJ:  cpu time    0.0402: real time    0.0403
     EDDAV:  cpu time    7.7854: real time    7.8039
    CHARGE:  cpu time    0.3868: real time    0.3877
    MIXING:  cpu time    0.0058: real time    0.0058
    --------------------------------------------
      LOOP:  cpu time    8.4792: real time    8.4993

 eigenvalue-minimisations  :  2720
 total energy-change (2. order) : 0.5086155E+02  (-0.1316504E+03)
 number of electron     679.9999889 magnetization      51.0957033
 augmentation part      235.3514147 magnetization      49.2073860

 Broyden mixing:
  rms(total) = 0.18409E+02    rms(broyden)= 0.18408E+02
  rms(prec ) = 0.19601E+02
  weight for this iteration     100.00

 eigenvalues of (default mixing * dielectric matrix)
  average eigenvalue GAMMA=   0.2728
  0.2728

 Free energy of the ion-electron system (eV)
  ---------------------------------------------------
  alpha Z        PSCENC =      2623.57688969
  Ewald energy   TEWEN  =    -43431.61138335
  -Hartree energ DENC   =    -14697.00050593
  -exchange      EXHF   =         0.00000000
  -V(xc)+E(xc)   XCENC  =      2741.00195137
  PAW double counting   =     53173.83173831   -54858.52901362
  entropy T*S    EENTRO =        -0.06253771
  eigenvalues    EBANDS =     -3991.27526389
  atomic energy  EATOM  =     57617.14659671
  Solvation  Ediel_sol  =         0.00000000
  ---------------------------------------------------
  free energy    TOTEN  =      -822.92152842 eV

  energy without entropy =     -822.85899071  energy(sigma->0) =     -822.89025956


--------------------------------------------------------------------------------------------------------




--------------------------------------- Iteration      1(   7)  ---------------------------------------


    POTLOK:  cpu time    0.2594: real time    0.2600
    SETDIJ:  cpu time    0.0404: real time    0.0405
     EDDAV:  cpu time    7.2969: real time    7.3142
    CHARGE:  cpu time    0.3905: real time    0.3915
    MIXING:  cpu time    0.0056: real time    0.0056
    --------------------------------------------
      LOOP:  cpu time    7.9929: real time    8.0118

 eigenvalue-minimisations  :  2512
 total energy-change (2. order) : 0.1037149E+03  (-0.3363102E+02)
 number of electron     679.9999895 magnetization      48.6311903
 augmentation part      215.4075335 magnetization      37.9402999

 Broyden mixing:
  rms(total) = 0.84453E+01    rms(broyden)= 0.84443E+01
  rms(prec ) = 0.10456E+02
  weight for this iteration     100.00

 eigenvalues of (default mixing * dielectric matrix)
  average eigenvalue GAMMA=   0.4876
  0.4876  0.4876

 Free energy of the ion-electron system (eV)
  ---------------------------------------------------
  alpha Z        PSCENC =      2623.57688969
  Ewald energy   TEWEN  =    -43431.61138335
  -Hartree energ DENC   =    -14933.24603005
  -exchange      EXHF   =         0.00000000
  -V(xc)+E(xc)   XCENC  =      2726.88057962
  PAW double counting   =     55807.09471633   -57654.04924365
  entropy T*S    EENTRO =        -0.07274431
  eigenvalues    EBANDS =     -3474.92597835
  atomic energy  EATOM  =     57617.14659671
  Solvation  Ediel_sol  =         0.00000000
  ---------------------------------------------------
  free energy    TOTEN  =      -719.20659735 eV

  energy without entropy =     -719.13385304  energy(sigma->0) =     -719.17022519


--------------------------------------------------------------------------------------------------------




--------------------------------------- Iteration      1(   8)  ---------------------------------------


    POTLOK:  cpu time    0.2517: real time    0.2524
    SETDIJ:  cpu time    0.0390: real time    0.0391
     EDDAV:  cpu time    7.1861: real time    7.2031
    CHARGE:  cpu time    0.4030: real time    0.4039
    MIXING:  cpu time    0.0063: real time    0.0063
    --------------------------------------------
      LOOP:  cpu time    7.8861: real time    7.9048

 eigenvalue-minimisations  :  2464
 total energy-change (2. order) :-0.9677979E+02  (-0.6853861E+02)
 number of electron     679.9999907 magnetization      43.9472969
 augmentation part      200.6597877 magnetization      38.3255806

 Broyden mixing:
  rms(total) = 0.12532E+02    rms(broyden)= 0.12531E+02
  rms(prec ) = 0.17021E+02
  weight for this iteration     100.00

 eigenvalues of (default mixing * dielectric matrix)
  average eigenvalue GAMMA=   0.5717
  1.1285  0.4164  0.1702

 Free energy of the ion-electron system (eV)
  ---------------------------------------------------
  alpha Z        PSCENC =      2623.57688969
  Ewald energy   TEWEN  =    -43431.61138335
  -Hartree energ DENC   =    -14946.01898265
  -exchange      EXHF   =         0.00000000
  -V(xc)+E(xc)   XCENC  =      2720.69533060
  PAW double counting   =     58400.30369880   -60303.83116498
  entropy T*S    EENTRO =        -0.08177471
  eigenvalues    EBANDS =     -3496.16559589
  atomic energy  EATOM  =     57617.14659671
  Solvation  Ediel_sol  =         0.00000000
  ---------------------------------------------------
  free energy    TOTEN  =      -815.98638577 eV

  energy without entropy =     -815.90461107  energy(sigma->0) =     -815.94549842


--------------------------------------------------------------------------------------------------------




--------------------------------------- Iteration      1(   9)  ---------------------------------------


    POTLOK:  cpu time    0.2569: real time    0.2575
    SETDIJ:  cpu time    0.0404: real time    0.0405
     EDDAV:  cpu time    7.4344: real time    7.4520
    CHARGE:  cpu time    0.3930: real time    0.3939
    MIXING:  cpu time    0.0062: real time    0.0062
    --------------------------------------------
      LOOP:  cpu time    8.1308: real time    8.1501

 eigenvalue-minimisations  :  2576
 total energy-change (2. order) : 0.3019949E+02  (-0.3007811E+02)
 number of electron     679.9999903 magnetization      42.3496408
 augmentation part      215.5695534 magnetization      38.0352255

 Broyden mixing:
  rms(total) = 0.11927E+02    rms(broyden)= 0.11926E+02
  rms(prec ) = 0.14108E+02
  weight for this iteration     100.00

 eigenvalues of (default mixing * dielectric matrix)
  average eigenvalue GAMMA=   0.4881
  1.2025  0.4293  0.1602  0.1602

 Free energy of the ion-electron system (eV)
  ---------------------------------------------------
  alpha Z        PSCENC =      2623.57688969
  Ewald energy   TEWEN  =    -43431.61138335
  -Hartree energ DENC   =    -14676.01487175
  -exchange      EXHF   =         0.00000000
  -V(xc)+E(xc)   XCENC  =      2706.71165919
  PAW double counting   =     62521.93814445   -64420.24925456
  entropy T*S    EENTRO =        -0.02097754
  eigenvalues    EBANDS =     -3727.26370131
  atomic energy  EATOM  =     57617.14659671
  Solvation  Ediel_sol  =         0.00000000
  ---------------------------------------------------
  free energy    TOTEN  =      -785.78689848 eV

  energy without entropy =     -785.76592094  energy(sigma->0) =     -785.77640971


--------------------------------------------------------------------------------------------------------




--------------------------------------- Iteration      1(  10)  ---------------------------------------


    POTLOK:  cpu time    0.2579: real time    0.2585
    SETDIJ:  cpu time    0.0403: real time    0.0404
     EDDAV:  cpu time    7.1911: real time    7.2083
    CHARGE:  cpu time    0.3968: real time    0.3977
    MIXING:  cpu time    0.0065: real time    0.0065
    --------------------------------------------
      LOOP:  cpu time    7.8926: real time    7.9115

 eigenvalue-minimisations  :  2464
 total energy-change (2. order) : 0.4612706E+02  (-0.1142098E+02)
 number of electron     679.9999893 magnetization      38.8975253
 augmentation part      220.0281729 magnetization      32.4618290

 Broyden mixing:
  rms(total) = 0.63750E+01    rms(broyden)= 0.63734E+01
  rms(prec ) = 0.72592E+01
  weight for this iteration     100.00

 eigenvalues of (default mixing * dielectric matrix)
  average eigenvalue GAMMA=   0.5113
  1.3762  0.5653  0.2275  0.2275  0.1600

 Free energy of the ion-electron system (eV)
  ---------------------------------------------------
  alpha Z        PSCENC =      2623.57688969
  Ewald energy   TEWEN  =    -43431.61138335
  -Hartree energ DENC   =    -14678.86164256
  -exchange      EXHF   =         0.00000000
  -V(xc)+E(xc)   XCENC  =      2706.39522208
  PAW double counting   =     63513.58589122   -65427.28269106
  entropy T*S    EENTRO =        -0.09119141
  eigenvalues    EBANDS =     -3662.51753279
  atomic energy  EATOM  =     57617.14659671
  Solvation  Ediel_sol  =         0.00000000
  ---------------------------------------------------
  free energy    TOTEN  =      -739.65984146 eV

  energy without entropy =     -739.56865005  energy(sigma->0) =     -739.61424576


--------------------------------------------------------------------------------------------------------




--------------------------------------- Iteration      1(  11)  ---------------------------------------


    POTLOK:  cpu time    0.2594: real time    0.2600
    SETDIJ:  cpu time    0.0404: real time    0.0405
     EDDAV:  cpu time    6.7591: real time    6.7751
    CHARGE:  cpu time    0.3865: real time    0.3874
    MIXING:  cpu time    0.0065: real time    0.0065
    --------------------------------------------
      LOOP:  cpu time    7.4517: real time    7.4694

 eigenvalue-minimisations  :  2288
 total energy-change (2. order) : 0.1469163E+02  (-0.9039561E+01)
 number of electron     679.9999899 magnetization      36.7515940
 augmentation part      215.2761382 magnetization      32.2582670

 Broyden mixing:
  rms(total) = 0.73059E+01    rms(broyden)= 0.73050E+01
  rms(prec ) = 0.93233E+01
  weight for this iteration     100.00

 eigenvalues of (default mixing * dielectric matrix)
  average eigenvalue GAMMA=   0.5088
  1.4742  0.5947  0.3439  0.3439  0.1480  0.1480

 Free energy of the ion-electron system (eV)
  ---------------------------------------------------
  alpha Z        PSCENC =      2623.57688969
  Ewald energy   TEWEN  =    -43431.61138335
  -Hartree energ DENC   =    -14742.69623628
  -exchange      EXHF   =         0.00000000
  -V(xc)+E(xc)   XCENC  =      2707.59327092
  PAW double counting   =     65163.90692378   -67117.65800380
  entropy T*S    EENTRO =        -0.06020398
  eigenvalues    EBANDS =     -3545.16606112
  atomic energy  EATOM  =     57617.14659671
  Solvation  Ediel_sol  =         0.00000000
  ---------------------------------------------------
  free energy    TOTEN  =      -724.96820744 eV

  energy without entropy =     -724.90800345  energy(sigma->0) =     -724.93810545


--------------------------------------------------------------------------------------------------------




--------------------------------------- Iteration      1(  12)  ---------------------------------------


    POTLOK:  cpu time    0.2541: real time    0.2547
    SETDIJ:  cpu time    0.0390: real time    0.0391
     EDDAV:  cpu time    7.9475: real time    7.9663
    CHARGE:  cpu time    0.4200: real time    0.4210
    MIXING:  cpu time    0.0071: real time    0.0071
    --------------------------------------------
      LOOP:  cpu time    8.6677: real time    8.6882

 eigenvalue-minimisations  :  2528
 total energy-change (2. order) : 0.1354165E+02  (-0.8224418E+01)
 number of electron     679.9999902 magnetization      35.0198883
 augmentation part      213.0443272 magnetization      29.3105608

 Broyden mixing:
  rms(total) = 0.57793E+01    rms(broyden)= 0.57777E+01
  rms(prec ) = 0.68781E+01
  weight for this iteration     100.00

 eigenvalues of (default mixing * dielectric matrix)
  average eigenvalue GAMMA=   0.4798
  1.5392  0.5635  0.3921  0.3921  0.1672  0.1672  0.1374

 Free energy of the ion-electron system (eV)
  ---------------------------------------------------
  alpha Z        PSCENC =      2623.57688969
  Ewald energy   TEWEN  =    -43431.61138335
  -Hartree energ DENC   =    -14788.91246566
  -exchange      EXHF   =         0.00000000
  -V(xc)+E(xc)   XCENC  =      2708.88915971
  PAW double counting   =     65771.70132237   -67744.19871834
  entropy T*S    EENTRO =        -0.12324176
  eigenvalues    EBANDS =     -3467.89471594
  atomic energy  EATOM  =     57617.14659671
  Solvation  Ediel_sol  =         0.00000000
  ---------------------------------------------------
  free energy    TOTEN  =      -711.42655656 eV

  energy without entropy =     -711.30331480  energy(sigma->0) =     -711.36493568


--------------------------------------------------------------------------------------------------------




--------------------------------------- Iteration      1(  13)  ---------------------------------------


    POTLOK:  cpu time    0.2614: real time    0.2620
    SETDIJ:  cpu time    0.0410: real time    0.0411
     EDDAV:  cpu time    7.9715: real time    7.9904
    CHARGE:  cpu time    0.3993: real time    0.4003
    MIXING:  cpu time    0.0078: real time    0.0078
    --------------------------------------------
      LOOP:  cpu time    8.6810: real time    8.7016

 eigenvalue-minimisations  :  2528
 total energy-change (2. order) :-0.3652520E+01  (-0.8926986E+01)
 number of electron     679.9999893 magnetization      32.7509007
 augmentation part      212.3422301 magnetization      24.6968523

 Broyden mixing:
  rms(total) = 0.45476E+01    rms(broyden)= 0.45451E+01
  rms(prec ) = 0.56017E+01
  weight for this iteration     100.00

 eigenvalues of (default mixing * dielectric matrix)
  average eigenvalue GAMMA=   0.4900
  1.7058  0.6011  0.6011  0.3068  0.3068  0.1492  0.1492  0.0997

 Free energy of the ion-electron system (eV)
  ---------------------------------------------------
  alpha Z        PSCENC =      2623.57688969
  Ewald energy   TEWEN  =    -43431.61138335
  -Hartree energ DENC   =    -14800.60345863
  -exchange      EXHF   =         0.00000000
  -V(xc)+E(xc)   XCENC  =      2709.37695518
  PAW double counting   =     66277.76644049   -68256.88588482
  entropy T*S    EENTRO =        -0.07445473
  eigenvalues    EBANDS =     -3453.77077675
  atomic energy  EATOM  =     57617.14659671
  Solvation  Ediel_sol  =         0.00000000
  ---------------------------------------------------
  free energy    TOTEN  =      -715.07907620 eV

  energy without entropy =     -715.00462148  energy(sigma->0) =     -715.04184884


--------------------------------------------------------------------------------------------------------




--------------------------------------- Iteration      1(  14)  ---------------------------------------


    POTLOK:  cpu time    0.2621: real time    0.2628
    SETDIJ:  cpu time    0.0590: real time    0.0591
     EDDAV:  cpu time    7.7843: real time    7.8027
    CHARGE:  cpu time    0.3971: real time    0.3980
    MIXING:  cpu time    0.0075: real time    0.0075
    --------------------------------------------
      LOOP:  cpu time    8.5101: real time    8.5302

 eigenvalue-minimisations  :  2528
 total energy-change (2. order) : 0.6461437E+01  (-0.1310766E+01)
 number of electron     679.9999896 magnetization      31.4949615
 augmentation part      213.3542450 magnetization      26.0911545

 Broyden mixing:
  rms(total) = 0.45649E+01    rms(broyden)= 0.45630E+01
  rms(prec ) = 0.54654E+01
  weight for this iteration     100.00

 eigenvalues of (default mixing * dielectric matrix)
  average eigenvalue GAMMA=   0.4612
  1.7379  0.5839  0.5839  0.3509  0.3509  0.1858  0.1412  0.1080  0.1080

 Free energy of the ion-electron system (eV)
  ---------------------------------------------------
  alpha Z        PSCENC =      2623.57688969
  Ewald energy   TEWEN  =    -43431.61138335
  -Hartree energ DENC   =    -14794.45684264
  -exchange      EXHF   =         0.00000000
  -V(xc)+E(xc)   XCENC  =      2709.81702615
  PAW double counting   =     67013.58033612   -68994.12047449
  entropy T*S    EENTRO =        -0.04315489
  eigenvalues    EBANDS =     -3452.50663250
  atomic energy  EATOM  =     57617.14659671
  Solvation  Ediel_sol  =         0.00000000
  ---------------------------------------------------
  free energy    TOTEN  =      -708.61763921 eV

  energy without entropy =     -708.57448431  energy(sigma->0) =     -708.59606176


--------------------------------------------------------------------------------------------------------




--------------------------------------- Iteration      1(  15)  ---------------------------------------


    POTLOK:  cpu time    0.2588: real time    0.2594
    SETDIJ:  cpu time    0.0406: real time    0.0407
     EDDAV:  cpu time    7.3167: real time    7.3340
    CHARGE:  cpu time    0.3939: real time    0.3949
    MIXING:  cpu time    0.0080: real time    0.0080
    --------------------------------------------
      LOOP:  cpu time    8.0180: real time    8.0369

 eigenvalue-minimisations  :  2528
 total energy-change (2. order) : 0.3051246E+01  (-0.1917632E+01)
 number of electron     679.9999894 magnetization      29.6941033
 augmentation part      213.3953648 magnetization      22.0248753

 Broyden mixing:
  rms(total) = 0.27655E+01    rms(broyden)= 0.27631E+01
  rms(prec ) = 0.33257E+01
  weight for this iteration     100.00

 eigenvalues of (default mixing * dielectric matrix)
  average eigenvalue GAMMA=   0.5040
  1.7337  0.8223  0.8223  0.4542  0.3443  0.3443  0.1567  0.1567  0.1205  0.0853

 Free energy of the ion-electron system (eV)
  ---------------------------------------------------
  alpha Z        PSCENC =      2623.57688969
  Ewald energy   TEWEN  =    -43431.61138335
  -Hartree energ DENC   =    -14799.65509284
  -exchange      EXHF   =         0.00000000
  -V(xc)+E(xc)   XCENC  =      2710.37810757
  PAW double counting   =     67313.28173607   -69295.66100765
  entropy T*S    EENTRO =        -0.07504670
  eigenvalues    EBANDS =     -3442.94719300
  atomic energy  EATOM  =     57617.14659671
  Solvation  Ediel_sol  =         0.00000000
  ---------------------------------------------------
  free energy    TOTEN  =      -705.56639351 eV

  energy without entropy =     -705.49134681  energy(sigma->0) =     -705.52887016


--------------------------------------------------------------------------------------------------------




--------------------------------------- Iteration      1(  16)  ---------------------------------------


    POTLOK:  cpu time    0.2594: real time    0.2600
    SETDIJ:  cpu time    0.0401: real time    0.0402
     EDDAV:  cpu time    7.3254: real time    7.3428
    CHARGE:  cpu time    0.3944: real time    0.3953
    MIXING:  cpu time    0.0082: real time    0.0082
    --------------------------------------------
      LOOP:  cpu time    8.0276: real time    8.0466

 eigenvalue-minimisations  :  2528
 total energy-change (2. order) : 0.1718720E+01  (-0.7677114E+00)
 number of electron     679.9999896 magnetization      29.9110079
 augmentation part      212.9814018 magnetization      20.6838386

 Broyden mixing:
  rms(total) = 0.22848E+01    rms(broyden)= 0.22835E+01
  rms(prec ) = 0.25179E+01
  weight for this iteration     100.00

 eigenvalues of (default mixing * dielectric matrix)
  average eigenvalue GAMMA=   0.4644
  1.7481  0.8293  0.8293  0.4033  0.3531  0.3531  0.1575  0.1575  0.1204  0.0897
  0.0673

 Free energy of the ion-electron system (eV)
  ---------------------------------------------------
  alpha Z        PSCENC =      2623.57688969
  Ewald energy   TEWEN  =    -43431.61138335
  -Hartree energ DENC   =    -14818.87066577
  -exchange      EXHF   =         0.00000000
  -V(xc)+E(xc)   XCENC  =      2711.75803738
  PAW double counting   =     67450.63316635   -69432.49998340
  entropy T*S    EENTRO =        -0.06633327
  eigenvalues    EBANDS =     -3423.91399765
  atomic energy  EATOM  =     57617.14659671
  Solvation  Ediel_sol  =         0.00000000
  ---------------------------------------------------
  free energy    TOTEN  =      -703.84767331 eV

  energy without entropy =     -703.78134004  energy(sigma->0) =     -703.81450667


--------------------------------------------------------------------------------------------------------




--------------------------------------- Iteration      1(  17)  ---------------------------------------


    POTLOK:  cpu time    0.2579: real time    0.2585
    SETDIJ:  cpu time    0.0395: real time    0.0396
     EDDAV:  cpu time    7.5131: real time    7.5309
    CHARGE:  cpu time    0.3910: real time    0.3920
    MIXING:  cpu time    0.0084: real time    0.0084
    --------------------------------------------
      LOOP:  cpu time    8.2098: real time    8.2293

 eigenvalue-minimisations  :  2608
 total energy-change (2. order) :-0.4247397E+00  (-0.8928848E+00)
 number of electron     679.9999895 magnetization      29.7197574
 augmentation part      213.1505167 magnetization      21.7897505

 Broyden mixing:
  rms(total) = 0.22586E+01    rms(broyden)= 0.22578E+01
  rms(prec ) = 0.26207E+01
  weight for this iteration     100.00

 eigenvalues of (default mixing * dielectric matrix)
  average eigenvalue GAMMA=   0.4491
  1.7193  0.8789  0.8789  0.3858  0.3451  0.3451  0.1603  0.1603  0.1559  0.1559
  0.1205  0.0836

 Free energy of the ion-electron system (eV)
  ---------------------------------------------------
  alpha Z        PSCENC =      2623.57688969
  Ewald energy   TEWEN  =    -43431.61138335
  -Hartree energ DENC   =    -14814.93598579
  -exchange      EXHF   =         0.00000000
  -V(xc)+E(xc)   XCENC  =      2711.59668275
  PAW double counting   =     67458.55463778   -69439.04755784
  entropy T*S    EENTRO =        -0.09734497
  eigenvalues    EBANDS =     -3429.45494794
  atomic energy  EATOM  =     57617.14659671
  Solvation  Ediel_sol  =         0.00000000
  ---------------------------------------------------
  free energy    TOTEN  =      -704.27241297 eV

  energy without entropy =     -704.17506799  energy(sigma->0) =     -704.22374048


--------------------------------------------------------------------------------------------------------




--------------------------------------- Iteration      1(  18)  ---------------------------------------


    POTLOK:  cpu time    0.3327: real time    0.3335
    SETDIJ:  cpu time    0.0405: real time    0.0406
     EDDAV:  cpu time    7.1417: real time    7.1587
    CHARGE:  cpu time    0.3905: real time    0.3914
    MIXING:  cpu time    0.0088: real time    0.0088
    --------------------------------------------
      LOOP:  cpu time    7.9142: real time    7.9330

 eigenvalue-minimisations  :  2448
 total energy-change (2. order) :-0.5258329E+00  (-0.6663187E+00)
 number of electron     679.9999896 magnetization      29.7217425
 augmentation part      212.8496199 magnetization      20.2949816

 Broyden mixing:
  rms(total) = 0.25244E+01    rms(broyden)= 0.25235E+01
  rms(prec ) = 0.28387E+01
  weight for this iteration     100.00

 eigenvalues of (default mixing * dielectric matrix)
  average eigenvalue GAMMA=   0.4225
  1.7108  0.8726  0.8726  0.3641  0.3641  0.3694  0.1347  0.1570  0.1570  0.1435
  0.1435  0.1210  0.0823

 Free energy of the ion-electron system (eV)
  ---------------------------------------------------
  alpha Z        PSCENC =      2623.57688969
  Ewald energy   TEWEN  =    -43431.61138335
  -Hartree energ DENC   =    -14818.56417633
  -exchange      EXHF   =         0.00000000
  -V(xc)+E(xc)   XCENC  =      2711.73608649
  PAW double counting   =     67438.84438004   -69419.45412090
  entropy T*S    EENTRO =        -0.00705264
  eigenvalues    EBANDS =     -3426.46546551
  atomic energy  EATOM  =     57617.14659671
  Solvation  Ediel_sol  =         0.00000000
  ---------------------------------------------------
  free energy    TOTEN  =      -704.79824582 eV

  energy without entropy =     -704.79119318  energy(sigma->0) =     -704.79471950


--------------------------------------------------------------------------------------------------------




--------------------------------------- Iteration      1(  19)  ---------------------------------------


    POTLOK:  cpu time    0.2567: real time    0.2573
    SETDIJ:  cpu time    0.0402: real time    0.0403
     EDDAV:  cpu time    7.4316: real time    7.4492
    CHARGE:  cpu time    0.3808: real time    0.3817
    MIXING:  cpu time    0.0088: real time    0.0088
    --------------------------------------------
      LOOP:  cpu time    8.1180: real time    8.1373

 eigenvalue-minimisations  :  2592
 total energy-change (2. order) : 0.4830638E+00  (-0.1631857E+00)
 number of electron     679.9999896 magnetization      29.2704020
 augmentation part      212.8715229 magnetization      19.8398992

 Broyden mixing:
  rms(total) = 0.22605E+01    rms(broyden)= 0.22605E+01
  rms(prec ) = 0.23780E+01
  weight for this iteration     100.00

 eigenvalues of (default mixing * dielectric matrix)
  average eigenvalue GAMMA=   0.4272
  1.7426  0.8664  0.8664  0.4274  0.4274  0.3379  0.2878  0.2878  0.1623  0.1547
  0.1547  0.1201  0.0853  0.0593

 Free energy of the ion-electron system (eV)
  ---------------------------------------------------
  alpha Z        PSCENC =      2623.57688969
  Ewald energy   TEWEN  =    -43431.61138335
  -Hartree energ DENC   =    -14818.31018825
  -exchange      EXHF   =         0.00000000
  -V(xc)+E(xc)   XCENC  =      2711.73410329
  PAW double counting   =     67443.48590797   -69423.83880421
  entropy T*S    EENTRO =        -0.05144944
  eigenvalues    EBANDS =     -3426.44685443
  atomic energy  EATOM  =     57617.14659671
  Solvation  Ediel_sol  =         0.00000000
  ---------------------------------------------------
  free energy    TOTEN  =      -704.31518202 eV

  energy without entropy =     -704.26373258  energy(sigma->0) =     -704.28945730


--------------------------------------------------------------------------------------------------------




--------------------------------------- Iteration      1(  20)  ---------------------------------------


    POTLOK:  cpu time    0.2518: real time    0.2524
    SETDIJ:  cpu time    0.0392: real time    0.0393
     EDDAV:  cpu time    7.2681: real time    7.2853
    CHARGE:  cpu time    0.3863: real time    0.3872
    MIXING:  cpu time    0.0093: real time    0.0094
    --------------------------------------------
      LOOP:  cpu time    7.9547: real time    7.9735

 eigenvalue-minimisations  :  2512
 total energy-change (2. order) :-0.1124934E+00  (-0.2967101E+00)
 number of electron     679.9999895 magnetization      29.3344456
 augmentation part      212.9103719 magnetization      20.2226127

 Broyden mixing:
  rms(total) = 0.21573E+01    rms(broyden)= 0.21570E+01
  rms(prec ) = 0.22375E+01
  weight for this iteration     100.00

 eigenvalues of (default mixing * dielectric matrix)
  average eigenvalue GAMMA=   0.4024
  1.7455  0.8645  0.8645  0.4275  0.4275  0.3418  0.2935  0.2935  0.1653  0.1548
  0.1548  0.1201  0.0852  0.0551  0.0430

 Free energy of the ion-electron system (eV)
  ---------------------------------------------------
  alpha Z        PSCENC =      2623.57688969
  Ewald energy   TEWEN  =    -43431.61138335
  -Hartree energ DENC   =    -14819.46263840
  -exchange      EXHF   =         0.00000000
  -V(xc)+E(xc)   XCENC  =      2711.87654133
  PAW double counting   =     67521.28613725   -69501.07999951
  entropy T*S    EENTRO =        -0.06291819
  eigenvalues    EBANDS =     -3426.09690096
  atomic energy  EATOM  =     57617.14659671
  Solvation  Ediel_sol  =         0.00000000
  ---------------------------------------------------
  free energy    TOTEN  =      -704.42767542 eV

  energy without entropy =     -704.36475723  energy(sigma->0) =     -704.39621633


--------------------------------------------------------------------------------------------------------




--------------------------------------- Iteration      1(  21)  ---------------------------------------


    POTLOK:  cpu time    0.2581: real time    0.2588
    SETDIJ:  cpu time    0.0404: real time    0.0405
     EDDAV:  cpu time    7.6065: real time    7.6246
    CHARGE:  cpu time    0.3982: real time    0.3991
    MIXING:  cpu time    0.0096: real time    0.0096
    --------------------------------------------
      LOOP:  cpu time    8.3128: real time    8.3325

 eigenvalue-minimisations  :  2624
 total energy-change (2. order) :-0.2168681E+00  (-0.5937354E-01)
 number of electron     679.9999895 magnetization      28.9595050
[...]
      5.81019      0.05265      5.01009        -0.000906      0.001852     -0.001289
      5.80665      4.76084      6.70576        -0.001475     -0.002106      0.001488
      7.23687      9.55044      5.92390        -0.003489     -0.002064      0.000410
      8.68823      0.06813      5.04791        -0.000000      0.002183     -0.005789
      8.68823      4.80393      6.73462        -0.000000      0.000596     -0.001684
     10.13958      9.55044      5.92390         0.003489     -0.002064      0.000410
     11.56626      0.05265      5.01009         0.000906      0.001852     -0.001289
     11.56980      4.76084      6.70576         0.001475     -0.002106      0.001488
      8.68823      7.14994      0.09396         0.000000     -0.007485      0.004433
      8.68823     11.94375      1.62845        -0.000000      0.007485     -0.004433
      1.53482      2.38815      0.84493        -0.001109     -0.000000     -0.000000
      7.17018      7.04116      7.55134        -0.005319     -0.008258      0.005805
      2.82607     12.06980      1.72666        -0.005319      0.008258     -0.005805
      4.34411      2.38815      0.84493         0.000000      0.000000     -0.000000
     10.20627      7.04116      7.55134         0.005319     -0.008258      0.005805
      5.86216     12.06980      1.72666         0.005319      0.008258     -0.005805
      7.15341      2.38815      0.84493         0.001109      0.000000      0.000000
      7.14908      7.14660      2.52899         0.004974     -0.004922     -0.000739
      7.18947     12.05989      4.24090         0.004086      0.006678     -0.000203
      8.68823      2.26135      3.35269        -0.000000      0.001394     -0.004779
      1.53914      7.14660      2.52899        -0.004974     -0.004922     -0.000739
     10.18698     12.05989      4.24090        -0.004086      0.006678     -0.000203
      2.88910      2.39424      3.37117         0.000526      0.000527     -0.003209
      4.34411      7.06191      2.60473        -0.000000     -0.007056     -0.004488
      4.34411     12.07676      4.18209         0.000000      0.004591      0.000430
      5.79913      2.39424      3.37117        -0.000526      0.000527     -0.003209
      5.84287      7.05107      5.03710        -0.004086     -0.006678      0.000203
      5.88326     11.96436      6.74901        -0.004974      0.004922      0.000739
      7.23321      2.39933      5.87429         0.000526     -0.000527      0.003209
      8.68823      7.03420      5.09592        -0.000000     -0.004591     -0.000430
      8.68823     12.04905      6.67328         0.000000      0.007056      0.004488
     10.14324      2.39933      5.87429        -0.000526     -0.000527      0.003209
     11.53358      7.05107      5.03710         0.004086     -0.006678      0.000203
     11.49320     11.96436      6.74901         0.004974      0.004922      0.000739
      4.34411      2.53222      5.89278         0.000000     -0.001394      0.004779
      4.34411     10.68801      7.51258         0.000000      0.000702      0.002656
      8.68823      3.64590      0.06108         0.000000     -0.010467      0.003084
      8.68823      1.13041      1.62879        -0.000000      0.010467     -0.003084
      8.68823      8.42295      1.76542        -0.000000     -0.000702     -0.002656
      1.41585      5.89884      0.91631        -0.000587     -0.003173     -0.003295
      1.41585     13.19485      0.80610        -0.000587      0.003173      0.003295
      2.93283     10.70256      0.03946         0.001305     -0.002227      0.002206
      2.93075      3.77364      0.00461         0.001184     -0.001053      0.002760
      2.93075      1.00266      1.68526         0.001184      0.001053     -0.002760
      2.93283      8.39114      1.68295         0.001305      0.002227     -0.002206
      4.34411      5.82935      0.77105        -0.000000      0.009949     -0.001390
      4.34411     13.26434      0.95136         0.000000     -0.009949      0.001390
      5.75540     10.70256      0.03946        -0.001305     -0.002227      0.002206
      5.75747      3.77364      0.00461        -0.001184     -0.001053      0.002760
      5.75747      1.00266      1.68526        -0.001184      0.001053     -0.002760
      5.75540      8.39114      1.68295        -0.001305      0.002227     -0.002206
      7.27238      5.89884      0.91631         0.000587     -0.003173     -0.003295
      7.27238     13.19485      0.80610         0.000587      0.003173      0.003295
      7.28167     10.72657      2.56228         0.000834      0.002031     -0.000373
      7.27274      3.55876      2.51231         0.000841     -0.002579      0.005527
      7.29964      1.09354      4.25398        -0.002405      0.000324     -0.005436
      7.24542      8.42531      4.20743        -0.004443      0.005590     -0.006281
      8.68823      5.91556      3.35455        -0.000000      0.007481     -0.001014
      8.68823     13.38280      3.42843        -0.000000     -0.000803     -0.008434
     10.09478     10.72657      2.56228        -0.000834      0.002031     -0.000373
     10.10371      3.55876      2.51231        -0.000841     -0.002579      0.005527
     10.07682      1.09354      4.25398         0.002405      0.000324     -0.005436
     10.13103      8.42531      4.20743         0.004443      0.005590     -0.006281
      2.92579      5.74499      3.38591        -0.000399     -0.001138     -0.000414
      2.93250     13.29445      3.35237         0.002958     -0.000392      0.004425
      4.34411     10.67456      2.52976         0.000000     -0.013294      0.014213
      4.34411      3.74545      2.52651         0.000000     -0.011611      0.007315
      4.34411      1.00033      4.13765         0.000000      0.004164      0.004193
      4.34411      8.38090      4.24163         0.000000     -0.000693      0.000213
      5.76244      5.74499      3.38591         0.000399     -0.001138     -0.000414
      5.75573     13.29445      3.35237        -0.002958     -0.000392      0.004425
      5.78692     10.68565      5.07058         0.004443     -0.005590      0.006281
      5.73270      3.70003      4.99149         0.002405     -0.000324      0.005436
      5.75959      1.23481      6.73315        -0.000841      0.002579     -0.005527
      5.75067      8.38439      6.71572        -0.000834     -0.002031      0.000373
      7.27661      5.81651      5.92563         0.002958      0.000392     -0.004425
      7.26990     13.36597      5.89209        -0.000399      0.001138      0.000414
      8.68823     10.73006      5.03638        -0.000000      0.000693     -0.000213
      8.68823      3.79324      5.10781        -0.000000     -0.004164     -0.004193
      8.68823      1.04812      6.71895        -0.000000      0.011611     -0.007315
      8.68823      8.43640      6.74824        -0.000000      0.013294     -0.014213
     10.09984      5.81651      5.92563        -0.002958      0.000392     -0.004425
     10.10655     13.36597      5.89209         0.000399      0.001138      0.000414
      2.90131     10.68565      5.07058        -0.004443     -0.005590      0.006281
      2.95552      3.70003      4.99149        -0.002405     -0.000324      0.005436
     11.61686      1.23481      6.73315         0.000841      0.002579     -0.005527
     11.62578      8.38439      6.71572         0.000834     -0.002031      0.000373
      4.34411      5.72816      5.84957         0.000000      0.000803      0.008434
      4.34411     13.19540      5.92345         0.000000     -0.007481      0.001014
 -----------------------------------------------------------------------------------
    total drift:                               -0.001620      0.004329     -0.001651


--------------------------------------------------------------------------------------------------------



  FREE ENERGIE OF THE ION-ELECTRON SYSTEM (eV)
  ---------------------------------------------------
  free  energy   TOTEN  =      -705.9062788703 eV

  energy  without entropy=     -705.8484322182  energy(sigma->0) =     -705.87735554
 
 d Force = 0.6726032E-03[ 0.585E-03, 0.761E-03]  d Energy = 0.6134435E-03 0.592E-04
 d Force =-0.2141301E+00[-0.225E+00,-0.203E+00]  d Ewald  = 0.4759022E+00-0.690E+00


--------------------------------------------------------------------------------------------------------


    POTLOK:  cpu time    0.3160: real time    0.3167


--------------------------------------------------------------------------------------------------------


 Quasi-Newton relaxation of ions (Broydens 2nd method)
  g(Force)  = 0.233E-03   g(Stress)= 0.505E-04

 retain information from N=  4 steps
 eigenvalues of (default step * inverse Hessian matrix)
  average eigenvalue of G=   3.1334
 eigenvalue spectrum of G is  0.7923  3.4247  3.4247  4.8917


--------------------------------------------------------------------------------------------------------


  
 reached required accuracy - stopping structural energy minimisation
     LOOP+:  cpu time   72.0713: real time   72.2934
    4ORBIT:  cpu time    0.0000: real time    0.0000

volume of typ            1:     5.4 %

volume of typ            2:    14.9 %

volume of typ            3:    22.4 %

volume of typ            4:     9.4 %
 
total charge     
 
# of ion       s       p       d       tot
------------------------------------------
    1        0.294   6.192   1.914   8.400
    2        0.294   6.192   1.914   8.400
    3        0.292   6.188   1.908   8.387
    4        0.292   6.188   1.905   8.385
    5        0.292   6.188   1.905   8.385
    6        0.206   0.244   7.915   8.366
    7        0.235   0.285   7.881   8.402
    8        0.235   0.285   7.881   8.402
    9        0.235   0.285   7.881   8.402
   10        0.235   0.285   7.881   8.402
   11        0.206   0.244   7.915   8.366
   12        0.232   0.277   7.884   8.393
   13        0.232   0.278   7.884   8.394
   14        0.232   0.277   7.884   8.393
   15        0.232   0.278   7.884   8.394
   16        0.210   0.253   7.933   8.395
   17        0.271   0.359   7.838   8.467
   18        0.269   0.355   7.841   8.466
   19        0.210   0.253   7.933   8.395
   20        0.232   0.278   7.884   8.394
   21        0.232   0.277   7.884   8.393
   22        0.210   0.253   7.933   8.395
   23        0.269   0.355   7.841   8.466
   24        0.271   0.359   7.837   8.467
   25        0.210   0.253   7.933   8.395
   26        0.232   0.278   7.884   8.394
   27        0.232   0.277   7.884   8.393
   28        2.083   0.276   0.106   2.465
   29        2.083   0.276   0.106   2.465
   30        2.084   0.280   0.108   2.472
   31        2.083   0.273   0.106   2.463
   32        2.083   0.273   0.106   2.463
   33        2.071   0.234   0.084   2.389
   34        2.083   0.273   0.106   2.463
   35        2.083   0.273   0.106   2.463
   36        2.084   0.280   0.108   2.472
   37        2.082   0.276   0.107   2.465
   38        2.075   0.251   0.094   2.420
   39        2.087   0.287   0.112   2.487
   40        2.082   0.276   0.107   2.465
   41        2.075   0.251   0.094   2.420
   42        2.075   0.246   0.092   2.413
   43        2.076   0.253   0.095   2.425
   44        2.081   0.266   0.103   2.449
   45        2.075   0.246   0.092   2.413
   46        2.075   0.251   0.094   2.420
   47        2.082   0.276   0.107   2.465
   48        2.075   0.246   0.092   2.413
   49        2.081   0.266   0.103   2.449
   50        2.076   0.253   0.095   2.425
   51        2.075   0.246   0.092   2.413
   52        2.075   0.251   0.094   2.420
   53        2.082   0.276   0.107   2.465
   54        2.087   0.287   0.112   2.487
   55        1.248   2.837   0.005   4.091
   56        1.250   2.837   0.005   4.092
   57        1.250   2.837   0.005   4.092
   58        1.248   2.837   0.005   4.091
   59        1.249   2.839   0.005   4.092
   60        1.249   2.839   0.005   4.092
   61        1.250   2.833   0.005   4.088
   62        1.257   2.787   0.005   4.049
   63        1.257   2.787   0.005   4.049
   64        1.250   2.833   0.005   4.088
   65        1.257   2.786   0.005   4.048
   66        1.257   2.786   0.005   4.048
   67        1.250   2.833   0.005   4.088
   68        1.257   2.787   0.005   4.049
   69        1.257   2.787   0.005   4.049
   70        1.250   2.833   0.005   4.088
   71        1.249   2.839   0.005   4.092
   72        1.249   2.839   0.005   4.092
   73        1.250   2.832   0.005   4.086
   74        1.251   2.835   0.005   4.091
   75        1.256   2.793   0.005   4.053
   76        1.252   2.825   0.005   4.082
   77        1.252   2.830   0.005   4.087
   78        1.258   2.782   0.005   4.045
   79        1.250   2.832   0.005   4.086
   80        1.251   2.835   0.005   4.091
   81        1.256   2.793   0.005   4.053
   82        1.252   2.825   0.005   4.082
   83        1.254   2.794   0.005   4.053
   84        1.254   2.799   0.005   4.058
   85        1.254   2.818   0.006   4.078
   86        1.259   2.784   0.005   4.048
   87        1.258   2.783   0.005   4.046
   88        1.251   2.827   0.005   4.084
   89        1.254   2.794   0.005   4.053
   90        1.254   2.799   0.005   4.058
   91        1.252   2.825   0.005   4.082
   92        1.256   2.793   0.005   4.053
   93        1.251   2.835   0.005   4.091
   94        1.250   2.832   0.005   4.086
   95        1.254   2.799   0.005   4.058
   96        1.254   2.794   0.005   4.053
   97        1.251   2.827   0.005   4.084
   98        1.258   2.783   0.005   4.046
   99        1.259   2.784   0.005   4.048
  100        1.254   2.818   0.006   4.078
  101        1.254   2.799   0.005   4.058
  102        1.254   2.794   0.005   4.053
  103        1.252   2.825   0.005   4.082
  104        1.256   2.793   0.005   4.053
  105        1.251   2.835   0.005   4.091
  106        1.250   2.832   0.005   4.086
  107        1.258   2.782   0.005   4.045
  108        1.252   2.830   0.005   4.087
--------------------------------------------------
tot         130.41  196.28  186.07  512.76
 
magnetization (x)
 
# of ion       s       p       d       tot
------------------------------------------
    1       -0.002  -0.001  -0.009  -0.012
    2       -0.002  -0.001  -0.009  -0.012
    3       -0.000   0.000   0.018   0.018
    4       -0.001  -0.001  -0.015  -0.018
    5       -0.001  -0.001  -0.015  -0.018
    6        0.001  -0.000   1.481   1.482
    7        0.001   0.000   1.113   1.113
    8        0.001   0.000   1.113   1.113
    9        0.001   0.000   1.113   1.113
   10        0.001   0.000   1.113   1.113
   11        0.001  -0.000   1.481   1.482
   12        0.001   0.000   1.201   1.202
   13        0.001   0.000   1.209   1.209
   14        0.001   0.000   1.201   1.202
   15        0.001   0.000   1.209   1.209
   16       -0.000  -0.000   0.126   0.126
   17       -0.002  -0.002   0.259   0.256
   18       -0.002  -0.001   0.278   0.275
   19       -0.000  -0.000   0.126   0.126
   20        0.001   0.000   1.209   1.209
   21        0.001   0.000   1.201   1.202
   22       -0.000  -0.000   0.126   0.126
   23       -0.002  -0.001   0.278   0.275
   24       -0.002  -0.002   0.259   0.256
   25       -0.000  -0.000   0.126   0.126
   26        0.001   0.000   1.209   1.209
   27        0.001   0.000   1.201   1.202
   28        0.003   0.006   0.001   0.010
   29        0.003   0.006   0.001   0.010
   30        0.005   0.010   0.002   0.017
   31        0.002   0.006   0.001   0.009
   32        0.002   0.006   0.001   0.009
   33        0.007   0.011   0.001   0.019
   34        0.002   0.006   0.001   0.009
   35        0.002   0.006   0.001   0.009
   36        0.005   0.010   0.002   0.017
   37        0.004   0.009   0.002   0.015
   38        0.005   0.008   0.001   0.014
   39        0.005   0.011   0.002   0.018
   40        0.004   0.009   0.002   0.015
   41        0.005   0.008   0.001   0.014
   42        0.005   0.010   0.001   0.016
   43        0.005   0.008   0.001   0.014
   44        0.002   0.002  -0.000   0.003
   45        0.005   0.010   0.001   0.016
   46        0.005   0.008   0.001   0.014
   47        0.004   0.009   0.002   0.015
   48        0.005   0.010   0.001   0.016
   49        0.002   0.002  -0.000   0.003
   50        0.005   0.008   0.001   0.014
   51        0.005   0.010   0.001   0.016
   52        0.005   0.008   0.001   0.014
   53        0.004   0.009   0.002   0.015
   54        0.005   0.011   0.002   0.018
   55        0.010   0.123   0.000   0.133
   56        0.010   0.085   0.000   0.095
   57        0.010   0.085   0.000   0.095
   58        0.010   0.123   0.000   0.133
   59        0.009   0.081   0.000   0.090
   60        0.009   0.081   0.000   0.090
   61        0.007   0.079   0.000   0.085
   62        0.011   0.060   0.000   0.071
   63        0.011   0.060   0.000   0.071
   64        0.007   0.079   0.000   0.085
   65        0.015   0.169   0.000   0.183
   66        0.015   0.169   0.000   0.183
   67        0.007   0.079   0.000   0.085
   68        0.011   0.060   0.000   0.071
   69        0.011   0.060   0.000   0.071
   70        0.007   0.079   0.000   0.085
   71        0.009   0.081   0.000   0.090
   72        0.009   0.081   0.000   0.090
   73        0.007   0.088   0.000   0.095
   74        0.010   0.097   0.000   0.107
   75        0.014   0.147   0.000   0.161
   76       -0.001  -0.001  -0.000  -0.002
   77        0.009   0.092   0.000   0.102
   78        0.012   0.074   0.000   0.086
   79        0.007   0.088   0.000   0.095
   80        0.010   0.097   0.000   0.107
   81        0.014   0.147   0.000   0.161
   82       -0.001  -0.001  -0.000  -0.002
   83        0.010   0.057   0.000   0.067
   84        0.014   0.140   0.000   0.155
   85       -0.008  -0.105  -0.000  -0.113
   86        0.015   0.104   0.000   0.119
   87        0.011   0.065   0.000   0.076
   88        0.006   0.107   0.000   0.114
   89        0.010   0.057   0.000   0.067
   90        0.014   0.140   0.000   0.155
   91       -0.001  -0.001  -0.000  -0.002
   92        0.014   0.147   0.000   0.161
   93        0.010   0.097   0.000   0.107
   94        0.007   0.088   0.000   0.095
   95        0.014   0.140   0.000   0.155
   96        0.010   0.057   0.000   0.067
   97        0.006   0.107   0.000   0.114
   98        0.011   0.065   0.000   0.076
   99        0.015   0.104   0.000   0.119
  100       -0.008  -0.105  -0.000  -0.113
  101        0.014   0.140   0.000   0.155
  102        0.010   0.057   0.000   0.067
  103       -0.001  -0.001  -0.000  -0.002
  104        0.014   0.147   0.000   0.161
  105        0.010   0.097   0.000   0.107
  106        0.007   0.088   0.000   0.095
  107        0.012   0.074   0.000   0.086
  108        0.009   0.092   0.000   0.102
--------------------------------------------------
tot           0.58    4.62   18.65   23.85
 

 total amount of memory used by VASP MPI-rank0   149621. kBytes
=======================================================================

   base      :      30000. kBytes
   nonlr-proj:      40309. kBytes
   fftplans  :       9349. kBytes
   grid      :      57131. kBytes
   one-center:       1679. kBytes
   wavefun   :      11153. kBytes
 
  
  
 General timing and accounting informations for this job:
 ========================================================
  
                  Total CPU time used (sec):     1798.870
                            User time (sec):     1788.261
                          System time (sec):       10.609
                         Elapsed time (sec):     1828.518
  
                   Maximum memory used (kb):      212928.
                   Average memory used (kb):           0.
  
                          Minor page faults:        39983
                          Major page faults:           54
                 Voluntary context switches:         1763
