 vasp.5.4.4.18Apr17-6-g9f103f2a35 (build May 12 2020 05:39:39) gamma-only       
  
 MD_VERSION_INFO: Compiled 2020-05-12T12:39:39-UTC in devlin.sd.materialsdesign.
 com:/home/medea2/data/build/wwolf/vasp-gpu5.4.4/13047/x86_64/src/src/build/gam 
 from svn 13047
 
 This VASP executable licensed from Materials Design, Inc.
 
 executed on                        Lin64 date 2023.04.04  06:12:33
 running on   16 total cores
 distrk:  each k-point on   16 cores,    1 groups
 distr:  one band on NCORES_PER_BAND=   1 cores,   16 groups


--------------------------------------------------------------------------------------------------------


 INCAR:
 POTCAR:    PAW_PBE Ta_pv 07Sep2000               
 POTCAR:    PAW_PBE Ni 02Aug2007                  
 POTCAR:    PAW_PBE Li_sv 10Sep2004               
 POTCAR:    PAW_PBE O 08Apr2002                   

 ----------------------------------------------------------------------------- 
|                                                                             |
|           W    W    AA    RRRRR   N    N  II  N    N   GGGG   !!!           |
|           W    W   A  A   R    R  NN   N  II  NN   N  G    G  !!!           |
|           W    W  A    A  R    R  N N  N  II  N N  N  G       !!!           |
|           W WW W  AAAAAA  RRRRR   N  N N  II  N  N N  G  GGG   !            |
|           WW  WW  A    A  R   R   N   NN  II  N   NN  G    G                |
|           W    W  A    A  R    R  N    N  II  N    N   GGGG   !!!           |
|                                                                             |
|      For optimal performance we recommend to set                            |
|        NCORE= 4 - approx SQRT( number of cores)                             |
|      NCORE specifies how many cores store one orbital (NPAR=cpu/NCORE).     |
|      This setting can  greatly improve the performance of VASP for DFT.     |
|      The default,   NCORE=1            might be grossly inefficient         |
|      on modern multi-core architectures or massively parallel machines.     |
|      Do your own testing !!!!                                               |
|      Unfortunately you need to use the default for GW and RPA calculations. |
|      (for HF NCORE is supported but not extensively tested yet)             |
|                                                                             |
 ----------------------------------------------------------------------------- 

 POTCAR:    PAW_PBE Ta_pv 07Sep2000               
  local pseudopotential read in
  partial core-charges read in
  partial kinetic energy density read in
  atomic valenz-charges read in
  non local Contribution for L=           1  read in
    real space projection operators read in
  non local Contribution for L=           1  read in
    real space projection operators read in
  non local Contribution for L=           2  read in
    real space projection operators read in
  non local Contribution for L=           2  read in
    real space projection operators read in
  non local Contribution for L=           0  read in
    real space projection operators read in
  non local Contribution for L=           0  read in
    real space projection operators read in
    PAW grid and wavefunctions read in
 
   number of l-projection  operators is LMAX  =           6
   number of lm-projection operators is LMMAX =          18
 
 POTCAR:    PAW_PBE Ni 02Aug2007                  
  local pseudopotential read in
  partial core-charges read in
  partial kinetic energy density read in
  atomic valenz-charges read in
  non local Contribution for L=           2  read in
    real space projection operators read in
  non local Contribution for L=           2  read in
    real space projection operators read in
  non local Contribution for L=           0  read in
    real space projection operators read in
  non local Contribution for L=           0  read in
    real space projection operators read in
  non local Contribution for L=           1  read in
    real space projection operators read in
  non local Contribution for L=           1  read in
    real space projection operators read in
    PAW grid and wavefunctions read in
 
   number of l-projection  operators is LMAX  =           6
   number of lm-projection operators is LMMAX =          18
 
 POTCAR:    PAW_PBE Li_sv 10Sep2004               
  local pseudopotential read in
  atomic valenz-charges read in
  non local Contribution for L=           0  read in
    real space projection operators read in
  non local Contribution for L=           0  read in
    real space projection operators read in
  non local Contribution for L=           1  read in
    real space projection operators read in
    PAW grid and wavefunctions read in
 
   number of l-projection  operators is LMAX  =           3
   number of lm-projection operators is LMMAX =           5
 
 POTCAR:    PAW_PBE O 08Apr2002                   
  local pseudopotential read in
  partial core-charges read in
  partial kinetic energy density read in
  kinetic energy density of atom read in
  atomic valenz-charges read in
  non local Contribution for L=           0  read in
    real space projection operators read in
  non local Contribution for L=           0  read in
    real space projection operators read in
  non local Contribution for L=           1  read in
    real space projection operators read in
  non local Contribution for L=           1  read in
    real space projection operators read in
    PAW grid and wavefunctions read in
 
   number of l-projection  operators is LMAX  =           4
   number of lm-projection operators is LMMAX =           8
 
 Optimization of the real space projectors (new method)

 maximal supplied QI-value         = 15.12
 optimisation between [QCUT,QGAM] = [ 11.34, 22.83] = [ 36.00,145.93] Ry 
 Optimized for a Real-space Cutoff    1.61 Angstroem

   l    n(q)    QCUT    max X(q) W(low)/X(q) W(high)/X(q)  e(spline) 
   1     11    11.338     4.092    0.40E-05    0.64E-05    0.47E-07
   1     11    11.338     4.834    0.13E-04    0.44E-04    0.21E-06
   2     10    11.338    62.294    0.15E-03    0.31E-03    0.77E-06
   2     10    11.338    50.966    0.15E-03    0.31E-03    0.77E-06
   0     11    11.338   103.792    0.33E-04    0.19E-04    0.90E-07
   0     11    11.338    56.335    0.26E-04    0.17E-04    0.79E-07
 Optimization of the real space projectors (new method)

 maximal supplied QI-value         = 16.25
 optimisation between [QCUT,QGAM] = [ 11.38, 22.75] = [ 36.24,144.96] Ry 
 Optimized for a Real-space Cutoff    1.47 Angstroem

   l    n(q)    QCUT    max X(q) W(low)/X(q) W(high)/X(q)  e(spline) 
   2      9    11.376    60.317    0.17E-03    0.16E-04    0.16E-06
   2      9    11.376    55.921    0.17E-03    0.16E-04    0.17E-06
   0     10    11.376    51.690    0.45E-04    0.60E-04    0.21E-06
   0     10    11.376    30.015    0.37E-04    0.55E-04    0.19E-06
   1     10    11.376    18.849    0.83E-04    0.11E-03    0.92E-07
   1     10    11.376    14.624    0.69E-04    0.92E-04    0.82E-07
 Optimization of the real space projectors (new method)

 maximal supplied QI-value         = 22.11
 optimisation between [QCUT,QGAM] = [ 11.28, 22.77] = [ 35.61,145.23] Ry 
 Optimized for a Real-space Cutoff    1.10 Angstroem

   l    n(q)    QCUT    max X(q) W(low)/X(q) W(high)/X(q)  e(spline) 
   0      7    11.276    10.506    0.54E-04    0.58E-04    0.16E-07
   0      7    11.276     8.367    0.11E-03    0.14E-03    0.35E-07
   1      7    11.276     8.983    0.23E-03    0.43E-03    0.86E-07
 Optimization of the real space projectors (new method)

 maximal supplied QI-value         = 24.76
 optimisation between [QCUT,QGAM] = [ 11.39, 22.77] = [ 36.31,145.25] Ry 
 Optimized for a Real-space Cutoff    1.10 Angstroem

   l    n(q)    QCUT    max X(q) W(low)/X(q) W(high)/X(q)  e(spline) 
   0      7    11.387    20.381    0.22E-03    0.48E-03    0.18E-06
   0      7    11.387    15.268    0.22E-03    0.52E-03    0.19E-06
   1      7    11.387     5.964    0.22E-03    0.73E-03    0.24E-06
   1      7    11.387     5.382    0.19E-03    0.60E-03    0.21E-06

 ----------------------------------------------------------------------------- 
|                                                                             |
|  ADVICE TO THIS USER RUNNING 'VASP/VAMP'   (HEAR YOUR MASTER'S VOICE ...):  |
|                                                                             |
|      You enforced a specific xc-type in the INCAR file,                     |
|      a different type was found on the POTCAR file                          |
|          I HOPE YOU KNOW, WHAT YOU ARE  DOING                               |
|                                                                             |
 ----------------------------------------------------------------------------- 

  PAW_PBE Ta_pv 07Sep2000               :
 energy of atom  1       EATOM=-1047.1984
 kinetic energy error for atom=    0.0019 (will be added to EATOM!!)
  PAW_PBE Ni 02Aug2007                  :
 energy of atom  2       EATOM=-1077.6739
 kinetic energy error for atom=    0.0030 (will be added to EATOM!!)
  PAW_PBE Li_sv 10Sep2004               :
 energy of atom  3       EATOM= -202.7858
 kinetic energy error for atom=    0.0143 (will be added to EATOM!!)
  PAW_PBE O 08Apr2002                   :
 energy of atom  4       EATOM= -432.3788
 kinetic energy error for atom=    0.0224 (will be added to EATOM!!)
 
 
 POSCAR: ce4_1                                   
  positions in direct lattice
  No initial velocities read in
 exchange correlation table for  LEXCH =       14
   RHO(1)=    0.500       N(1)  =     2000
   RHO(2)=  100.500       N(2)  =     4000
 


--------------------------------------------------------------------------------------------------------


 ion  position               nearest neighbor table
   1  0.000  0.000  0.995- 105 2.27 108 2.27  72 2.36  93 2.36  57 2.41  60 2.41  25 3.20  19 3.21
                             7 3.21  10 3.28   4 3.28  13 3.34
   2  0.889  0.333  0.218-  56 2.27  71 2.27  59 2.36  74 2.36  80 2.40  77 2.41  20 3.20  26 3.21
                             8 3.21   5 3.27  11 3.28  14 3.34
   3  0.111  0.667  0.107-  55 2.27  94 2.27  58 2.36  61 2.36  79 2.40  64 2.41   9 3.20  27 3.21
                            21 3.21  12 3.27   6 3.28  15 3.34
   4  0.333  1.000  1.000-  99 2.38  63 2.38  96 2.38  93 2.38  60 2.38  66 2.38  22 3.27   7 3.27
                            19 3.27  13 3.27   1 3.28  16 3.28
   5  0.222  0.333  0.222-  59 2.38  65 2.38  80 2.38  83 2.38  86 2.38  62 2.38   2 3.27  20 3.27
                            14 3.27   8 3.27  17 3.28  23 3.28
   6  0.444  0.667  0.111-  85 2.38  61 2.38  70 2.38  67 2.38 100 2.38  64 2.38  18 3.27  15 3.27
                             9 3.27  21 3.27  24 3.28   3 3.28
   7  0.671  0.000  0.995- 105 2.27 102 2.27  99 2.36  72 2.36  69 2.40  66 2.41  22 3.20  25 3.21
                             1 3.21   4 3.27  10 3.27  16 3.34
   8  0.560  0.333  0.218-  68 2.27  71 2.27  74 2.36  65 2.36  86 2.40  89 2.40  26 3.21   2 3.21
                            23 3.21  11 3.27   5 3.27  17 3.34
   9  0.782  0.666  0.106- 106 2.27  55 2.27  58 2.36  67 2.36  70 2.40  73 2.41   3 3.20  27 3.21
                            24 3.21  12 3.27   6 3.27  18 3.34
  10  0.667  0.000  0.333-  90 2.38  78 2.38  69 2.38  72 2.38  57 2.38  75 2.38  16 3.27  19 3.27
                             7 3.27  13 3.27   1 3.28  22 3.28
  11  0.556  0.333  0.556-  98 2.38  74 2.38  95 2.38  92 2.38  89 2.38  77 2.38  23 3.27  14 3.27
                            20 3.27   8 3.27  17 3.28   2 3.28
  12  0.778  0.667  0.444-  58 2.38  76 2.38  79 2.38  82 2.38  97 2.38  73 2.38   3 3.27   9 3.27
                            15 3.27  21 3.27  24 3.28  18 3.28
  13  0.000  0.000  0.338-  81 2.27  84 2.27  78 2.36  63 2.36  60 2.40  57 2.40  25 3.21  22 3.21
                            16 3.21   4 3.27  10 3.27   1 3.34
  14  0.889  0.333  0.560- 104 2.27 101 2.27  98 2.36  83 2.36  80 2.40  77 2.41  23 3.20  26 3.21
                            17 3.21  11 3.27   5 3.27   2 3.34
  15  0.111  0.667  0.449- 103 2.27  88 2.27  85 2.36  82 2.36  79 2.40  64 2.41  18 3.20  27 3.21
                            24 3.21   6 3.27  12 3.27   3 3.34
  16  0.329  0.000  0.338-  87 2.27  84 2.27  90 2.36  63 2.36  69 2.40  66 2.41  19 3.20  25 3.21
                            13 3.21  10 3.27   4 3.28   7 3.34
  17  0.217  0.333  0.560- 104 2.27 107 2.27  92 2.36  83 2.36  86 2.41  89 2.41  26 3.20  20 3.21
                            14 3.21  11 3.28   5 3.28   8 3.34
  18  0.440  0.667  0.449-  88 2.27  91 2.27  85 2.36  76 2.36  70 2.40  73 2.41  15 3.20  27 3.21
                            21 3.21   6 3.27  12 3.28   9 3.34
  19  0.329  1.000  0.667- 108 2.27  87 2.27  90 2.36  93 2.36  96 2.40  75 2.41  16 3.20  25 3.21
                             1 3.21  10 3.27   4 3.27  22 3.34
  20  0.218  0.334  0.889- 107 2.27  56 2.27  59 2.36  92 2.36  95 2.40  62 2.41   2 3.20  26 3.21
                            17 3.21   5 3.27  11 3.27  23 3.34
  21  0.440  0.667  0.778-  91 2.27  94 2.27  61 2.36  76 2.36  97 2.40 100 2.40  27 3.21   3 3.21
                            18 3.21   6 3.27  12 3.27  24 3.34
  22  0.671  1.000  0.667- 102 2.27  81 2.27  99 2.36  78 2.36  96 2.40  75 2.41   7 3.20  25 3.21
                            13 3.21   4 3.27  10 3.28  19 3.34
  23  0.560  0.333  0.889- 101 2.27  68 2.27  98 2.36  65 2.36  95 2.40  62 2.41  14 3.20  26 3.21
                             8 3.21  11 3.27   5 3.28  20 3.34
  24  0.783  0.667  0.778- 103 2.27 106 2.27  67 2.36  82 2.36  97 2.41 100 2.41  27 3.20   9 3.21
                            15 3.21   6 3.28  12 3.28  21 3.34
  25  0.000  0.000  0.667- 108 2.28 105 2.28  87 2.28 102 2.28  84 2.28  81 2.28   1 3.20   7 3.21
                            19 3.21  16 3.21  22 3.21  13 3.21
  26  0.889  0.333  0.889- 104 2.28 107 2.28  56 2.28 101 2.28  68 2.28  71 2.28  17 3.20  20 3.21
                            14 3.21   2 3.21  23 3.21   8 3.21
  27  0.111  0.667  0.778- 103 2.28 106 2.28  55 2.28  88 2.28  91 2.28  94 2.28  24 3.20   9 3.21
                            15 3.21   3 3.21  18 3.21  21 3.21
  28  0.000  0.500  0.997-  59 2.28  58 2.28
  29  0.889  0.833  0.222-  60 2.27  73 2.27  79 2.27  72 2.28  78 2.29
  30  0.111  0.167  0.111-  57 2.27  62 2.27  80 2.27  93 2.28  63 2.29
  31  0.333  0.500  1.000-  95 2.26  64 2.27 100 2.27  59 2.28  65 2.29
  32  0.222  0.833  0.222-  79 2.26  66 2.27  60 2.27  85 2.28  61 2.29
  33  0.445  0.167  0.111-  69 2.26  62 2.27  86 2.27  99 2.28  63 2.29
  34  0.669  0.499  0.999-  65 2.27
  35  0.556  0.833  0.222-  73 2.26  66 2.26  85 2.28  90 2.28  67 2.28  72 2.28
  36  0.779  0.168  0.109-  74 2.27
  37  0.667  0.500  0.333-  70 2.26  77 2.27  89 2.27  58 2.28  76 2.29
  38  0.555  0.833  0.556-  96 2.26  73 2.27  97 2.27  90 2.28  78 2.29
  39  0.778  0.167  0.444-  80 2.26  75 2.27  57 2.27  98 2.28  74 2.29
  40  0.000  0.500  0.333-  77 2.26  64 2.26  58 2.28  59 2.28  82 2.28  83 2.28
  41  0.890  0.834  0.557-  78 2.27
  42  0.110  0.166  0.446-  63 2.27
  43  0.333  0.500  0.334-  89 2.27  64 2.27  70 2.27  83 2.28  65 2.29
  44  0.219  0.833  0.558-  85 2.28  90 2.28
  45  0.444  0.166  0.444-  86 2.27  75 2.27  69 2.27  92 2.28  74 2.29
  46  0.331  0.501  0.668-  76 2.27
  47  0.221  0.832  0.888-  61 2.27
  48  0.444  0.167  0.778-  62 2.26  75 2.26  98 2.28  99 2.28  92 2.28  93 2.28
  49  0.667  0.500  0.667- 100 2.27  77 2.27  95 2.27  82 2.28  76 2.29
  50  0.556  0.834  0.889-  97 2.27  66 2.27  96 2.27  67 2.28  61 2.29
  51  0.781  0.167  0.778-  98 2.28  99 2.28
  52  0.000  0.500  0.669-  83 2.29  82 2.29
  53  0.892  0.833  0.886-  67 2.29  72 2.29
  54  0.108  0.167  0.778-  92 2.29  93 2.29
  55  0.001  0.748  0.998-   3 2.27   9 2.27  27 2.28
  56  0.999  0.252  0.999-   2 2.27  20 2.27  26 2.28
  57  0.889  0.089  0.222-  30 2.27  39 2.27  10 2.38  13 2.40   1 2.41
  58  0.890  0.579  0.221-  40 2.28  37 2.28  28 2.28   9 2.36   3 2.36  12 2.38
  59  0.110  0.421  0.110-  40 2.28  31 2.28  28 2.28  20 2.36   2 2.36   5 2.38
  60  0.111  0.911  0.111-  29 2.27  32 2.27   4 2.38  13 2.40   1 2.41
  61  0.333  0.755  0.999-  47 2.27  50 2.29  32 2.29  21 2.36   3 2.36   6 2.38
  62  0.334  0.244  0.999-  48 2.26  30 2.27  33 2.27   5 2.38  23 2.41  20 2.41
  63  0.221  0.088  0.224-  42 2.27  30 2.29  33 2.29  13 2.36  16 2.36   4 2.38
  64  0.222  0.577  0.222-  40 2.26  43 2.27  31 2.27   6 2.38   3 2.41  15 2.41
  65  0.446  0.421  0.110-  34 2.27  43 2.29  31 2.29   8 2.36  23 2.36   5 2.38
  66  0.445  0.911  0.111-  35 2.26  50 2.27  32 2.27   4 2.38  16 2.41   7 2.41
  67  0.668  0.755  0.999-  35 2.28  50 2.28  53 2.29  24 2.36   9 2.36   6 2.38
  68  0.669  0.252  0.999-  23 2.27   8 2.27  26 2.28
  69  0.555  0.089  0.222-  33 2.26  45 2.27  10 2.38  16 2.40   7 2.40
  70  0.556  0.578  0.223-  37 2.26  43 2.27   6 2.38  18 2.40   9 2.40
  71  0.779  0.414  0.109-   2 2.27   8 2.27  26 2.28
  72  0.779  0.912  0.110-  35 2.28  29 2.28  53 2.29   1 2.36   7 2.36  10 2.38
  73  0.666  0.756  0.333-  35 2.26  29 2.27  38 2.27  12 2.38  18 2.41   9 2.41
  74  0.667  0.245  0.332-  36 2.27  45 2.29  39 2.29   8 2.36   2 2.36  11 2.38
  75  0.555  0.089  0.556-  48 2.26  45 2.27  39 2.27  10 2.38  22 2.41  19 2.41
  76  0.554  0.579  0.556-  46 2.27  49 2.29  37 2.29  21 2.36  18 2.36  12 2.38
  77  0.778  0.423  0.444-  40 2.26  49 2.27  37 2.27  11 2.38   2 2.41  14 2.41
  78  0.779  0.912  0.445-  41 2.27  29 2.29  38 2.29  13 2.36  22 2.36  10 2.38
  79  0.000  0.756  0.333-  32 2.26  29 2.27  12 2.38   3 2.40  15 2.40
  80  1.000  0.244  0.334-  39 2.26  30 2.27   5 2.38   2 2.40  14 2.40
  81  0.890  0.081  0.557-  22 2.27  13 2.27  25 2.28
  82  0.890  0.579  0.556-  40 2.28  49 2.28  52 2.29  24 2.36  15 2.36  12 2.38
  83  0.110  0.421  0.446-  40 2.28  43 2.28  52 2.29  17 2.36  14 2.36   5 2.38
  84  0.110  0.919  0.447-  16 2.27  13 2.27  25 2.28
  85  0.333  0.755  0.335-  35 2.28  32 2.28  44 2.28  15 2.36  18 2.36   6 2.38
  86  0.334  0.244  0.333-  45 2.27  33 2.27   5 2.38   8 2.40  17 2.41
  87  0.220  0.081  0.557-  16 2.27  19 2.27  25 2.28
  88  0.221  0.586  0.558-  18 2.27  15 2.27  27 2.28
  89  0.444  0.422  0.444-  43 2.27  37 2.27  11 2.38   8 2.40  17 2.41
  90  0.443  0.912  0.445-  35 2.28  38 2.28  44 2.28  19 2.36  16 2.36  10 2.38
  91  0.331  0.748  0.668-  18 2.27  21 2.27  27 2.28
  92  0.332  0.245  0.667-  48 2.28  45 2.28  54 2.29  17 2.36  20 2.36  11 2.38
  93  0.221  0.088  0.888-  48 2.28  30 2.28  54 2.29   1 2.36  19 2.36   4 2.38
  94  0.221  0.586  0.888-   3 2.27  21 2.27  27 2.28
  95  0.444  0.422  0.778-  31 2.26  49 2.27  11 2.38  23 2.40  20 2.40
  96  0.445  0.911  0.777-  38 2.26  50 2.27   4 2.38  22 2.40  19 2.40
  97  0.666  0.756  0.667-  50 2.27  38 2.27  12 2.38  21 2.40  24 2.41
  98  0.667  0.245  0.667-  48 2.28  39 2.28  51 2.28  14 2.36  23 2.36  11 2.38
  99  0.557  0.088  0.888-  48 2.28  33 2.28  51 2.28   7 2.36  22 2.36   4 2.38
 100  0.556  0.578  0.888-  49 2.27  31 2.27   6 2.38  21 2.40  24 2.41
 101  0.779  0.414  0.779-  23 2.27  14 2.27  26 2.28
 102  0.780  0.919  0.777-  22 2.27   7 2.27  25 2.28
 103  0.001  0.747  0.668-  15 2.27  24 2.27  27 2.28
 104  0.999  0.253  0.669-  14 2.27  17 2.27  26 2.28
 105  0.890  0.081  0.887-   7 2.27   1 2.27  25 2.28
 106  0.891  0.586  0.888-   9 2.27  24 2.27  27 2.28
 107  0.109  0.414  0.779-  20 2.27  17 2.27  26 2.28
 108  0.110  0.919  0.777-  19 2.27   1 2.27  25 2.28
 
  LATTYP: Found a hexagonal cell.
 ALAT       =     9.7529139643
 C/A-ratio  =     1.6797954990
  
  Lattice vectors:
  
 A1 = (   4.8764570400,   0.0000000000,   8.4462712206)
 A2 = (  -9.7529139800,   0.0000000000,   0.0000000000)
 A3 = (   0.0000000000, -16.3829009791,   0.0000000000)


Analysis of symmetry for initial positions (statically):
=====================================================================
 Subroutine PRICEL returns:
 Original cell was already a primitive cell.
 

 Routine SETGRP: Setting up the symmetry group for a 
 hexagonal supercell.


 Subroutine GETGRP returns: Found  6 space group operations
 (whereof  2 operations were pure point group operations)
 out of a pool of 24 trial point group operations.


The static configuration has the point symmetry C_2 .
 The point group associated with its full space group is D_3 .


Analysis of symmetry for dynamics (positions and initial velocities):
=====================================================================
 Subroutine PRICEL returns:
 Original cell was already a primitive cell.
 

 Routine SETGRP: Setting up the symmetry group for a 
 hexagonal supercell.


 Subroutine GETGRP returns: Found  6 space group operations
 (whereof  2 operations were pure point group operations)
 out of a pool of 24 trial point group operations.


The dynamic configuration has the point symmetry C_2 .
 The point group associated with its full space group is D_3 .


Analysis of structural, dynamic, and magnetic symmetry:
=====================================================================
 Subroutine PRICEL returns:
 Original cell was already a primitive cell.
 

 Routine SETGRP: Setting up the symmetry group for a 
 hexagonal supercell.


 Subroutine GETGRP returns: Found  6 space group operations
 (whereof  2 operations were pure point group operations)
 out of a pool of 24 trial point group operations.


The magnetic configuration has the point symmetry C_2 .
 The point group associated with its full space group is D_3 .


 Subroutine INISYM returns: Found  6 space group operations
 (whereof  2 operations are pure point group operations),
 and found     1 'primitive' translations

 
 
 KPOINTS: Automatic mesh                          

Automatic generation of k-mesh.
Space group operators:
 irot       det(A)        alpha          n_x          n_y          n_z        tau_x        tau_y        tau_z
    1     1.000000     0.000001     1.000000     0.000000     0.000000     0.000000     0.000000     0.000000
    2     1.000000   179.999999    -0.500000     0.000000    -0.866025     0.000000     0.000000     0.000000
    3     1.000000   120.000000     0.000000     1.000000     0.000000    -0.222222    -0.333333     0.777778
    4     1.000000   120.000000     0.000000    -1.000000     0.000000    -0.777778    -0.666667     0.555556
    5     1.000000   180.000000     1.000000     0.000000    -0.000000    -0.777778    -0.666667     0.555556
    6     1.000000   179.999999     0.500000     0.000000    -0.866025    -0.222222    -0.333333     0.777778
 
 Subroutine IBZKPT returns following result:
 ===========================================
 
 Found      1 irreducible k-points:
 
 Following reciprocal coordinates:
            Coordinates               Weight
  0.000000  0.000000  0.000000      1.000000
 
 Following cartesian coordinates:
            Coordinates               Weight
  0.000000  0.000000  0.000000      1.000000
 


--------------------------------------------------------------------------------------------------------




 Dimension of arrays:
   k-points           NKPTS =      1   k-points in BZ     NKDIM =      1   number of bands    NBANDS=    432
   number of dos      NEDOS =    301   number of ions     NIONS =    108
   non local maximal  LDIM  =      6   non local SUM 2l+1 LMDIM =     18
   total plane-waves  NPLWV = 622080
   max r-space proj   IRMAX =   8124   max aug-charges    IRDMAX=  26093
   dimension x,y,z NGX =    72 NGY =  120 NGZ =   72
   dimension x,y,z NGXF=   144 NGYF=  240 NGZF=  144
   support grid    NGXF=   144 NGYF=  240 NGZF=  144
   ions per type =              24   3  27  54
   NGX,Y,Z   is equivalent  to a cutoff of  12.27, 12.18, 12.27 a.u.
   NGXF,Y,Z  is equivalent  to a cutoff of  24.55, 24.35, 24.55 a.u.

 SYSTEM =  unknown system                          
 POSCAR =  ce4_1                                   

 Startparameter for this run:
   NWRITE =      1    write-flag & timer
   PREC   = accura    normal or accurate (medium, high low for compatibility)
   ISTART =      0    job   : 0-new  1-cont  2-samecut
   ICHARG =      2    charge: 1-file 2-atom 10-const
   ISPIN  =      2    spin polarized calculation?
   LNONCOLLINEAR =      F non collinear calculations
   LSORBIT =      F    spin-orbit coupling
   INIWAV =      1    electr: 0-lowe 1-rand  2-diag
   LASPH  =      F    aspherical Exc in radial PAW
   METAGGA=      F    non-selfconsistent MetaGGA calc.

 Electronic Relaxation 1
   ENCUT  =  500.0 eV  36.75 Ry    6.06 a.u.  17.78 29.87 17.78*2*pi/ulx,y,z
   ENINI  =  500.0     initial cutoff
   ENAUG  =  628.9 eV  augmentation charge cutoff
   NELM   =     80;   NELMIN=  2; NELMDL= -5     # of ELM steps 
   EDIFF  = 0.1E-04   stopping-criterion for ELM
   LREAL  =      T    real-space projection
   NLSPLINE    = F    spline interpolate recip. space projectors
   LCOMPAT=      F    compatible to vasp.4.4
   GGA_COMPAT  = T    GGA compatible to vasp.4.4-vasp.4.6
   LMAXPAW     = -100 max onsite density
   LMAXMIX     =    2 max onsite mixed and CHGCAR
   VOSKOWN=      1    Vosko Wilk Nusair interpolation
   ROPT   =   -0.00025  -0.00025  -0.00025  -0.00025
 Ionic relaxation
   EDIFFG = -.2E-01   stopping-criterion for IOM
   NSW    =     20    number of steps for IOM
   NBLOCK =      1;   KBLOCK =     20    inner block; outer block 
   IBRION =      1    ionic relax: 0-MD 1-quasi-New 2-CG
   NFREE  =      0    steps in history (QN), initial steepest desc. (CG)
   ISIF   =      3    stress and relaxation
   IWAVPR =     11    prediction:  0-non 1-charg 2-wave 3-comb
   ISYM   =      2    0-nonsym 1-usesym 2-fastsym
   LCORR  =      T    Harris-Foulkes like correction to forces

   POTIM  = 0.5000    time-step for ionic-motion
   TEIN   =    0.0    initial temperature
   TEBEG  =    0.0;   TEEND  =   0.0 temperature during run
   SMASS  =  -3.00    Nose mass-parameter (am)
   estimated Nose-frequenzy (Omega)   =  0.10E-29 period in steps =****** mass=  -0.217E-26a.u.
   SCALEE = 1.0000    scale energy and forces
   NPACO  =    256;   APACO  = 16.0  distance and # of slots for P.C.
   PSTRESS=    0.0 pullay stress

  Mass of Ions in am
   POMASS = 180.95 58.69  7.01 16.00
  Ionic Valenz
   ZVAL   =  11.00 10.00  3.00  6.00
  Atomic Wigner-Seitz radii
   RWIGS  =   1.34  1.15  1.23  0.73
  virtual crystal weights 
   VCA    =   1.00  1.00  1.00  1.00
   NELECT =     699.0000    total number of electrons
   NUPDOWN=      -1.0000    fix difference up-down

 DOS related values:
   EMIN   =  10.00;   EMAX   =-10.00  energy-range for DOS
   EFERMI =   0.00
   ISMEAR =     0;   SIGMA  =   0.05  broadening in eV -4-tet -1-fermi 0-gaus

 Electronic relaxation 2 (details)
   IALGO  =     38    algorithm
   LDIAG  =      T    sub-space diagonalisation (order eigenvalues)
   LSUBROT=      F    optimize rotation matrix (better conditioning)
   TURBO    =      0    0=normal 1=particle mesh
   IRESTART =      0    0=no restart 2=restart with 2 vectors
   NREBOOT  =      0    no. of reboots
   NMIN     =      0    reboot dimension
   EREF     =   0.00    reference energy to select bands
   IMIX   =      4    mixing-type and parameters
     AMIX     =   0.40;   BMIX     =  1.00
     AMIX_MAG =   1.60;   BMIX_MAG =  1.00
     AMIN     =   0.10
     WC   =   100.;   INIMIX=   1;  MIXPRE=   1;  MAXMIX= -45

 Intra band minimization:
   WEIMIN = 0.0010     energy-eigenvalue tresh-hold
   EBREAK =  0.58E-08  absolut break condition
   DEPER  =   0.30     relativ break condition  

   TIME   =   0.40     timestep for ELM

  volume/ion in A,a.u.               =      12.50        84.33
  Fermi-wavevector in a.u.,A,eV,Ry     =   1.314732  2.484483 23.517936  1.728520
  Thomas-Fermi vector in A             =   2.444964
 
 Write flags
   LWAVE        =      F    write WAVECAR
   LDOWNSAMPLE  =      F    k-point downsampling of WAVECAR
   LCHARG       =      T    write CHGCAR
   LVTOT        =      F    write LOCPOT, total local potential
   LVHAR        =      F    write LOCPOT, Hartree potential only
   LELF         =      F    write electronic localiz. function (ELF)
   LORBIT       =      0    0 simple, 1 ext, 2 COOP (PROOUT), +10 PAW based schemes


 Dipole corrections
   LMONO  =      F    monopole corrections only (constant potential shift)
   LDIPOL =      F    correct potential (dipole corrections)
   IDIPOL =      0    1-x, 2-y, 3-z, 4-all directions 
   EPSILON=  1.0000000 bulk dielectric constant

 Exchange correlation treatment:
   GGA     =    PS    GGA type
   LEXCH   =    14    internal setting for exchange type
   VOSKOWN=      1    Vosko Wilk Nusair interpolation
   LHFCALC =     F    Hartree Fock is set to
   LHFONE  =     F    Hartree Fock one center treatment
   AEXX    =    0.0000 exact exchange contribution

 Linear response parameters
   LEPSILON=     F    determine dielectric tensor
   LRPA    =     F    only Hartree local field effects (RPA)
   LNABLA  =     F    use nabla operator in PAW spheres
   LVEL    =     F    velocity operator in full k-point grid
   LINTERFAST=   F  fast interpolation
   KINTER  =     0    interpolate to denser k-point grid
   CSHIFT  =0.1000    complex shift for real part using Kramers Kronig
   OMEGAMAX=  -1.0    maximum frequency
   DEG_THRESHOLD= 0.2000000E-02 threshold for treating states as degnerate
   RTIME   =   -0.100 relaxation time in fs
  (WPLASMAI=    0.000 imaginary part of plasma frequency in eV, 0.658/RTIME)
   DFIELD  = 0.0000000 0.0000000 0.0000000 field for delta impulse in time
 
 Orbital magnetization related:
   ORBITALMAG=     F  switch on orbital magnetization
   LCHIMAG   =     F  perturbation theory with respect to B field
   DQ        =  0.001000  dq finite difference perturbation B field
   LLRAUG    =     F  two centre corrections for induced B field



--------------------------------------------------------------------------------------------------------


 quasi-Newton-method for relaxation of ions
 charge density and potential will be updated during run
 spin polarized calculation
 Variant of blocked Davidson
 Davidson routine will perform the subspace rotation
 perform sub-space diagonalisation
    after iterative eigenvector-optimisation
 modified Broyden-mixing scheme, WC =      100.0
 initial mixing is a Kerker type mixing with AMIX =  0.4000 and BMIX =      1.0000
 Hartree-type preconditioning will be used
 using additional bands           82
 real space projection scheme for non local part
 use partial core corrections
 calculate Harris-corrections to forces 
   (improved forces if not selfconsistent)
 use gradient corrections 
 use of overlap-Matrix (Vanderbilt PP)
 Gauss-broadening in eV      SIGMA  =   0.05


--------------------------------------------------------------------------------------------------------


  energy-cutoff  :      500.00
  volume of cell :     1349.55
      direct lattice vectors                 reciprocal lattice vectors
     9.752913980  0.000000000  0.000000000     0.102533458  0.000000000 -0.059197721
     0.000000000 16.382900979  0.000000000     0.000000000  0.061039251  0.000000000
     4.876457040  0.000000000  8.446271221     0.000000000  0.000000000  0.118395440

  length of vectors
     9.752913980 16.382900979  9.752913964     0.118395440  0.061039251  0.118395440


 
 k-points in units of 2pi/SCALE and weight: Automatic mesh                          
   0.00000000  0.00000000  0.00000000       1.000
 
 k-points in reciprocal lattice and weights: Automatic mesh                          
   0.00000000  0.00000000  0.00000000       1.000
 
 position of ions in fractional coordinates (direct lattice) 
   0.00000000  0.00000000  0.99524319
   0.88910176  0.33328315  0.21757431
   0.11089824  0.66671685  0.10667607
   0.33345435  0.99996066  0.99989682
   0.22211904  0.33329399  0.22220438
   0.44442661  0.66662733  0.11123213
   0.67132179  0.00017835  0.99530279
   0.56009735  0.33333333  0.21768043
   0.78247499  0.66648832  0.10645599
   0.66654565  0.00003934  0.33335117
   0.55557339  0.33337267  0.55565874
   0.77788096  0.66670601  0.44432342
   0.00000000  0.00000000  0.33787512
   0.88884679  0.33315498  0.56025277
   0.11115321  0.66684502  0.44909956
   0.32889830  0.00005018  0.33798124
   0.21746541  0.33333333  0.56031237
   0.43979654  0.66661649  0.44887948
   0.32867821  0.99982165  0.66662458
   0.21752501  0.33351168  0.88893098
   0.43990265  0.66666667  0.77777778
   0.67110170  0.99994982  0.66687954
   0.56020346  0.33338351  0.88867602
   0.78253459  0.66666667  0.77777778
   0.00000000  0.00000000  0.66670423
   0.88892645  0.33333333  0.88885133
   0.11107355  0.66666667  0.77777778
   0.00000000  0.50000000  0.99720163
   0.88919271  0.83311715  0.22197131
   0.11080729  0.16688285  0.11116402
   0.33336275  0.50015125  0.99969728
   0.22191950  0.83348458  0.22249553
   0.44471776  0.16681792  0.11114053
   0.66869960  0.49894798  0.99900179
   0.55553859  0.83333333  0.22223919
   0.77877599  0.16771869  0.10907818
   0.66663725  0.49984875  0.33306002
   0.55528224  0.83318208  0.55585828
   0.77808050  0.16651542  0.44441502
   0.00000000  0.50000000  0.33331636
   0.88992360  0.83438535  0.55655377
   0.11007640  0.16561465  0.44647737
   0.33338625  0.50021618  0.33358424
   0.21942385  0.83333333  0.55835393
   0.44419354  0.16645049  0.44439153
   0.33130040  0.50105202  0.66770139
   0.22122401  0.83228131  0.88785417
   0.44446141  0.16666667  0.77777778
   0.66661375  0.49978382  0.66697049
   0.55580646  0.83354951  0.88858507
   0.78057615  0.16666667  0.77777778
   0.00000000  0.50000000  0.66946675
   0.89168897  0.83333333  0.88608881
   0.10831103  0.16666667  0.77777778
   0.00113786  0.74755729  0.99770468
   0.99886214  0.25244271  0.99884254
   0.88932088  0.08890201  0.22210555
   0.88971281  0.57855640  0.22072028
   0.11028719  0.42144360  0.11043308
   0.11067912  0.91109799  0.11142644
   0.33265825  0.75469548  0.99922457
   0.33363086  0.24406067  0.99947246
   0.22144679  0.08802881  0.22367272
   0.22169468  0.57739400  0.22245222
   0.44589495  0.42136215  0.11043603
   0.44467445  0.91072734  0.11140864
   0.66822814  0.75470855  0.99923470
   0.66878425  0.25239967  0.99884914
   0.55524726  0.08889239  0.22204274
   0.55573504  0.57777427  0.22253052
   0.77892864  0.41426700  0.10899353
   0.77854308  0.91195812  0.10954964
   0.66636914  0.75593933  0.33310333
   0.66734175  0.24530452  0.33188283
   0.55532555  0.08927266  0.55608310
   0.55410505  0.57863785  0.55633099
   0.77830532  0.42260600  0.44414691
   0.77855321  0.91197119  0.44511952
   0.00048778  0.75555906  0.33302503
   0.99951222  0.24444094  0.33351281
   0.88985560  0.08093366  0.55670642
   0.88968505  0.57862478  0.55632086
   0.11031495  0.42137522  0.44600591
   0.11014440  0.91906634  0.44656202
   0.33265531  0.75477693  0.33483527
   0.33364867  0.24443132  0.33345000
   0.21992690  0.08089062  0.55671302
   0.22106476  0.58577604  0.55785088
   0.44432778  0.42223535  0.44412911
   0.44294251  0.91188974  0.44512247
   0.33121575  0.74760033  0.66763339
   0.33177186  0.24529145  0.66746284
   0.22145692  0.08804188  0.88809272
   0.22107136  0.58573300  0.88792217
   0.44426496  0.42222573  0.77826556
   0.44475274  0.91110761  0.77729000
   0.66635133  0.75556868  0.66709866
   0.66734469  0.24522307  0.66749059
   0.55705749  0.08811026  0.88806497
   0.55567222  0.57776465  0.88845690
   0.77893524  0.41422396  0.77891564
   0.78007310  0.91910938  0.77663992
   0.00104395  0.74718229  0.66763243
   0.99895605  0.25281771  0.66867637
   0.88985465  0.08051562  0.88687919
   0.89089859  0.58615104  0.88792313
   0.10910141  0.41384896  0.77882173
   0.11014535  0.91948438  0.77673383
 
 position of ions in cartesian coordinates  (Angst):
   4.85326066  0.00000000  8.40609391
   9.73232476  5.46014484  1.83769163
   1.60178227 10.92275613  0.90101502
   8.12810548 16.38225648  8.44539973
   3.24987800  5.46032244  1.87679846
   4.87687320 10.92128954  0.93949674
  11.40089497  0.00292189  8.40659731
   6.52409054  5.46096694  1.83858795
   8.15053933 10.91901215  0.89915616
   8.12633505  0.00064450  2.81557439
   8.12810546  5.46161144  4.69324442
   9.75333016 10.92257854  3.75287611
   1.64763351  0.00000000  2.85378490
  11.40089485  5.45804505  4.73204685
   3.27408241 10.92485593  3.79321669
   4.85586783  0.00082209  2.85468122
   4.85326064  5.46096694  4.73255025
   6.47823932 10.92111195  3.79135783
   6.45633644 16.37997909  5.63049200
   6.45633645  5.46388883  7.50815215
   8.08313264 10.92193404  6.56932208
   9.79720658 16.38207889  5.63264547
   9.79720659  5.46178903  7.50599869
  11.42479247 10.92193404  6.56932208
   3.25115454  0.00000000  5.63116475
  13.00406853  5.46096694  7.50747941
   4.87609071 10.92193404  6.56932208
   4.86281091  8.19145049  8.42263543
   9.75465357 13.64887577  1.87482989
   1.62278054  2.73402521  0.93892146
   8.12623906  8.19392840  8.44371437
   3.24935169 13.65489534  1.87925759
   4.87926608  2.73296146  0.93872306
  11.39335899  8.17421535  8.43784007
   6.50185994 13.65241743  1.87709247
   8.12725030  2.74771869  0.92130389
   8.12580863  8.18897258  2.81311526
   8.12623894 13.64993951  4.69492979
   9.75572294  2.72800564  3.75364979
   1.62540291  8.19145049  2.81528038
  11.39335887 13.66965257  4.70080409
   3.25079337  2.71324841  3.77106896
   4.87819663  8.19499215  2.81754297
   4.86281089 13.65241743  4.71600873
   6.49923759  2.72694190  3.75345139
   6.48716145  8.20868563  5.63958703
   6.48716146 13.63518229  7.49905712
   8.12759383  2.73048355  6.56932208
   9.75387950  8.18790883  5.63341365
   9.75387951 13.65595908  7.50523050
  11.40569198  2.73048355  6.56932208
   3.26462585  8.19145049  5.65449774
  13.01753984 13.65241743  7.48414641
   4.84914809  2.73048355  6.56932208
   4.87636146 12.24715706  8.42688433
  14.61262927  4.13574392  8.43649500
   9.75655822  1.45647283  1.87596371
   9.75362547  9.47843221  1.86426335
   1.61414365  6.90446877  0.93274775
   1.62281018 14.92642815  0.94113793
   8.11706299 12.36410132  8.43972173
   8.12775759  3.99842179  8.44181547
   3.25048190  1.44216728  1.88920046
   3.24694784  9.45938873  1.87889178
   4.88731165  6.90313438  0.93277266
   4.88015111 14.92035583  0.94098759
  11.38989666 12.36431544  8.43980729
  11.39344018  4.13503880  8.43655074
   6.49806065  1.45631522  1.87543320
   6.50519656  9.46561865  1.87955313
   8.12832629  6.78689524  0.92058892
   8.12727780 14.94051958  0.92528597
   8.12340498 12.38447919  2.81348107
   8.12693905  4.01879966  2.80317240
   8.12775767  1.46254515  4.69682868
   8.11706306  9.47976660  4.69892243
   9.75660816  6.92351225  3.75138526
   9.76376870 14.94073370  3.75960019
   1.62873953 12.37824926  2.81281973
  11.37451759  4.00465172  2.81693965
  11.39344006  1.32592814  4.70209341
  11.38989654  9.47955247  4.69883687
   3.25082088  6.90334850  3.76708688
   3.25186936 15.05697284  3.77178394
   4.87716843 12.36543571  2.82810950
   4.88010138  4.00449411  2.81640914
   4.85971526  1.32522302  4.70214916
   4.87636144  9.59671086  4.71175983
   6.49926714  6.91743993  3.75123492
   6.49060080 14.93939931  3.75962511
   6.48600426 12.24786218  5.63901269
   6.49059628  4.01858554  5.63757218
   6.49059629  1.44238140  7.50107198
   6.48600427  9.59600574  7.49963147
   8.12805651  6.91728233  6.57344200
   8.12805651 14.92658576  6.56520216
   9.75194516 12.37840687  5.63449621
   9.76354454  4.01746527  5.63780656
   9.76354446  1.44350166  7.50083760
   9.75194527  9.46546105  7.50414795
  11.39523705  6.78619012  6.57893275
  11.39523705 15.05767796  6.55971141
   3.26586242 12.24101347  5.63900458
  13.00350402  4.14188751  5.64782198
  13.00350413  1.31907943  7.49082218
  13.01877631  9.60285445  7.49963958
   4.86194738  6.78004653  6.57813956
   4.86194728 15.06382155  6.56050459
 


--------------------------------------------------------------------------------------------------------


 use serial FFT for orbitals x direction half grid
 k-point  1 :   0.0000 0.0000 0.0000  plane waves:   17127

 maximum and minimum number of plane-waves per node :     17127    17127

 maximum number of plane-waves:     17127
 maximum index in each direction: 
   IXMAX=   17   IYMAX=   29   IZMAX=   17
   IXMIN=    0   IYMIN=  -29   IZMIN=  -15

 The following grids will avoid any aliasing or wrap around errors in the Hartre
 e energy
  - symmetry arguments have not been applied
  - exchange correlation energies might require even more grid points
  - we recommend to set PREC=Normal or Accurate and rely on VASP defaults
 NGX is ok and might be reduce to    70
 NGY is ok and might be reduce to   120
 NGZ is ok and might be reduce to    70

 serial   3D FFT for wavefunctions
 parallel 3D FFT for charge:
    minimum data exchange during FFTs selected (reduces bandwidth)


 total amount of memory used by VASP MPI-rank0   185343. kBytes
=======================================================================

   base      :      30000. kBytes
   nonlr-proj:      45005. kBytes
   fftplans  :      13150. kBytes
   grid      :      80248. kBytes
   one-center:       1679. kBytes
   wavefun   :      15261. kBytes
 
     INWAV:  cpu time    0.0000: real time    0.0000
 Broyden mixing: mesh for mixing (old mesh)
   NGX = 35   NGY = 59   NGZ = 35
  (NGX  =144   NGY  =240   NGZ  =144)
  gives a total of  72275 points

 initial charge density was supplied:
 charge density of overlapping atoms calculated
 number of electron     699.0000000 magnetization       7.5000000
 keeping initial charge density in first step


--------------------------------------------------------------------------------------------------------


 Maximum index for non-local projection operator         7840
 Maximum index for augmentation-charges         1634 (set IRDMAX)


--------------------------------------------------------------------------------------------------------


 First call to EWALD:  gamma=   0.160
 Maximum number of real-space cells 3x 2x 3
 Maximum number of reciprocal cells 2x 4x 2

    FEWALD:  cpu time    0.0052: real time    0.0052


--------------------------------------- Iteration      1(   1)  ---------------------------------------


    POTLOK:  cpu time    0.3968: real time    0.4002
    SETDIJ:  cpu time    0.0410: real time    0.0411
     EDDAV:  cpu time    7.2932: real time    7.5919
    --------------------------------------------
      LOOP:  cpu time    7.7317: real time    8.0339

 eigenvalue-minimisations  :  1744
 total energy-change (2. order) : 0.9637120E+04  (-0.3855293E+05)
 number of electron     699.0000000 magnetization       7.5000000
 augmentation part      699.0000000 magnetization       7.5000000

 Free energy of the ion-electron system (eV)
  ---------------------------------------------------
  alpha Z        PSCENC =      3425.01366473
  Ewald energy   TEWEN  =    -42471.26453086
  -Hartree energ DENC   =    -12580.12110280
  -exchange      EXHF   =         0.00000000
  -V(xc)+E(xc)   XCENC  =      2491.26909204
  PAW double counting   =     43422.99793387   -43723.21104794
  entropy T*S    EENTRO =        -0.01256420
  eigenvalues    EBANDS =      2009.69763825
  atomic energy  EATOM  =     57062.75055671
  Solvation  Ediel_sol  =         0.00000000
  ---------------------------------------------------
  free energy    TOTEN  =      9637.11963982 eV

  energy without entropy =     9637.13220402  energy(sigma->0) =     9637.12592192


--------------------------------------------------------------------------------------------------------




--------------------------------------- Iteration      1(   2)  ---------------------------------------


     EDDAV:  cpu time    7.5164: real time    7.5343
    --------------------------------------------
      LOOP:  cpu time    7.5162: real time    7.5341

 eigenvalue-minimisations  :  1968
 total energy-change (2. order) :-0.9048470E+04  (-0.8508645E+04)
 number of electron     699.0000000 magnetization       7.5000000
 augmentation part      699.0000000 magnetization       7.5000000

 Free energy of the ion-electron system (eV)
  ---------------------------------------------------
  alpha Z        PSCENC =      3425.01366473
  Ewald energy   TEWEN  =    -42471.26453086
  -Hartree energ DENC   =    -12580.12110280
  -exchange      EXHF   =         0.00000000
  -V(xc)+E(xc)   XCENC  =      2491.26909204
  PAW double counting   =     43422.99793387   -43723.21104794
  entropy T*S    EENTRO =        -0.05070449
  eigenvalues    EBANDS =     -7038.73381727
  atomic energy  EATOM  =     57062.75055671
  Solvation  Ediel_sol  =         0.00000000
  ---------------------------------------------------
  free energy    TOTEN  =       588.65004401 eV

  energy without entropy =      588.70074850  energy(sigma->0) =      588.67539626


--------------------------------------------------------------------------------------------------------




--------------------------------------- Iteration      1(   3)  ---------------------------------------


     EDDAV:  cpu time    7.7719: real time    7.7903
    --------------------------------------------
      LOOP:  cpu time    7.7719: real time    7.7903

 eigenvalue-minimisations  :  2096
 total energy-change (2. order) :-0.1422415E+04  (-0.1353310E+04)
 number of electron     699.0000000 magnetization       7.5000000
 augmentation part      699.0000000 magnetization       7.5000000

 Free energy of the ion-electron system (eV)
  ---------------------------------------------------
  alpha Z        PSCENC =      3425.01366473
  Ewald energy   TEWEN  =    -42471.26453086
  -Hartree energ DENC   =    -12580.12110280
  -exchange      EXHF   =         0.00000000
  -V(xc)+E(xc)   XCENC  =      2491.26909204
  PAW double counting   =     43422.99793387   -43723.21104794
  entropy T*S    EENTRO =        -0.03689792
  eigenvalues    EBANDS =     -8461.16290563
  atomic energy  EATOM  =     57062.75055671
  Solvation  Ediel_sol  =         0.00000000
  ---------------------------------------------------
  free energy    TOTEN  =      -833.76523777 eV

  energy without entropy =     -833.72833986  energy(sigma->0) =     -833.74678882


--------------------------------------------------------------------------------------------------------




--------------------------------------- Iteration      1(   4)  ---------------------------------------


     EDDAV:  cpu time    8.5713: real time    8.5916
    --------------------------------------------
      LOOP:  cpu time    8.5712: real time    8.5916

 eigenvalue-minimisations  :  2256
 total energy-change (2. order) :-0.1288855E+03  (-0.1240694E+03)
 number of electron     699.0000000 magnetization       7.5000000
 augmentation part      699.0000000 magnetization       7.5000000

 Free energy of the ion-electron system (eV)
  ---------------------------------------------------
  alpha Z        PSCENC =      3425.01366473
  Ewald energy   TEWEN  =    -42471.26453086
  -Hartree energ DENC   =    -12580.12110280
  -exchange      EXHF   =         0.00000000
  -V(xc)+E(xc)   XCENC  =      2491.26909204
  PAW double counting   =     43422.99793387   -43723.21104794
  entropy T*S    EENTRO =        -0.00281812
  eigenvalues    EBANDS =     -8590.08253351
  atomic energy  EATOM  =     57062.75055671
  Solvation  Ediel_sol  =         0.00000000
  ---------------------------------------------------
  free energy    TOTEN  =      -962.65078586 eV

  energy without entropy =     -962.64796774  energy(sigma->0) =     -962.64937680


--------------------------------------------------------------------------------------------------------




--------------------------------------- Iteration      1(   5)  ---------------------------------------


     EDDAV:  cpu time   11.9096: real time   11.9379
    CHARGE:  cpu time    0.6467: real time    0.6483
    MIXING:  cpu time    0.0081: real time    0.0081
    --------------------------------------------
      LOOP:  cpu time   12.5641: real time   12.5940

 eigenvalue-minimisations  :  3296
 total energy-change (2. order) :-0.1597716E+02  (-0.1579897E+02)
 number of electron     699.0000400 magnetization       7.8107540
 augmentation part      159.6706977 magnetization       5.5497910

 Broyden mixing:
  rms(total) = 0.85698E+01    rms(broyden)= 0.85674E+01
  rms(prec ) = 0.96713E+01
  weight for this iteration     100.00

 Free energy of the ion-electron system (eV)
  ---------------------------------------------------
  alpha Z        PSCENC =      3425.01366473
  Ewald energy   TEWEN  =    -42471.26453086
  -Hartree energ DENC   =    -12580.12110280
  -exchange      EXHF   =         0.00000000
  -V(xc)+E(xc)   XCENC  =      2491.26909204
  PAW double counting   =     43422.99793387   -43723.21104794
  entropy T*S    EENTRO =        -0.00282979
  eigenvalues    EBANDS =     -8606.05968092
  atomic energy  EATOM  =     57062.75055671
  Solvation  Ediel_sol  =         0.00000000
  ---------------------------------------------------
  free energy    TOTEN  =      -978.62794494 eV

  energy without entropy =     -978.62511515  energy(sigma->0) =     -978.62653005


--------------------------------------------------------------------------------------------------------




--------------------------------------- Iteration      1(   6)  ---------------------------------------


    POTLOK:  cpu time    0.3813: real time    0.3822
    SETDIJ:  cpu time    0.0426: real time    0.0427
     EDDAV:  cpu time    9.0905: real time    9.1121
    CHARGE:  cpu time    0.6495: real time    0.6510
    MIXING:  cpu time    0.0075: real time    0.0075
    --------------------------------------------
      LOOP:  cpu time   10.1715: real time   10.1955

 eigenvalue-minimisations  :  2432
 total energy-change (2. order) : 0.6877384E+02  (-0.1146313E+03)
 number of electron     699.0000326 magnetization       7.2359231
 augmentation part      161.4764850 magnetization       6.1598555

 Broyden mixing:
  rms(total) = 0.10563E+02    rms(broyden)= 0.10562E+02
  rms(prec ) = 0.11000E+02
  weight for this iteration     100.00

 eigenvalues of (default mixing * dielectric matrix)
  average eigenvalue GAMMA=   0.3452
  0.3452

 Free energy of the ion-electron system (eV)
  ---------------------------------------------------
  alpha Z        PSCENC =      3425.01366473
  Ewald energy   TEWEN  =    -42471.26453086
  -Hartree energ DENC   =    -12789.09502951
  -exchange      EXHF   =         0.00000000
  -V(xc)+E(xc)   XCENC  =      2532.32725955
  PAW double counting   =     49588.07729430   -49888.67811407
  entropy T*S    EENTRO =        -0.03466039
  eigenvalues    EBANDS =     -8368.95054403
  atomic energy  EATOM  =     57062.75055671
  Solvation  Ediel_sol  =         0.00000000
  ---------------------------------------------------
  free energy    TOTEN  =      -909.85410357 eV

  energy without entropy =     -909.81944318  energy(sigma->0) =     -909.83677338


--------------------------------------------------------------------------------------------------------




--------------------------------------- Iteration      1(   7)  ---------------------------------------


    POTLOK:  cpu time    0.3799: real time    0.3808
    SETDIJ:  cpu time    0.0420: real time    0.0421
     EDDAV:  cpu time    9.2742: real time    9.2963
    CHARGE:  cpu time    0.6641: real time    0.6657
    MIXING:  cpu time    0.0082: real time    0.0082
    --------------------------------------------
      LOOP:  cpu time   10.3685: real time   10.3932

 eigenvalue-minimisations  :  2480
 total energy-change (2. order) : 0.5840647E+02  (-0.2201751E+02)
 number of electron     699.0000336 magnetization       6.1854672
 augmentation part      160.7462622 magnetization       5.3585650

 Broyden mixing:
  rms(total) = 0.41631E+01    rms(broyden)= 0.41631E+01
  rms(prec ) = 0.45350E+01
  weight for this iteration     100.00

 eigenvalues of (default mixing * dielectric matrix)
  average eigenvalue GAMMA=   0.6603
  0.6603  0.6603

 Free energy of the ion-electron system (eV)
  ---------------------------------------------------
  alpha Z        PSCENC =      3425.01366473
  Ewald energy   TEWEN  =    -42471.26453086
  -Hartree energ DENC   =    -12705.48938203
  -exchange      EXHF   =         0.00000000
  -V(xc)+E(xc)   XCENC  =      2517.81663145
  PAW double counting   =     51812.15885525   -52155.73429605
  entropy T*S    EENTRO =        -0.02824272
  eigenvalues    EBANDS =     -8336.67089148
  atomic energy  EATOM  =     57062.75055671
  Solvation  Ediel_sol  =         0.00000000
  ---------------------------------------------------
  free energy    TOTEN  =      -851.44763501 eV

  energy without entropy =     -851.41939229  energy(sigma->0) =     -851.43351365


--------------------------------------------------------------------------------------------------------




--------------------------------------- Iteration      1(   8)  ---------------------------------------


    POTLOK:  cpu time    0.3787: real time    0.3796
    SETDIJ:  cpu time    0.0443: real time    0.0444
     EDDAV:  cpu time    9.0541: real time    9.0756
    CHARGE:  cpu time    0.6609: real time    0.6625
    MIXING:  cpu time    0.0087: real time    0.0087
    --------------------------------------------
      LOOP:  cpu time   10.1468: real time   10.1708

 eigenvalue-minimisations  :  2384
 total energy-change (2. order) :-0.5850362E+02  (-0.1070175E+02)
 number of electron     699.0000352 magnetization       5.8983821
 augmentation part      144.2820979 magnetization       4.9445669

 Broyden mixing:
  rms(total) = 0.11447E+02    rms(broyden)= 0.11446E+02
  rms(prec ) = 0.13969E+02
  weight for this iteration     100.00

 eigenvalues of (default mixing * dielectric matrix)
  average eigenvalue GAMMA=   0.4973
  0.6807  0.6807  0.1304

 Free energy of the ion-electron system (eV)
  ---------------------------------------------------
  alpha Z        PSCENC =      3425.01366473
  Ewald energy   TEWEN  =    -42471.26453086
  -Hartree energ DENC   =    -12641.62205115
  -exchange      EXHF   =         0.00000000
  -V(xc)+E(xc)   XCENC  =      2509.11156602
  PAW double counting   =     53857.93960959   -54229.64517639
  entropy T*S    EENTRO =        -0.04452983
  eigenvalues    EBANDS =     -8422.19036428
  atomic energy  EATOM  =     57062.75055671
  Solvation  Ediel_sol  =         0.00000000
  ---------------------------------------------------
  free energy    TOTEN  =      -909.95125545 eV

  energy without entropy =     -909.90672562  energy(sigma->0) =     -909.92899054


--------------------------------------------------------------------------------------------------------




--------------------------------------- Iteration      1(   9)  ---------------------------------------


    POTLOK:  cpu time    0.3728: real time    0.3736
    SETDIJ:  cpu time    0.0416: real time    0.0417
     EDDAV:  cpu time    9.6760: real time    9.6989
    CHARGE:  cpu time    0.6700: real time    0.6716
    MIXING:  cpu time    0.0088: real time    0.0088
    --------------------------------------------
      LOOP:  cpu time   10.7692: real time   10.7947

 eigenvalue-minimisations  :  2496
 total energy-change (2. order) : 0.6730255E+02  (-0.2102926E+01)
 number of electron     699.0000349 magnetization       4.2080558
 augmentation part      162.0788465 magnetization       3.2109803

 Broyden mixing:
  rms(total) = 0.23280E+01    rms(broyden)= 0.23275E+01
  rms(prec ) = 0.27109E+01
  weight for this iteration     100.00

 eigenvalues of (default mixing * dielectric matrix)
  average eigenvalue GAMMA=   0.7395
  1.6234  0.6095  0.6095  0.1155

 Free energy of the ion-electron system (eV)
  ---------------------------------------------------
  alpha Z        PSCENC =      3425.01366473
  Ewald energy   TEWEN  =    -42471.26453086
  -Hartree energ DENC   =    -12532.41036150
  -exchange      EXHF   =         0.00000000
  -V(xc)+E(xc)   XCENC  =      2503.42893898
  PAW double counting   =     54459.91235104   -54814.11271600
  entropy T*S    EENTRO =        -0.02933531
  eigenvalues    EBANDS =     -8475.93727101
  atomic energy  EATOM  =     57062.75055671
  Solvation  Ediel_sol  =         0.00000000
  ---------------------------------------------------
  free energy    TOTEN  =      -842.64870321 eV

  energy without entropy =     -842.61936791  energy(sigma->0) =     -842.63403556


--------------------------------------------------------------------------------------------------------




--------------------------------------- Iteration      1(  10)  ---------------------------------------


    POTLOK:  cpu time    0.3967: real time    0.3977
    SETDIJ:  cpu time    0.0453: real time    0.0454
     EDDAV:  cpu time    9.4524: real time    9.4748
    CHARGE:  cpu time    0.6890: real time    0.6907
    MIXING:  cpu time    0.0085: real time    0.0085
    --------------------------------------------
      LOOP:  cpu time   10.5920: real time   10.6171

 eigenvalue-minimisations  :  2416
 total energy-change (2. order) : 0.4080283E+01  (-0.1154480E+01)
 number of electron     699.0000346 magnetization       3.5642085
 augmentation part      161.1253525 magnetization       2.2940132

 Broyden mixing:
  rms(total) = 0.12887E+01    rms(broyden)= 0.12886E+01
  rms(prec ) = 0.15569E+01
  weight for this iteration     100.00

 eigenvalues of (default mixing * dielectric matrix)
  average eigenvalue GAMMA=   0.8116
  1.9024  0.7305  0.7305  0.5778  0.1168

 Free energy of the ion-electron system (eV)
  ---------------------------------------------------
  alpha Z        PSCENC =      3425.01366473
  Ewald energy   TEWEN  =    -42471.26453086
  -Hartree energ DENC   =    -12503.97019488
  -exchange      EXHF   =         0.00000000
  -V(xc)+E(xc)   XCENC  =      2502.16129874
  PAW double counting   =     57418.74889970   -57785.92994299
  entropy T*S    EENTRO =        -0.03002049
  eigenvalues    EBANDS =     -8486.04815108
  atomic energy  EATOM  =     57062.75055671
  Solvation  Ediel_sol  =         0.00000000
  ---------------------------------------------------
  free energy    TOTEN  =      -838.56842040 eV

  energy without entropy =     -838.53839992  energy(sigma->0) =     -838.55341016


--------------------------------------------------------------------------------------------------------




--------------------------------------- Iteration      1(  11)  ---------------------------------------


    POTLOK:  cpu time    0.3946: real time    0.3956
    SETDIJ:  cpu time    0.0440: real time    0.0441
     EDDAV:  cpu time    9.0023: real time    9.0236
    CHARGE:  cpu time    0.7025: real time    0.7042
    MIXING:  cpu time    0.0095: real time    0.0095
    --------------------------------------------
      LOOP:  cpu time   10.1529: real time   10.1770

 eigenvalue-minimisations  :  2288
 total energy-change (2. order) : 0.1941657E+00  (-0.1924102E+00)
 number of electron     699.0000346 magnetization       3.1445705
 augmentation part      161.2477102 magnetization       1.9636645

 Broyden mixing:
  rms(total) = 0.11486E+01    rms(broyden)= 0.11486E+01
  rms(prec ) = 0.14333E+01
  weight for this iteration     100.00

 eigenvalues of (default mixing * dielectric matrix)
  average eigenvalue GAMMA=   0.8335
  2.0028  0.1165  1.0726  0.5681  0.5681  0.6727

 Free energy of the ion-electron system (eV)
  ---------------------------------------------------
  alpha Z        PSCENC =      3425.01366473
  Ewald energy   TEWEN  =    -42471.26453086
  -Hartree energ DENC   =    -12504.71221230
  -exchange      EXHF   =         0.00000000
  -V(xc)+E(xc)   XCENC  =      2501.65103481
  PAW double counting   =     57979.76171343   -58345.58823598
  entropy T*S    EENTRO =        -0.02899232
  eigenvalues    EBANDS =     -8485.95725291
  atomic energy  EATOM  =     57062.75055671
  Solvation  Ediel_sol  =         0.00000000
  ---------------------------------------------------
  free energy    TOTEN  =      -838.37425468 eV

  energy without entropy =     -838.34526236  energy(sigma->0) =     -838.35975852


--------------------------------------------------------------------------------------------------------




--------------------------------------- Iteration      1(  12)  ---------------------------------------


    POTLOK:  cpu time    0.3862: real time    0.3871
    SETDIJ:  cpu time    0.0441: real time    0.0442
     EDDAV:  cpu time    9.7118: real time    9.7349
    CHARGE:  cpu time    0.6777: real time    0.6793
    MIXING:  cpu time    0.0090: real time    0.0090
    --------------------------------------------
      LOOP:  cpu time   10.8289: real time   10.8546

 eigenvalue-minimisations  :  2512
 total energy-change (2. order) : 0.5062281E+00  (-0.5021897E-01)
 number of electron     699.0000347 magnetization       2.7853552
 augmentation part      160.7902244 magnetization       1.5798185

 Broyden mixing:
  rms(total) = 0.84073E+00    rms(broyden)= 0.84069E+00
  rms(prec ) = 0.10253E+01
  weight for this iteration     100.00

 eigenvalues of (default mixing * dielectric matrix)
  average eigenvalue GAMMA=   0.7782
  2.0796  1.1006  0.1165  0.6383  0.5548  0.5548  0.4029

 Free energy of the ion-electron system (eV)
  ---------------------------------------------------
  alpha Z        PSCENC =      3425.01366473
  Ewald energy   TEWEN  =    -42471.26453086
  -Hartree energ DENC   =    -12514.74333422
  -exchange      EXHF   =         0.00000000
  -V(xc)+E(xc)   XCENC  =      2501.92376807
  PAW double counting   =     58182.49193054   -58547.74580777
  entropy T*S    EENTRO =        -0.02932815
  eigenvalues    EBANDS =     -8476.26494561
  atomic energy  EATOM  =     57062.75055671
  Solvation  Ediel_sol  =         0.00000000
  ---------------------------------------------------
  free energy    TOTEN  =      -837.86802657 eV

  energy without entropy =     -837.83869842  energy(sigma->0) =     -837.85336249


--------------------------------------------------------------------------------------------------------




--------------------------------------- Iteration      1(  13)  ---------------------------------------


    POTLOK:  cpu time    0.3844: real time    0.3854
    SETDIJ:  cpu time    0.0445: real time    0.0446
     EDDAV:  cpu time    9.1029: real time    9.1245
    CHARGE:  cpu time    0.6767: real time    0.6783
    MIXING:  cpu time    0.0100: real time    0.0100
    --------------------------------------------
      LOOP:  cpu time   10.2186: real time   10.2428

 eigenvalue-minimisations  :  2336
 total energy-change (2. order) : 0.2223983E+00  (-0.1937155E-01)
 number of electron     699.0000347 magnetization       2.7727874
 augmentation part      160.3562516 magnetization       1.3562840

 Broyden mixing:
  rms(total) = 0.56755E+00    rms(broyden)= 0.56743E+00
  rms(prec ) = 0.67144E+00
  weight for this iteration     100.00

 eigenvalues of (default mixing * dielectric matrix)
  average eigenvalue GAMMA=   0.7062
  2.0866  1.0258  0.1165  0.4455  0.4455  0.5541  0.5016  0.4736

 Free energy of the ion-electron system (eV)
  ---------------------------------------------------
  alpha Z        PSCENC =      3425.01366473
  Ewald energy   TEWEN  =    -42471.26453086
  -Hartree energ DENC   =    -12521.82010541
  -exchange      EXHF   =         0.00000000
  -V(xc)+E(xc)   XCENC  =      2502.20910447
  PAW double counting   =     58328.81046128   -58693.45499764
  entropy T*S    EENTRO =        -0.02954482
  eigenvalues    EBANDS =     -8469.86023673
  atomic energy  EATOM  =     57062.75055671
  Solvation  Ediel_sol  =         0.00000000
  ---------------------------------------------------
  free energy    TOTEN  =      -837.64562827 eV

  energy without entropy =     -837.61608345  energy(sigma->0) =     -837.63085586


--------------------------------------------------------------------------------------------------------




--------------------------------------- Iteration      1(  14)  ---------------------------------------


    POTLOK:  cpu time    0.3876: real time    0.3886
    SETDIJ:  cpu time    0.0438: real time    0.0439
     EDDAV:  cpu time   10.0825: real time   10.1063
    CHARGE:  cpu time    0.6704: real time    0.6720
    MIXING:  cpu time    0.0103: real time    0.0103
    --------------------------------------------
      LOOP:  cpu time   11.1946: real time   11.2211

 eigenvalue-minimisations  :  2592
 total energy-change (2. order) :-0.7647813E-02  (-0.3211713E-02)
 number of electron     699.0000347 magnetization       2.7574942
 augmentation part      160.3863035 magnetization       1.2848627

 Broyden mixing:
  rms(total) = 0.58904E+00    rms(broyden)= 0.58903E+00
  rms(prec ) = 0.69992E+00
  weight for this iteration     100.00

 eigenvalues of (default mixing * dielectric matrix)
  average eigenvalue GAMMA=   0.6758
  2.0885  1.0071  0.4334  0.4334  0.1165  0.5884  0.5248  0.5248  0.3654

 Free energy of the ion-electron system (eV)
  ---------------------------------------------------
  alpha Z        PSCENC =      3425.01366473
  Ewald energy   TEWEN  =    -42471.26453086
  -Hartree energ DENC   =    -12521.84993292
  -exchange      EXHF   =         0.00000000
  -V(xc)+E(xc)   XCENC  =      2502.21840768
  PAW double counting   =     58329.92167324   -58694.50123317
  entropy T*S    EENTRO =        -0.02943129
  eigenvalues    EBANDS =     -8469.91245019
  atomic energy  EATOM  =     57062.75055671
  Solvation  Ediel_sol  =         0.00000000
  ---------------------------------------------------
  free energy    TOTEN  =      -837.65327609 eV

  energy without entropy =     -837.62384479  energy(sigma->0) =     -837.63856044


--------------------------------------------------------------------------------------------------------




--------------------------------------- Iteration      1(  15)  ---------------------------------------


    POTLOK:  cpu time    0.3562: real time    0.3571
    SETDIJ:  cpu time    0.0425: real time    0.0426
     EDDAV:  cpu time    9.0471: real time    9.0685
    CHARGE:  cpu time    0.6794: real time    0.6810
    MIXING:  cpu time    0.0109: real time    0.0109
    --------------------------------------------
      LOOP:  cpu time   10.1361: real time   10.1601

 eigenvalue-minimisations  :  2480
 total energy-change (2. order) :-0.1806851E-01  (-0.3484553E-02)
 number of electron     699.0000347 magnetization       2.1938099
 augmentation part      160.1503609 magnetization       0.4226216

 Broyden mixing:
  rms(total) = 0.53134E+00    rms(broyden)= 0.53127E+00
  rms(prec ) = 0.59201E+00
  weight for this iteration     100.00

 eigenvalues of (default mixing * dielectric matrix)
  average eigenvalue GAMMA=   0.8393
  2.1628  0.8095  1.4002  1.1629  0.6864  0.6864  0.1165  0.4935  0.4935  0.3814

 Free energy of the ion-electron system (eV)
  ---------------------------------------------------
  alpha Z        PSCENC =      3425.01366473
  Ewald energy   TEWEN  =    -42471.26453086
  -Hartree energ DENC   =    -12522.41711653
  -exchange      EXHF   =         0.00000000
  -V(xc)+E(xc)   XCENC  =      2502.31516077
  PAW double counting   =     58334.03526199   -58698.63467879
  entropy T*S    EENTRO =        -0.03278522
  eigenvalues    EBANDS =     -8469.43687740
  atomic energy  EATOM  =     57062.75055671
  Solvation  Ediel_sol  =         0.00000000
  ---------------------------------------------------
  free energy    TOTEN  =      -837.67134460 eV

  energy without entropy =     -837.63855937  energy(sigma->0) =     -837.65495198


--------------------------------------------------------------------------------------------------------




--------------------------------------- Iteration      1(  16)  ---------------------------------------


    POTLOK:  cpu time    0.4097: real time    0.4106
    SETDIJ:  cpu time    0.0477: real time    0.0478
     EDDAV:  cpu time    8.7839: real time    8.8047
    CHARGE:  cpu time    0.6691: real time    0.6706
    MIXING:  cpu time    0.0105: real time    0.0132
    --------------------------------------------
      LOOP:  cpu time    9.9208: real time    9.9470

 eigenvalue-minimisations  :  2288
 total energy-change (2. order) : 0.2459590E+00  (-0.3420356E-01)
 number of electron     699.0000347 magnetization       1.9862639
 augmentation part      159.3826970 magnetization       0.7061435

 Broyden mixing:
  rms(total) = 0.45990E+00    rms(broyden)= 0.45964E+00
  rms(prec ) = 0.48852E+00
  weight for this iteration     100.00

 eigenvalues of (default mixing * dielectric matrix)
  average eigenvalue GAMMA=   0.8511
  2.1705  1.9913  0.9386  1.0737  0.6919  0.6919  0.1165  0.5211  0.5211  0.3870
  0.2586

 Free energy of the ion-electron system (eV)
  ---------------------------------------------------
  alpha Z        PSCENC =      3425.01366473
  Ewald energy   TEWEN  =    -42471.26453086
  -Hartree energ DENC   =    -12533.31125752
  -exchange      EXHF   =         0.00000000
  -V(xc)+E(xc)   XCENC  =      2502.66141224
  PAW double counting   =     58477.30846462   -58840.73836874
  entropy T*S    EENTRO =        -0.05798326
  eigenvalues    EBANDS =     -8459.78734354
  atomic energy  EATOM  =     57062.75055671
  Solvation  Ediel_sol  =         0.00000000
  ---------------------------------------------------
  free energy    TOTEN  =      -837.42538561 eV

  energy without entropy =     -837.36740235  energy(sigma->0) =     -837.39639398


--------------------------------------------------------------------------------------------------------




--------------------------------------- Iteration      1(  17)  ---------------------------------------


    POTLOK:  cpu time    0.3862: real time    0.3871
    SETDIJ:  cpu time    0.0434: real time    0.0435
     EDDAV:  cpu time    8.8205: real time    8.8414
    CHARGE:  cpu time    0.6421: real time    0.6436
    MIXING:  cpu time    0.0114: real time    0.0114
    --------------------------------------------
      LOOP:  cpu time    9.9037: real time    9.9271

 eigenvalue-minimisations  :  2336
 total energy-change (2. order) :-0.1895711E-01  (-0.1464594E-01)
 number of electron     699.0000348 magnetization       2.0206922
 augmentation part      159.5006904 magnetization       1.0115914

 Broyden mixing:
  rms(total) = 0.37580E+00    rms(broyden)= 0.37538E+00
  rms(prec ) = 0.38779E+00
  weight for this iteration     100.00

 eigenvalues of (default mixing * dielectric matrix)
  average eigenvalue GAMMA=   0.7879
  2.1499  2.0212  0.8866  1.0323  0.6940  0.6940  0.5146  0.5146  0.1165  0.3886
  0.2213  0.2213

 Free energy of the ion-electron system (eV)
  ---------------------------------------------------
  alpha Z        PSCENC =      3425.01366473
  Ewald energy   TEWEN  =    -42471.26453086
  -Hartree energ DENC   =    -12535.81734950
  -exchange      EXHF   =         0.00000000
  -V(xc)+E(xc)   XCENC  =      2502.75122945
  PAW double counting   =     58507.18713489   -58869.77592420
  entropy T*S    EENTRO =        -0.06990136
  eigenvalues    EBANDS =     -8458.21922259
  atomic energy  EATOM  =     57062.75055671
  Solvation  Ediel_sol  =         0.00000000
  ---------------------------------------------------
  free energy    TOTEN  =      -837.44434272 eV

  energy without entropy =     -837.37444137  energy(sigma->0) =     -837.40939205


--------------------------------------------------------------------------------------------------------




--------------------------------------- Iteration      1(  18)  ---------------------------------------


    POTLOK:  cpu time    0.3767: real time    0.3776
    SETDIJ:  cpu time    0.0452: real time    0.0453
     EDDAV:  cpu time    8.4192: real time    8.4392
    CHARGE:  cpu time    0.6434: real time    0.6450
    MIXING:  cpu time    0.0112: real time    0.0112
    --------------------------------------------
      LOOP:  cpu time    9.4958: real time    9.5183

 eigenvalue-minimisations  :  2240
 total energy-change (2. order) :-0.1081728E-01  (-0.3217553E-02)
 number of electron     699.0000348 magnetization       2.0137899
 augmentation part      159.5666359 magnetization       0.8441599

 Broyden mixing:
  rms(total) = 0.37560E+00    rms(broyden)= 0.37558E+00
  rms(prec ) = 0.38181E+00
  weight for this iteration     100.00

 eigenvalues of (default mixing * dielectric matrix)
  average eigenvalue GAMMA=   0.8079
  2.2968  1.8607  0.6753  1.1306  0.6218  0.6218  0.6895  0.6895  0.1165  0.5356
  0.5356  0.3884  0.3407

 Free energy of the ion-electron system (eV)
  ---------------------------------------------------
  alpha Z        PSCENC =      3425.01366473
  Ewald energy   TEWEN  =    -42471.26453086
  -Hartree energ DENC   =    -12535.75879918
  -exchange      EXHF   =         0.00000000
  -V(xc)+E(xc)   XCENC  =      2502.75881971
  PAW double counting   =     58506.39241411   -58868.85788482
  entropy T*S    EENTRO =        -0.07008392
  eigenvalues    EBANDS =     -8458.41931648
  atomic energy  EATOM  =     57062.75055671
  Solvation  Ediel_sol  =         0.00000000
  ---------------------------------------------------
  free energy    TOTEN  =      -837.45516000 eV

  energy without entropy =     -837.38507608  energy(sigma->0) =     -837.42011804


--------------------------------------------------------------------------------------------------------




--------------------------------------- Iteration      1(  19)  ---------------------------------------


    POTLOK:  cpu time    0.3945: real time    0.3954
    SETDIJ:  cpu time    0.0440: real time    0.0441
     EDDAV:  cpu time    9.4332: real time    9.4556
    CHARGE:  cpu time    0.6466: real time    0.6481
    MIXING:  cpu time    0.0112: real time    0.0112
    --------------------------------------------
      LOOP:  cpu time   10.5294: real time   10.5544

 eigenvalue-minimisations  :  2464
 total energy-change (2. order) : 0.1910251E-01  (-0.1208125E-01)
 number of electron     699.0000347 magnetization       1.8843371
 augmentation part      159.6435670 magnetization       0.4455592

 Broyden mixing:
  rms(total) = 0.23820E+00    rms(broyden)= 0.23771E+00
  rms(prec ) = 0.24138E+00
  weight for this iteration     100.00

 eigenvalues of (default mixing * dielectric matrix)
  average eigenvalue GAMMA=   0.7995
  2.3493  1.8497  1.1844  0.6548  0.7219  0.7219  0.7018  0.7018  0.1165  0.4976
  0.4976  0.4047  0.4047  0.3867

 Free energy of the ion-electron system (eV)
  ---------------------------------------------------
  alpha Z        PSCENC =      3425.01366473
  Ewald energy   TEWEN  =    -42471.26453086
  -Hartree energ DENC   =    -12537.14490301
  -exchange      EXHF   =         0.00000000
  -V(xc)+E(xc)   XCENC  =      2502.86680276
  PAW double counting   =     58524.20343942   -58886.45450346
  entropy T*S    EENTRO =        -0.04690839
  eigenvalues    EBANDS =     -8457.35967538
  atomic energy  EATOM  =     57062.75055671
  Solvation  Ediel_sol  =         0.00000000
  ---------------------------------------------------
  free energy    TOTEN  =      -837.43605749 eV

  energy without entropy =     -837.38914910  energy(sigma->0) =     -837.41260329


--------------------------------------------------------------------------------------------------------




--------------------------------------- Iteration      1(  20)  ---------------------------------------


    POTLOK:  cpu time    0.3913: real time    0.3923
    SETDIJ:  cpu time    0.0442: real time    0.0443
     EDDAV:  cpu time    8.6567: real time    8.6772
    CHARGE:  cpu time    0.6402: real time    0.6417
    MIXING:  cpu time    0.0130: real time    0.0130
    --------------------------------------------
      LOOP:  cpu time    9.7454: real time    9.7685

 eigenvalue-minimisations  :  2304
 total energy-change (2. order) :-0.1149524E+00  (-0.1225509E-01)
 number of electron     699.0000348 magnetization       1.9212400
 augmentation part      159.2754682 magnetization      -0.0017661

 Broyden mixing:
  rms(total) = 0.76230E+00    rms(broyden)= 0.76196E+00
  rms(prec ) = 0.79205E+00
  weight for this iteration     100.00

 eigenvalues of (default mixing * dielectric matrix)
  average eigenvalue GAMMA=   0.7454
  2.3315  1.8229  1.1883  0.6579  0.7228  0.7228  0.7004  0.7004  0.1165  0.4994
  0.4994  0.3864  0.3844  0.3844  0.0635

 Free energy of the ion-electron system (eV)
  ---------------------------------------------------
  alpha Z        PSCENC =      3425.01366473
  Ewald energy   TEWEN  =    -42471.26453086
  -Hartree energ DENC   =    -12537.97629678
  -exchange      EXHF   =         0.00000000
  -V(xc)+E(xc)   XCENC  =      2502.90933163
  PAW double counting   =     58540.84560137   -58902.54541836
  entropy T*S    EENTRO =        -0.06118903
  eigenvalues    EBANDS =     -8457.22272932
  atomic energy  EATOM  =     57062.75055671
  Solvation  Ediel_sol  =         0.00000000
  ---------------------------------------------------
  free energy    TOTEN  =      -837.55100992 eV

  energy without entropy =     -837.48982089  energy(sigma->0) =     -837.52041541


--------------------------------------------------------------------------------------------------------




--------------------------------------- Iteration      1(  21)  ---------------------------------------


    POTLOK:  cpu time    0.3874: real time    0.3883
    SETDIJ:  cpu time    0.0434: real time    0.0435
     EDDAV:  cpu time    8.0046: real time    8.0235
    CHARGE:  cpu time    0.6430: real time    0.6445
    MIXING:  cpu time    0.0133: real time    0.0133
    --------------------------------------------
      LOOP:  cpu time    9.0916: real time    9.1131

 eigenvalue-minimisations  :  2096
 total energy-change (2. order) :-0.1998853E-02  (-0.3283010E-02)
 number of electron     699.0000348 magnetization       1.9975781
 augmentation part      159.3183537 magnetization       0.0107162

 Broyden mixing:
  rms(total) = 0.83379E+00    rms(broyden)= 0.83375E+00
  rms(prec ) = 0.85583E+00
  weight for this iteration     100.00

 eigenvalues of (default mixing * dielectric matrix)
  average eigenvalue GAMMA=   0.7562
  2.3378  1.8320  0.6818  1.1042  0.8169  0.8169  0.4081  0.4081  0.6842  0.6842
  0.1165  0.5065  0.5065  0.4156  0.4156  0.3643

 Free energy of the ion-electron system (eV)
  ---------------------------------------------------
  alpha Z        PSCENC =      3425.01366473
  Ewald energy   TEWEN  =    -42471.26453086
  -Hartree energ DENC   =    -12537.13340998
  -exchange      EXHF   =         0.00000000
  -V(xc)+E(xc)   XCENC  =      2502.86399583
  PAW double counting   =     58533.51685290   -58895.37797402
  entropy T*S    EENTRO =        -0.05940215
  eigenvalues    EBANDS =     -8457.86276194
  atomic energy  EATOM  =     57062.75055671
  Solvation  Ediel_sol  =         0.00000000
  ---------------------------------------------------
  free energy    TOTEN  =      -837.55300878 eV

  energy without entropy =     -837.49360663  energy(sigma->0) =     -837.52330770


--------------------------------------------------------------------------------------------------------




--------------------------------------- Iteration      1(  22)  ---------------------------------------


    POTLOK:  cpu time    0.3618: real time    0.3626
    SETDIJ:  cpu time    0.0431: real time    0.0432
     EDDAV:  cpu time    9.3051: real time    9.3272
    CHARGE:  cpu time    0.6557: real time    0.6572
    MIXING:  cpu time    0.0129: real time    0.0129
    --------------------------------------------
      LOOP:  cpu time   10.3785: real time   10.4031

 eigenvalue-minimisations  :  2432
[...]


    POTLOK:  cpu time    0.4014: real time    0.4023
    SETDIJ:  cpu time    0.0521: real time    0.0522
     EDDAV:  cpu time    9.6181: real time    9.6408
    CHARGE:  cpu time    0.6753: real time    0.6769
    MIXING:  cpu time    0.0123: real time    0.0123
    --------------------------------------------
      LOOP:  cpu time   10.7591: real time   10.7846

 eigenvalue-minimisations  :  2368
 total energy-change (2. order) :-0.1414586E+01  (-0.1353844E-01)
 number of electron     698.9999863 magnetization      -1.2719150
 augmentation part      163.9810748 magnetization      -0.7585668

 eigenvalues of (default mixing * dielectric matrix)
  average eigenvalue GAMMA=   0.9575
  1.6924  1.6924  1.5738  1.5738  1.1328  1.1328  0.5670  0.5670  0.4278  0.4278
  0.3909  0.6633  0.6063

  free energy =  -0.896020191205E+03  energy without entropy=  -0.895980633423E+03


--------------------------------------------------------------------------------------------------------




--------------------------------------- Iteration      6(  15)  ---------------------------------------


    POTLOK:  cpu time    0.4026: real time    0.4036
    SETDIJ:  cpu time    0.0519: real time    0.0520
     EDDAV:  cpu time   10.4387: real time   10.4634
    CHARGE:  cpu time    0.6815: real time    0.6831
    MIXING:  cpu time    0.0126: real time    0.0127
    --------------------------------------------
      LOOP:  cpu time   11.5873: real time   11.6147

 eigenvalue-minimisations  :  2416
 total energy-change (2. order) : 0.5939188E+01  (-0.1061740E+01)
 number of electron     698.9999858 magnetization      -1.2730759
 augmentation part      161.3988660 magnetization      -0.5431368

 eigenvalues of (default mixing * dielectric matrix)
  average eigenvalue GAMMA=   0.8852
  1.6271  1.6271  1.6230  1.6230  1.1135  1.1135  0.5670  0.5670  0.4278  0.4278
  0.3909  0.6749  0.5991  0.0111

  free energy =  -0.890081003131E+03  energy without entropy=  -0.889970800259E+03


--------------------------------------------------------------------------------------------------------




--------------------------------------- Iteration      6(  16)  ---------------------------------------


    POTLOK:  cpu time    0.3916: real time    0.3925
    SETDIJ:  cpu time    0.0514: real time    0.0515
     EDDAV:  cpu time    9.3534: real time    9.3756
    CHARGE:  cpu time    0.6607: real time    0.6623
    MIXING:  cpu time    0.0129: real time    0.0129
    --------------------------------------------
      LOOP:  cpu time   10.4700: real time   10.4947

 eigenvalue-minimisations  :  2112
 total energy-change (2. order) : 0.3499192E-01  (-0.7265324E-01)
 number of electron     698.9999858 magnetization      -1.2559065
 augmentation part      161.5636162 magnetization      -0.1467192

 eigenvalues of (default mixing * dielectric matrix)
  average eigenvalue GAMMA=   0.8306
  1.6619  1.6619  1.6149  1.6149  1.1075  1.1075  0.5670  0.5670  0.4278  0.4278
  0.3909  0.6863  0.5965  0.0097  0.0173

  free energy =  -0.890046011213E+03  energy without entropy=  -0.889965960007E+03


--------------------------------------------------------------------------------------------------------




--------------------------------------- Iteration      6(  17)  ---------------------------------------


    POTLOK:  cpu time    0.3939: real time    0.3948
    SETDIJ:  cpu time    0.0509: real time    0.0510
     EDDAV:  cpu time   11.2832: real time   11.3099
    CHARGE:  cpu time    0.6704: real time    0.6720
    MIXING:  cpu time    0.0137: real time    0.0138
    --------------------------------------------
      LOOP:  cpu time   12.4121: real time   12.4415

 eigenvalue-minimisations  :  2672
 total energy-change (2. order) : 0.6599684E-02  (-0.3698474E-02)
 number of electron     698.9999858 magnetization      -1.2562575
 augmentation part      161.4698198 magnetization      -0.1831209

 eigenvalues of (default mixing * dielectric matrix)
  average eigenvalue GAMMA=   0.7821
  1.6677  1.6677  1.6090  1.6090  1.1102  1.1102  0.5670  0.5670  0.4278  0.4278
  0.6865  0.5963  0.3909  0.0238  0.0062  0.0458

  free energy =  -0.890039411529E+03  energy without entropy=  -0.889961240785E+03


--------------------------------------------------------------------------------------------------------




--------------------------------------- Iteration      6(  18)  ---------------------------------------


    POTLOK:  cpu time    0.3895: real time    0.3904
    SETDIJ:  cpu time    0.0520: real time    0.0521
     EDDAV:  cpu time   10.7966: real time   10.8221
    CHARGE:  cpu time    0.6650: real time    0.6666
    MIXING:  cpu time    0.0137: real time    0.0138
    --------------------------------------------
      LOOP:  cpu time   11.9168: real time   11.9450

 eigenvalue-minimisations  :  2528
 total energy-change (2. order) : 0.5253385E-02  (-0.3026844E-03)
 number of electron     698.9999858 magnetization      -1.2566570
 augmentation part      161.4548241 magnetization      -0.1920915

 eigenvalues of (default mixing * dielectric matrix)
  average eigenvalue GAMMA=   0.7559
  1.6574  1.6574  1.6277  1.6277  1.0994  1.0994  0.5670  0.5670  0.6884  0.5964
  0.4278  0.4278  0.3909  0.1372  0.1364  0.1364  0.0060

  free energy =  -0.890034158144E+03  energy without entropy=  -0.889955740016E+03


--------------------------------------------------------------------------------------------------------




--------------------------------------- Iteration      6(  19)  ---------------------------------------


    POTLOK:  cpu time    0.3897: real time    0.3907
    SETDIJ:  cpu time    0.0510: real time    0.0512
     EDDAV:  cpu time    9.8870: real time    9.9105
    CHARGE:  cpu time    0.6672: real time    0.6688
    MIXING:  cpu time    0.0144: real time    0.0145
    --------------------------------------------
      LOOP:  cpu time   11.0095: real time   11.0356

 eigenvalue-minimisations  :  2272
 total energy-change (2. order) :-0.3315058E-02  (-0.6599301E-04)
 number of electron     698.9999858 magnetization      -1.2546695
 augmentation part      161.4786818 magnetization      -0.1900401

 eigenvalues of (default mixing * dielectric matrix)
  average eigenvalue GAMMA=   0.7358
  1.6187  1.6187  1.6685  1.6685  1.0794  1.0794  0.5670  0.5670  0.6873  0.5998
  0.4278  0.4278  0.3909  0.2176  0.2176  0.2013  0.2013  0.0060

  free energy =  -0.890037473201E+03  energy without entropy=  -0.889960329753E+03


--------------------------------------------------------------------------------------------------------




--------------------------------------- Iteration      6(  20)  ---------------------------------------


    POTLOK:  cpu time    0.4016: real time    0.4025
    SETDIJ:  cpu time    0.0517: real time    0.0519
     EDDAV:  cpu time    9.5040: real time    9.5265
    CHARGE:  cpu time    0.6656: real time    0.6672
    MIXING:  cpu time    0.0149: real time    0.0150
    --------------------------------------------
      LOOP:  cpu time   10.6378: real time   10.6630

 eigenvalue-minimisations  :  2160
 total energy-change (2. order) :-0.1643912E-02  (-0.4062521E-04)
 number of electron     698.9999858 magnetization      -1.2377988
 augmentation part      161.4992088 magnetization      -0.1701640

 eigenvalues of (default mixing * dielectric matrix)
  average eigenvalue GAMMA=   0.7251
  1.6125  1.6125  1.6768  1.6768  1.0709  1.0709  0.5670  0.5670  0.6799  0.6077
  0.4278  0.4278  0.3909  0.3550  0.2675  0.2675  0.2463  0.2463  0.0060

  free energy =  -0.890039117113E+03  energy without entropy=  -0.889961432981E+03


--------------------------------------------------------------------------------------------------------




--------------------------------------- Iteration      6(  21)  ---------------------------------------


    POTLOK:  cpu time    0.3974: real time    0.3983
    SETDIJ:  cpu time    0.0520: real time    0.0521
     EDDAV:  cpu time    9.6183: real time    9.6411
    CHARGE:  cpu time    0.6667: real time    0.6683
    MIXING:  cpu time    0.0165: real time    0.0165
    --------------------------------------------
      LOOP:  cpu time   10.7508: real time   10.7763

 eigenvalue-minimisations  :  2192
 total energy-change (2. order) : 0.9163913E-02  (-0.4612199E-04)
 number of electron     698.9999858 magnetization      -0.9851299
 augmentation part      161.4787203 magnetization       0.0857007

 eigenvalues of (default mixing * dielectric matrix)
  average eigenvalue GAMMA=   0.7444
  1.7185  1.7185  1.5367  1.5367  1.0658  1.0658  0.5740  0.5740  0.5670  0.5670
  0.6356  0.6356  0.4278  0.4278  0.3909  0.4184  0.4184  0.3013  0.3013  0.0060

  free energy =  -0.890029953200E+03  energy without entropy=  -0.889951487875E+03


--------------------------------------------------------------------------------------------------------




--------------------------------------- Iteration      6(  22)  ---------------------------------------


    POTLOK:  cpu time    0.3926: real time    0.3935
    SETDIJ:  cpu time    0.0515: real time    0.0516
     EDDAV:  cpu time   10.3651: real time   10.3896
    CHARGE:  cpu time    0.6469: real time    0.6484
    MIXING:  cpu time    0.0154: real time    0.0154
    --------------------------------------------
      LOOP:  cpu time   11.4715: real time   11.4987

 eigenvalue-minimisations  :  2416
 total energy-change (2. order) :-0.2182259E-01  (-0.1674691E-01)
 number of electron     698.9999859 magnetization      -0.7513531
 augmentation part      161.8200570 magnetization       0.3450059

 eigenvalues of (default mixing * dielectric matrix)
  average eigenvalue GAMMA=   0.7357
  1.7423  1.7423  1.4972  1.4972  1.0571  1.0571  0.6742  0.6742  0.5669  0.5669
  0.6518  0.6212  0.4278  0.4278  0.4844  0.4844  0.3909  0.3191  0.3191  0.2412
  0.0060

  free energy =  -0.890051775795E+03  energy without entropy=  -0.889966397221E+03


--------------------------------------------------------------------------------------------------------




--------------------------------------- Iteration      6(  23)  ---------------------------------------


    POTLOK:  cpu time    0.4013: real time    0.4022
    SETDIJ:  cpu time    0.0504: real time    0.0505
     EDDAV:  cpu time   10.4173: real time   10.4420
    CHARGE:  cpu time    0.5749: real time    0.5763
    MIXING:  cpu time    0.0160: real time    0.0160
    --------------------------------------------
      LOOP:  cpu time   11.4599: real time   11.4871

 eigenvalue-minimisations  :  2464
 total energy-change (2. order) :-0.1332494E+00  (-0.5703857E-01)
 number of electron     698.9999861 magnetization      -0.3823318
 augmentation part      162.6775072 magnetization       0.2180009

 eigenvalues of (default mixing * dielectric matrix)
  average eigenvalue GAMMA=   0.7727
  1.7771  1.7771  1.5941  1.5941  1.1250  1.1250  0.7457  0.7457  0.6418  0.6418
  0.5670  0.5670  0.4278  0.4278  0.6782  0.6007  0.4232  0.4232  0.3902  0.3608
  0.3608  0.0060

  free energy =  -0.890185025150E+03  energy without entropy=  -0.890077424359E+03


--------------------------------------------------------------------------------------------------------




--------------------------------------- Iteration      6(  24)  ---------------------------------------


    POTLOK:  cpu time    0.3811: real time    0.3820
    SETDIJ:  cpu time    0.0511: real time    0.0512
     EDDAV:  cpu time    9.6226: real time    9.6454
    CHARGE:  cpu time    0.6883: real time    0.6899
    MIXING:  cpu time    0.0179: real time    0.0180
    --------------------------------------------
      LOOP:  cpu time   10.7609: real time   10.7864

 eigenvalue-minimisations  :  2304
 total energy-change (2. order) :-0.1058836E+00  (-0.7937004E-01)
 number of electron     698.9999859 magnetization      -0.3424936
 augmentation part      161.9954584 magnetization      -1.1891392

 eigenvalues of (default mixing * dielectric matrix)
  average eigenvalue GAMMA=   0.7400
  1.7731  1.7731  1.5996  1.5996  1.1248  1.1248  0.7441  0.7441  0.6473  0.6473
  0.5670  0.5670  0.4278  0.4278  0.6761  0.6012  0.4232  0.4232  0.3903  0.3588
  0.3588  0.0155  0.0060

  free energy =  -0.890290908732E+03  energy without entropy=  -0.890236988155E+03


--------------------------------------------------------------------------------------------------------




--------------------------------------- Iteration      6(  25)  ---------------------------------------


    POTLOK:  cpu time    0.3990: real time    0.3999
    SETDIJ:  cpu time    0.0545: real time    0.0546
     EDDAV:  cpu time    8.7820: real time    8.8028
    CHARGE:  cpu time    0.6685: real time    0.6700
    MIXING:  cpu time    0.0173: real time    0.0173
    --------------------------------------------
      LOOP:  cpu time    9.9212: real time    9.9447

 eigenvalue-minimisations  :  1968
 total energy-change (2. order) :-0.2963051E+00  (-0.1797720E-01)
 number of electron     698.9999859 magnetization      -0.3421054
 augmentation part      161.9363877 magnetization      -1.2962602

 eigenvalues of (default mixing * dielectric matrix)
  average eigenvalue GAMMA=   0.7172
  1.7643  1.7643  1.5852  1.5852  1.1488  1.1488  0.7419  0.7419  0.6510  0.6510
  0.5670  0.5670  0.6693  0.4278  0.4278  0.6030  0.4195  0.4195  0.3877  0.3789
  0.3554  0.1005  0.1005  0.0060

  free energy =  -0.890587213826E+03  energy without entropy=  -0.890582177108E+03


--------------------------------------------------------------------------------------------------------




--------------------------------------- Iteration      6(  26)  ---------------------------------------


    POTLOK:  cpu time    0.3860: real time    0.3869
    SETDIJ:  cpu time    0.0529: real time    0.0531
     EDDAV:  cpu time   10.1401: real time   10.1641
    CHARGE:  cpu time    0.6612: real time    0.6628
    MIXING:  cpu time    0.0194: real time    0.0194
    --------------------------------------------
      LOOP:  cpu time   11.2596: real time   11.2862

 eigenvalue-minimisations  :  2352
 total energy-change (2. order) :-0.1906597E-01  (-0.8148418E-03)
 number of electron     698.9999859 magnetization      -0.3363818
 augmentation part      161.9275990 magnetization      -1.2890213

 eigenvalues of (default mixing * dielectric matrix)
  average eigenvalue GAMMA=   0.7071
  1.7660  1.7660  1.5806  1.5806  1.1507  1.1507  0.7334  0.7334  0.6668  0.6668
  0.5670  0.5670  0.6730  0.5993  0.4278  0.4278  0.4032  0.4032  0.3936  0.4003
  0.3312  0.2550  0.2550  0.1744  0.0060

  free energy =  -0.890606279796E+03  energy without entropy=  -0.890604588783E+03


--------------------------------------------------------------------------------------------------------




--------------------------------------- Iteration      6(  27)  ---------------------------------------


    POTLOK:  cpu time    0.3890: real time    0.3899
    SETDIJ:  cpu time    0.0522: real time    0.0523
     EDDAV:  cpu time   10.6419: real time   10.6671
    CHARGE:  cpu time    0.6590: real time    0.6605
    MIXING:  cpu time    0.0214: real time    0.0214
    --------------------------------------------
      LOOP:  cpu time   11.7633: real time   11.7912

 eigenvalue-minimisations  :  2512
 total energy-change (2. order) : 0.4874920E-01  (-0.2412402E-03)
 number of electron     698.9999859 magnetization      -0.3029265
 augmentation part      161.8985104 magnetization      -1.2539793

 eigenvalues of (default mixing * dielectric matrix)
  average eigenvalue GAMMA=   0.7180
  1.6723  1.6723  1.6363  1.6363  1.1325  1.1325  0.7473  0.7473  0.7060  0.7060
  0.5670  0.5670  0.4096  0.4096  0.6791  0.5914  0.4279  0.4279  0.4390  0.4390
  0.4535  0.3914  0.3821  0.3821  0.3071  0.0060

  free energy =  -0.890557530591E+03  energy without entropy=  -0.890555888470E+03


--------------------------------------------------------------------------------------------------------




--------------------------------------- Iteration      6(  28)  ---------------------------------------


    POTLOK:  cpu time    0.3873: real time    0.3882
    SETDIJ:  cpu time    0.0525: real time    0.0526
     EDDAV:  cpu time   10.1461: real time   10.1701
    CHARGE:  cpu time    0.6556: real time    0.6572
    MIXING:  cpu time    0.0190: real time    0.0191
    --------------------------------------------
      LOOP:  cpu time   11.2606: real time   11.2872

 eigenvalue-minimisations  :  2368
 total energy-change (2. order) :-0.2382521E+00  (-0.1165968E-02)
 number of electron     698.9999859 magnetization      -0.3016823
 augmentation part      161.9317610 magnetization      -1.2470093

 eigenvalues of (default mixing * dielectric matrix)
  average eigenvalue GAMMA=   0.7070
  1.6736  1.6736  1.6648  1.6648  1.1192  1.1192  0.7146  0.7146  0.7017  0.7017
  0.5671  0.5671  0.4557  0.4557  0.6717  0.5961  0.4279  0.4279  0.4707  0.4707
  0.4548  0.3914  0.3822  0.3822  0.3035  0.3115  0.0060

  free energy =  -0.890795782692E+03  energy without entropy=  -0.890795714034E+03


--------------------------------------------------------------------------------------------------------




--------------------------------------- Iteration      6(  29)  ---------------------------------------


    POTLOK:  cpu time    0.3904: real time    0.3913
    SETDIJ:  cpu time    0.0514: real time    0.0515
     EDDAV:  cpu time    9.6462: real time    9.6691
    CHARGE:  cpu time    0.6555: real time    0.6571
    MIXING:  cpu time    0.0211: real time    0.0211
    --------------------------------------------
      LOOP:  cpu time   10.7646: real time   10.7901

 eigenvalue-minimisations  :  2224
 total energy-change (2. order) : 0.2487648E+00  (-0.9534990E-03)
 number of electron     698.9999859 magnetization      -0.2815617
 augmentation part      161.9070629 magnetization      -1.2285684

 eigenvalues of (default mixing * dielectric matrix)
  average eigenvalue GAMMA=   0.7230
  1.6724  1.6724  1.5819  1.5819  1.0985  1.0985  0.8512  0.8512  0.7142  0.7142
  0.6888  0.6888  0.3891  0.5672  0.5672  0.6761  0.5425  0.5425  0.4278  0.4278
  0.5916  0.4024  0.4024  0.4247  0.3929  0.3747  0.2946  0.0060

  free energy =  -0.890547017906E+03  energy without entropy=  -0.890543269861E+03


--------------------------------------------------------------------------------------------------------




--------------------------------------- Iteration      6(  30)  ---------------------------------------


    POTLOK:  cpu time    0.3804: real time    0.3813
    SETDIJ:  cpu time    0.0510: real time    0.0511
     EDDAV:  cpu time   10.3732: real time   10.3978
    CHARGE:  cpu time    0.6840: real time    0.6856
    MIXING:  cpu time    0.0222: real time    0.0223
    --------------------------------------------
      LOOP:  cpu time   11.5108: real time   11.5381

 eigenvalue-minimisations  :  2432
 total energy-change (2. order) : 0.2509069E+00  (-0.4448689E-02)
 number of electron     698.9999859 magnetization      -0.1472268
 augmentation part      161.8508409 magnetization      -1.0779504

 eigenvalues of (default mixing * dielectric matrix)
  average eigenvalue GAMMA=   0.7374
  1.9093  1.9093  1.7224  1.7224  0.7860  0.7860  1.0642  1.0642  0.7445  0.7445
  0.7613  0.7613  0.3984  0.5674  0.5674  0.6000  0.6000  0.4278  0.4278  0.5920
  0.5406  0.5406  0.4112  0.4112  0.3921  0.3712  0.2782  0.2782  0.0060

  free energy =  -0.890296110987E+03  energy without entropy=  -0.890223614407E+03


--------------------------------------------------------------------------------------------------------




--------------------------------------- Iteration      6(  31)  ---------------------------------------


    POTLOK:  cpu time    0.3895: real time    0.3904
    SETDIJ:  cpu time    0.0527: real time    0.0528
Error EDDDAV: Call to ZHEGV failed. Returncode =  15 1  16
