 vasp.5.4.4.18Apr17-6-g9f103f2a35 (build May 12 2020 05:39:39) gamma-only       
  
 MD_VERSION_INFO: Compiled 2020-05-12T12:39:39-UTC in devlin.sd.materialsdesign.
 com:/home/medea2/data/build/wwolf/vasp-gpu5.4.4/13047/x86_64/src/src/build/gam 
 from svn 13047
 
 This VASP executable licensed from Materials Design, Inc.
 
 executed on                        Lin64 date 2023.04.04  12:48:24
 running on   16 total cores
 distrk:  each k-point on   16 cores,    1 groups
 distr:  one band on NCORES_PER_BAND=   1 cores,   16 groups


--------------------------------------------------------------------------------------------------------


 INCAR:
 POTCAR:    PAW_PBE Ta_pv 07Sep2000               
 POTCAR:    PAW_PBE Ni 02Aug2007                  
 POTCAR:    PAW_PBE Li_sv 10Sep2004               
 POTCAR:    PAW_PBE O 08Apr2002                   

 ----------------------------------------------------------------------------- 
|                                                                             |
|           W    W    AA    RRRRR   N    N  II  N    N   GGGG   !!!           |
|           W    W   A  A   R    R  NN   N  II  NN   N  G    G  !!!           |
|           W    W  A    A  R    R  N N  N  II  N N  N  G       !!!           |
|           W WW W  AAAAAA  RRRRR   N  N N  II  N  N N  G  GGG   !            |
|           WW  WW  A    A  R   R   N   NN  II  N   NN  G    G                |
|           W    W  A    A  R    R  N    N  II  N    N   GGGG   !!!           |
|                                                                             |
|      For optimal performance we recommend to set                            |
|        NCORE= 4 - approx SQRT( number of cores)                             |
|      NCORE specifies how many cores store one orbital (NPAR=cpu/NCORE).     |
|      This setting can  greatly improve the performance of VASP for DFT.     |
|      The default,   NCORE=1            might be grossly inefficient         |
|      on modern multi-core architectures or massively parallel machines.     |
|      Do your own testing !!!!                                               |
|      Unfortunately you need to use the default for GW and RPA calculations. |
|      (for HF NCORE is supported but not extensively tested yet)             |
|                                                                             |
 ----------------------------------------------------------------------------- 

 POTCAR:    PAW_PBE Ta_pv 07Sep2000               
  local pseudopotential read in
  partial core-charges read in
  partial kinetic energy density read in
  atomic valenz-charges read in
  non local Contribution for L=           1  read in
    real space projection operators read in
  non local Contribution for L=           1  read in
    real space projection operators read in
  non local Contribution for L=           2  read in
    real space projection operators read in
  non local Contribution for L=           2  read in
    real space projection operators read in
  non local Contribution for L=           0  read in
    real space projection operators read in
  non local Contribution for L=           0  read in
    real space projection operators read in
    PAW grid and wavefunctions read in
 
   number of l-projection  operators is LMAX  =           6
   number of lm-projection operators is LMMAX =          18
 
 POTCAR:    PAW_PBE Ni 02Aug2007                  
  local pseudopotential read in
  partial core-charges read in
  partial kinetic energy density read in
  atomic valenz-charges read in
  non local Contribution for L=           2  read in
    real space projection operators read in
  non local Contribution for L=           2  read in
    real space projection operators read in
  non local Contribution for L=           0  read in
    real space projection operators read in
  non local Contribution for L=           0  read in
    real space projection operators read in
  non local Contribution for L=           1  read in
    real space projection operators read in
  non local Contribution for L=           1  read in
    real space projection operators read in
    PAW grid and wavefunctions read in
 
   number of l-projection  operators is LMAX  =           6
   number of lm-projection operators is LMMAX =          18
 
 POTCAR:    PAW_PBE Li_sv 10Sep2004               
  local pseudopotential read in
  atomic valenz-charges read in
  non local Contribution for L=           0  read in
    real space projection operators read in
  non local Contribution for L=           0  read in
    real space projection operators read in
  non local Contribution for L=           1  read in
    real space projection operators read in
    PAW grid and wavefunctions read in
 
   number of l-projection  operators is LMAX  =           3
   number of lm-projection operators is LMMAX =           5
 
 POTCAR:    PAW_PBE O 08Apr2002                   
  local pseudopotential read in
  partial core-charges read in
  partial kinetic energy density read in
  kinetic energy density of atom read in
  atomic valenz-charges read in
  non local Contribution for L=           0  read in
    real space projection operators read in
  non local Contribution for L=           0  read in
    real space projection operators read in
  non local Contribution for L=           1  read in
    real space projection operators read in
  non local Contribution for L=           1  read in
    real space projection operators read in
    PAW grid and wavefunctions read in
 
   number of l-projection  operators is LMAX  =           4
   number of lm-projection operators is LMMAX =           8
 
 Optimization of the real space projectors (new method)

 maximal supplied QI-value         = 15.12
 optimisation between [QCUT,QGAM] = [ 11.34, 22.83] = [ 36.00,145.93] Ry 
 Optimized for a Real-space Cutoff    1.61 Angstroem

   l    n(q)    QCUT    max X(q) W(low)/X(q) W(high)/X(q)  e(spline) 
   1     11    11.338     4.092    0.40E-05    0.64E-05    0.47E-07
   1     11    11.338     4.834    0.13E-04    0.44E-04    0.21E-06
   2     10    11.338    62.294    0.15E-03    0.31E-03    0.77E-06
   2     10    11.338    50.966    0.15E-03    0.31E-03    0.77E-06
   0     11    11.338   103.792    0.33E-04    0.19E-04    0.90E-07
   0     11    11.338    56.335    0.26E-04    0.17E-04    0.79E-07
 Optimization of the real space projectors (new method)

 maximal supplied QI-value         = 16.25
 optimisation between [QCUT,QGAM] = [ 11.38, 22.75] = [ 36.24,144.96] Ry 
 Optimized for a Real-space Cutoff    1.47 Angstroem

   l    n(q)    QCUT    max X(q) W(low)/X(q) W(high)/X(q)  e(spline) 
   2      9    11.376    60.317    0.17E-03    0.16E-04    0.16E-06
   2      9    11.376    55.921    0.17E-03    0.16E-04    0.17E-06
   0     10    11.376    51.690    0.45E-04    0.60E-04    0.21E-06
   0     10    11.376    30.015    0.37E-04    0.55E-04    0.19E-06
   1     10    11.376    18.849    0.83E-04    0.11E-03    0.92E-07
   1     10    11.376    14.624    0.69E-04    0.92E-04    0.82E-07
 Optimization of the real space projectors (new method)

 maximal supplied QI-value         = 22.11
 optimisation between [QCUT,QGAM] = [ 11.28, 22.77] = [ 35.61,145.23] Ry 
 Optimized for a Real-space Cutoff    1.10 Angstroem

   l    n(q)    QCUT    max X(q) W(low)/X(q) W(high)/X(q)  e(spline) 
   0      7    11.276    10.506    0.54E-04    0.58E-04    0.16E-07
   0      7    11.276     8.367    0.11E-03    0.14E-03    0.35E-07
   1      7    11.276     8.983    0.23E-03    0.43E-03    0.86E-07
 Optimization of the real space projectors (new method)

 maximal supplied QI-value         = 24.76
 optimisation between [QCUT,QGAM] = [ 11.39, 22.77] = [ 36.31,145.25] Ry 
 Optimized for a Real-space Cutoff    1.10 Angstroem

   l    n(q)    QCUT    max X(q) W(low)/X(q) W(high)/X(q)  e(spline) 
   0      7    11.387    20.381    0.22E-03    0.48E-03    0.18E-06
   0      7    11.387    15.268    0.22E-03    0.52E-03    0.19E-06
   1      7    11.387     5.964    0.22E-03    0.73E-03    0.24E-06
   1      7    11.387     5.382    0.19E-03    0.60E-03    0.21E-06

 ----------------------------------------------------------------------------- 
|                                                                             |
|  ADVICE TO THIS USER RUNNING 'VASP/VAMP'   (HEAR YOUR MASTER'S VOICE ...):  |
|                                                                             |
|      You enforced a specific xc-type in the INCAR file,                     |
|      a different type was found on the POTCAR file                          |
|          I HOPE YOU KNOW, WHAT YOU ARE  DOING                               |
|                                                                             |
 ----------------------------------------------------------------------------- 

  PAW_PBE Ta_pv 07Sep2000               :
 energy of atom  1       EATOM=-1047.1984
 kinetic energy error for atom=    0.0019 (will be added to EATOM!!)
  PAW_PBE Ni 02Aug2007                  :
 energy of atom  2       EATOM=-1077.6739
 kinetic energy error for atom=    0.0030 (will be added to EATOM!!)
  PAW_PBE Li_sv 10Sep2004               :
 energy of atom  3       EATOM= -202.7858
 kinetic energy error for atom=    0.0143 (will be added to EATOM!!)
  PAW_PBE O 08Apr2002                   :
 energy of atom  4       EATOM= -432.3788
 kinetic energy error for atom=    0.0224 (will be added to EATOM!!)
 
 
 POSCAR: ce290209_1                              
  positions in direct lattice
  No initial velocities read in
 exchange correlation table for  LEXCH =       14
   RHO(1)=    0.500       N(1)  =     2000
   RHO(2)=  100.500       N(2)  =     4000
 


--------------------------------------------------------------------------------------------------------


 ion  position               nearest neighbor table
   1  0.974  0.000  1.000- 105 1.92  72 1.94  57 2.23 108 2.23  93 2.49  60 2.50  14 2.84  36 2.97
                            26 2.99  53 2.99  17 2.99  54 3.09  10 3.42   7 3.44   4 3.56
   2  0.888  0.335  0.200-  71 1.93  56 1.99  59 2.20  74 2.22  77 2.34  80 2.40  27 2.93  28 2.95
                            15 2.97  22 2.99  36 3.02  37 3.07  30 3.08   5 3.30   6 3.30
   3  0.095  0.664  0.143-  79 1.92  64 2.02  58 2.02  61 2.35  55 2.35  94 2.45  20 2.84  18 2.84
                            40 2.89  32 3.05  29 3.05  16 3.16  13 3.16  11 3.42  12 3.42
   4  0.360  0.000  1.000-  99 1.92  66 1.94  63 2.23  96 2.23  93 2.49  60 2.50  14 2.84  33 2.97
                            23 2.99  50 2.99  21 2.99  48 3.09  10 3.42   7 3.44   1 3.56
   5  0.245  0.335  0.200-  65 1.93  62 1.99  59 2.20  86 2.22  83 2.34  80 2.40  24 2.93  31 2.95
                            15 2.97  22 2.99  33 3.02  43 3.07  30 3.08   2 3.30   8 3.30
   6  0.556  0.332  0.578-  98 1.93  95 1.99  92 2.20  77 2.22  74 2.34  89 2.40  24 2.93  48 2.95
                            19 2.97  22 2.99  49 3.02  39 3.07  46 3.08   8 3.30   2 3.30
   7  0.983  0.997  0.367-  81 1.91  78 2.00  84 2.00  57 2.37  63 2.37  60 2.47  23 2.82  26 2.82
                            41 2.92  39 3.03  42 3.03  17 3.15  21 3.15   1 3.44   4 3.44
   8  0.199  0.332  0.578- 104 1.93 107 1.99  92 2.20  83 2.22  86 2.34  89 2.40  27 2.93  54 2.95
                            19 2.97  22 2.99  52 3.02  42 3.07  46 3.08   6 3.30   5 3.30
   9  0.461  0.670  0.411-  70 1.91  73 2.00  85 2.00  76 2.37  88 2.37  91 2.47  16 2.82  13 2.82
                            35 2.92  37 3.03  43 3.03  18 3.15  20 3.15  11 3.44  12 3.44
  10  0.349  0.002  0.635-  90 1.92  87 2.02  75 2.02 108 2.35  96 2.35  93 2.45  21 2.84  17 2.84
                            45 2.89  44 3.05  38 3.05  26 3.16  23 3.16   1 3.42   4 3.42
  11  0.471  0.666  0.778- 100 1.92  97 1.94  76 2.23  61 2.23  94 2.49  91 2.50  25 2.84  49 2.97
                            13 2.99  50 2.99  18 2.99  31 3.09   3 3.42   9 3.44  12 3.56
  12  0.085  0.666  0.778- 106 1.92 103 1.94  88 2.23  55 2.23  94 2.49  91 2.50  25 2.84  52 2.97
                            16 2.99  53 2.99  20 2.99  28 3.09   3 3.42   9 3.44  11 3.56
  13  0.452  0.668  0.110-  67 2.04  70 2.14 100 2.16  85 2.16  64 2.22  61 2.25   9 2.82  16 2.95
                            11 2.99  25 3.04   3 3.16
  14  0.667  1.000  0.999- 102 2.09  69 2.11 105 2.17  99 2.17  72 2.17  66 2.17   1 2.84   4 2.84
                            26 3.04  23 3.04  17 3.05  21 3.05
  15  0.561  0.332  0.210-  68 2.00  71 2.14  65 2.14  74 2.22  86 2.22  89 2.30  27 2.95  24 2.95
                             2 2.97   5 2.97
  16  0.771  0.668  0.110-  67 2.04  70 2.14 106 2.16  73 2.16  58 2.22  55 2.25   9 2.82  13 2.95
                            12 2.99  25 3.04   3 3.16
  17  0.661  0.001  0.332-  69 2.05  90 2.15  72 2.16  75 2.17  78 2.20  57 2.24  10 2.84  21 2.96
                             1 2.99  14 3.05   7 3.15
  18  0.784  0.665  0.445-  82 2.05  79 2.15  97 2.16  58 2.17  73 2.20  76 2.24   3 2.84  20 2.96
                            11 2.99  25 3.05   9 3.15
  19  0.883  0.335  0.567- 101 2.00  98 2.14 104 2.14  77 2.22  83 2.22  80 2.30  24 2.95  27 2.95
                             6 2.97   8 2.97
  20  0.104  0.665  0.445-  82 2.05  79 2.15 103 2.16  64 2.17  85 2.20  88 2.24   3 2.84  18 2.96
                            12 2.99  25 3.05   9 3.15
  21  0.340  0.001  0.332-  69 2.05  90 2.15  66 2.16  87 2.17  84 2.20  63 2.24  10 2.84  17 2.96
                             4 2.99  14 3.05   7 3.15
  22  0.222  0.333  0.889-  62 2.15  56 2.15 107 2.15  95 2.15  92 2.20  59 2.20   6 2.99   2 2.99
                             8 2.99   5 2.99
  23  0.673  0.998  0.668- 102 2.04  81 2.14  99 2.16  78 2.16  75 2.22  96 2.25   7 2.82  26 2.95
                             4 2.99  14 3.04  10 3.16
  24  0.566  0.333  0.889-  68 2.06 101 2.06  98 2.20  65 2.20  62 2.28  95 2.28  27 2.88   5 2.93
                             6 2.93  19 2.95  15 2.95
  25  0.777  0.667  0.778-  67 2.09  82 2.11 106 2.17 100 2.17  97 2.17 103 2.17  11 2.84  12 2.84
                            13 3.04  16 3.04  18 3.05  20 3.05
  26  0.992  0.998  0.668- 102 2.04  81 2.14 105 2.16  84 2.16  87 2.22 108 2.25   7 2.82  23 2.95
                             1 2.99  14 3.04  10 3.16
  27  0.878  0.333  0.889-  68 2.06 101 2.06 104 2.20  71 2.20  56 2.28 107 2.28  24 2.88   8 2.93
                             2 2.93  15 2.95  19 2.95
  28  0.997  0.499  0.999-  94 2.07  59 2.17  71 2.17 106 2.17  58 2.20 107 2.22   2 2.95  12 3.09

  29  0.883  0.832  0.226-  60 2.09  55 2.15  78 2.17  72 2.18  73 2.18  79 2.19   3 3.05
  30  0.113  0.169  0.108-  93 2.09  56 2.12  62 2.12  80 2.15  57 2.17  63 2.17   2 3.08   5 3.08

  31  0.338  0.499  0.999-  94 2.07  59 2.17  65 2.17 100 2.17  64 2.20  95 2.22   5 2.95  11 3.09

  32  0.225  0.832  0.226-  60 2.09  61 2.15  84 2.17  66 2.18  85 2.18  79 2.19   3 3.05
  33  0.452  0.167  0.109-  86 2.16  63 2.18  68 2.19  99 2.19  69 2.22  62 2.24   4 2.97   5 3.02

  34  0.668  0.500  0.998- 101 2.24 106 2.26 100 2.26  71 2.27  65 2.27  70 2.27
  35  0.557  0.835  0.218-  73 2.23  85 2.23  72 2.23  66 2.23  67 2.25  90 2.27   9 2.92
  36  0.773  0.167  0.109-  74 2.16  57 2.18  68 2.19 105 2.19  69 2.22  56 2.24   1 2.97   2 3.02

  37  0.669  0.502  0.329-  89 2.14  71 2.15  76 2.15  70 2.15  58 2.19  77 2.19   9 3.03   2 3.07

  38  0.562  0.835  0.552-  91 2.09  96 2.15  73 2.17  97 2.18  78 2.18  90 2.19  10 3.05
  39  0.776  0.165  0.449-  80 2.14  98 2.15  57 2.15  81 2.15  75 2.19  74 2.19   7 3.03   6 3.07

  40  0.997  0.503  0.339-  77 2.16  83 2.16  58 2.19  64 2.19  82 2.19  59 2.21   3 2.89
  41  0.887  0.832  0.559-  78 2.23  84 2.23  97 2.23 103 2.23 102 2.25  79 2.27   7 2.92
  42  0.109  0.165  0.449-  80 2.14 104 2.15  63 2.15  81 2.15  87 2.19  86 2.19   7 3.03   8 3.07

  43  0.336  0.502  0.329-  89 2.14  65 2.15  88 2.15  70 2.15  64 2.19  83 2.19   9 3.03   5 3.07

  44  0.220  0.835  0.552-  91 2.09 108 2.15  85 2.17 103 2.18  84 2.18  90 2.19  10 3.05
  45  0.447  0.164  0.439-  86 2.16  74 2.16  75 2.19  87 2.19  69 2.19  92 2.21  10 2.89
  46  0.332  0.498  0.670-  94 2.09  95 2.12 107 2.12  89 2.15  76 2.17  88 2.17   6 3.08   8 3.08

  47  0.222  0.833  0.889-  91 2.09  60 2.09  61 2.14  55 2.14 108 2.14  96 2.14
  48  0.448  0.168  0.779-  93 2.07  92 2.17  98 2.17  99 2.17  75 2.20  62 2.22   6 2.95   4 3.09

  49  0.671  0.500  0.669-  77 2.16  76 2.18 101 2.19 100 2.19  82 2.22  95 2.24  11 2.97   6 3.02

  50  0.562  0.833  0.889-  61 2.18  96 2.18  97 2.21  66 2.21  67 2.22 102 2.22  11 2.99   4 2.99

  51  0.777  0.167  0.780-  68 2.24 105 2.26  99 2.26 104 2.27  98 2.27  81 2.27
  52  0.993  0.500  0.669-  83 2.16  88 2.18 101 2.19 106 2.19  82 2.22 107 2.24  12 2.97   8 3.02

  53  0.882  0.833  0.889-  55 2.18 108 2.18 103 2.21  72 2.21  67 2.22 102 2.22  12 2.99   1 2.99

  54  0.107  0.168  0.779-  93 2.07  92 2.17 104 2.17 105 2.17  87 2.20  56 2.22   8 2.95   1 3.09

  55  0.000  0.754  1.000-  47 2.14  29 2.15  53 2.18  12 2.23  16 2.25   3 2.35
  56  0.001  0.252  0.006-   2 1.99  30 2.12  22 2.15  54 2.22  36 2.24  27 2.28
  57  0.889  0.088  0.222-  39 2.15  30 2.17  36 2.18   1 2.23  17 2.24   7 2.37
  58  0.892  0.586  0.219-   3 2.02  18 2.17  40 2.19  37 2.19  28 2.20  16 2.22
  59  0.111  0.420  0.110-  28 2.17  31 2.17  22 2.20   2 2.20   5 2.20  40 2.21
  60  0.109  0.902  0.116-  47 2.09  32 2.09  29 2.09   7 2.47   1 2.50   4 2.50
  61  0.333  0.754  1.000-  47 2.14  32 2.15  50 2.18  11 2.23  13 2.25   3 2.35
  62  0.326  0.252  0.006-   5 1.99  30 2.12  22 2.15  48 2.22  33 2.24  24 2.28
  63  0.223  0.088  0.222-  42 2.15  30 2.17  33 2.18   4 2.23  21 2.24   7 2.37
  64  0.221  0.586  0.219-   3 2.02  20 2.17  40 2.19  43 2.19  31 2.20  13 2.22
  65  0.436  0.413  0.119-   5 1.93  15 2.14  43 2.15  31 2.17  24 2.20  34 2.27
  66  0.440  0.921  0.109-   4 1.94  21 2.16  14 2.17  32 2.18  50 2.21  35 2.23
  67  0.667  0.741  1.000-  16 2.04  13 2.04  25 2.09  53 2.22  50 2.22  35 2.25
  68  0.665  0.257  0.003-  15 2.00  27 2.06  24 2.06  36 2.19  33 2.19  51 2.24
  69  0.555  0.075  0.223-  17 2.05  21 2.05  14 2.11  45 2.19  36 2.22  33 2.22
  70  0.552  0.587  0.230-   9 1.91  13 2.14  16 2.14  37 2.15  43 2.15  34 2.27
  71  0.779  0.413  0.119-   2 1.93  15 2.14  37 2.15  28 2.17  27 2.20  34 2.27
  72  0.784  0.921  0.109-   1 1.94  17 2.16  14 2.17  29 2.18  53 2.21  35 2.23
  73  0.663  0.746  0.337-   9 2.00  16 2.16  38 2.17  29 2.18  18 2.20  35 2.23
  74  0.666  0.247  0.332-  45 2.16  36 2.16  39 2.19  15 2.22   2 2.22   6 2.34
  75  0.552  0.081  0.558-  10 2.02  17 2.17  45 2.19  39 2.19  48 2.20  23 2.22
  76  0.556  0.579  0.556-  37 2.15  46 2.17  49 2.18  11 2.23  18 2.24   9 2.37
  77  0.778  0.419  0.445-  40 2.16  49 2.16  37 2.19  19 2.22   6 2.22   2 2.34
  78  0.782  0.920  0.441-   7 2.00  23 2.16  29 2.17  38 2.18  17 2.20  41 2.23
  79  0.004  0.747  0.326-   3 1.92  18 2.15  20 2.15  29 2.19  32 2.19  41 2.27
  80  0.998  0.244  0.336-  39 2.14  42 2.14  30 2.15  19 2.30   2 2.40   5 2.40
  81  0.893  0.080  0.548-   7 1.91  23 2.14  26 2.14  39 2.15  42 2.15  51 2.27
  82  0.889  0.592  0.555-  18 2.05  20 2.05  25 2.11  40 2.19  49 2.22  52 2.22
  83  0.110  0.419  0.445-  40 2.16  52 2.16  43 2.19  19 2.22   8 2.22   5 2.34
  84  0.111  0.920  0.441-   7 2.00  26 2.16  32 2.17  44 2.18  21 2.20  41 2.23
  85  0.334  0.746  0.337-   9 2.00  13 2.16  44 2.17  32 2.18  20 2.20  35 2.23
  86  0.335  0.247  0.332-  45 2.16  33 2.16  42 2.19  15 2.22   5 2.22   8 2.34
  87  0.223  0.081  0.558-  10 2.02  21 2.17  45 2.19  42 2.19  54 2.20  26 2.22
  88  0.222  0.579  0.556-  43 2.15  46 2.17  52 2.18  12 2.23  20 2.24   9 2.37
  89  0.446  0.423  0.441-  37 2.14  43 2.14  46 2.15  15 2.30   6 2.40   8 2.40
  90  0.441  0.920  0.452-  10 1.92  21 2.15  17 2.15  38 2.19  44 2.19  35 2.27
  91  0.336  0.765  0.662-  47 2.09  44 2.09  38 2.09   9 2.47  11 2.50  12 2.50
  92  0.333  0.247  0.667-  48 2.17  54 2.17  22 2.20   6 2.20   8 2.20  45 2.21
  93  0.225  0.097  0.883-  48 2.07  54 2.07  30 2.09  10 2.45   4 2.49   1 2.49
  94  0.219  0.569  0.895-  28 2.07  31 2.07  46 2.09   3 2.45  12 2.49  11 2.49
  95  0.443  0.415  0.772-   6 1.99  46 2.12  22 2.15  31 2.22  49 2.24  24 2.28
  96  0.444  0.912  0.778-  47 2.14  38 2.15  50 2.18   4 2.23  23 2.25  10 2.35
  97  0.660  0.746  0.668-  11 1.94  18 2.16  25 2.17  38 2.18  50 2.21  41 2.23
  98  0.666  0.253  0.659-   6 1.93  19 2.14  39 2.15  48 2.17  24 2.20  51 2.27
  99  0.549  0.079  0.891-   4 1.92  23 2.16  14 2.17  48 2.17  33 2.19  51 2.26
 100  0.551  0.588  0.887-  11 1.92  13 2.16  25 2.17  31 2.17  49 2.19  34 2.26
 101  0.779  0.409  0.775-  19 2.00  27 2.06  24 2.06  49 2.19  52 2.19  34 2.24
 102  0.778  0.926  0.778-  26 2.04  23 2.04  14 2.09  53 2.22  50 2.22  41 2.25
 103  0.005  0.746  0.668-  12 1.94  20 2.16  25 2.17  44 2.18  53 2.21  41 2.23
 104  0.009  0.253  0.659-   8 1.93  19 2.14  42 2.15  54 2.17  27 2.20  51 2.27
 105  0.894  0.079  0.891-   1 1.92  26 2.16  14 2.17  54 2.17  36 2.19  51 2.26
 106  0.895  0.588  0.887-  12 1.92  16 2.16  25 2.17  28 2.17  52 2.19  34 2.26
 107  0.119  0.415  0.772-   8 1.99  46 2.12  22 2.15  28 2.22  52 2.24  27 2.28
 108  0.111  0.912  0.778-  47 2.14  44 2.15  53 2.18   1 2.23  26 2.25  10 2.35
 
  LATTYP: Found a base centered monoclinic cell.
 ALAT       =    16.0255453435
 B/A-ratio  =     0.5765064549
 C/A-ratio  =     1.3703463718
 COS(beta)  =    -0.6314053964
  
  Lattice vectors:
  
 A1 = (   4.6194151174,  -0.0054044096,   8.0127708492)
 A2 = (  -4.6194152157,  -0.0054044096,   8.0127708492)
 A3 = (   0.0000000982, -15.0257550026, -16.0153785909)


Analysis of symmetry for initial positions (statically):
=====================================================================
 Subroutine PRICEL returns:
 Original cell was already a primitive cell.
 

 Routine SETGRP: Setting up the symmetry group for a 
 base centered monoclinic supercell.


 Subroutine GETGRP returns: Found  4 space group operations
 (whereof  1 operations were pure point group operations)
 out of a pool of  4 trial point group operations.


The static configuration has the point symmetry C_1 .
 The point group associated with its full space group is C_2h.


Analysis of symmetry for dynamics (positions and initial velocities):
=====================================================================
 Subroutine PRICEL returns:
 Original cell was already a primitive cell.
 

 Routine SETGRP: Setting up the symmetry group for a 
 base centered monoclinic supercell.


 Subroutine GETGRP returns: Found  4 space group operations
 (whereof  1 operations were pure point group operations)
 out of a pool of  4 trial point group operations.


The dynamic configuration has the point symmetry C_1 .
 The point group associated with its full space group is C_2h.


Analysis of structural, dynamic, and magnetic symmetry:
=====================================================================
 Subroutine PRICEL returns:
 Original cell was already a primitive cell.
 

 Routine SETGRP: Setting up the symmetry group for a 
 base centered monoclinic supercell.


 Subroutine GETGRP returns: Found  4 space group operations
 (whereof  1 operations were pure point group operations)
 out of a pool of  4 trial point group operations.


The magnetic configuration has the point symmetry C_1 .
 The point group associated with its full space group is C_2h.


 Subroutine INISYM returns: Found  4 space group operations
 (whereof  1 operations are pure point group operations),
 and found     1 'primitive' translations

 
 
 KPOINTS: Automatic mesh                          

Automatic generation of k-mesh.
Space group operators:
 irot       det(A)        alpha          n_x          n_y          n_z        tau_x        tau_y        tau_z
    1     1.000000     0.000000     1.000000     0.000000     0.000000     0.000000     0.000000     0.000000
    2    -1.000000     0.000000     1.000000     0.000000     0.000000    -0.555556    -0.333333     0.777778
    3     1.000000   180.000000     1.000000     0.000000     0.000000     0.111111    -0.333333    -0.222222
    4    -1.000000   180.000000     1.000000     0.000000     0.000000    -0.666667     0.000000     1.000000
 
 Subroutine IBZKPT returns following result:
 ===========================================
 
 Found      1 irreducible k-points:
 
 Following reciprocal coordinates:
            Coordinates               Weight
  0.000000  0.000000  0.000000      1.000000
 
 Following cartesian coordinates:
            Coordinates               Weight
  0.000000  0.000000  0.000000      1.000000
 


--------------------------------------------------------------------------------------------------------




 Dimension of arrays:
   k-points           NKPTS =      1   k-points in BZ     NKDIM =      1   number of bands    NBANDS=    432
   number of dos      NEDOS =    301   number of ions     NIONS =    108
   non local maximal  LDIM  =      6   non local SUM 2l+1 LMDIM =     18
   total plane-waves  NPLWV = 548800
   max r-space proj   IRMAX =   8686   max aug-charges    IRDMAX=  27894
   dimension x,y,z NGX =    70 NGY =  112 NGZ =   70
   dimension x,y,z NGXF=   140 NGYF=  224 NGZF=  140
   support grid    NGXF=   140 NGYF=  224 NGZF=  140
   ions per type =              12  15  27  54
   NGX,Y,Z   is equivalent  to a cutoff of  12.60, 12.38, 12.58 a.u.
   NGXF,Y,Z  is equivalent  to a cutoff of  25.19, 24.77, 25.16 a.u.

 SYSTEM =  unknown system                          
 POSCAR =  ce290209_1                              

 Startparameter for this run:
   NWRITE =      1    write-flag & timer
   PREC   = accura    normal or accurate (medium, high low for compatibility)
   ISTART =      0    job   : 0-new  1-cont  2-samecut
   ICHARG =      2    charge: 1-file 2-atom 10-const
   ISPIN  =      2    spin polarized calculation?
   LNONCOLLINEAR =      F non collinear calculations
   LSORBIT =      F    spin-orbit coupling
   INIWAV =      1    electr: 0-lowe 1-rand  2-diag
   LASPH  =      F    aspherical Exc in radial PAW
   METAGGA=      F    non-selfconsistent MetaGGA calc.

 Electronic Relaxation 1
   ENCUT  =  500.0 eV  36.75 Ry    6.06 a.u.  16.84 27.42 16.86*2*pi/ulx,y,z
   ENINI  =  500.0     initial cutoff
   ENAUG  =  628.9 eV  augmentation charge cutoff
   NELM   =     80;   NELMIN=  2; NELMDL= -5     # of ELM steps 
   EDIFF  = 0.1E-04   stopping-criterion for ELM
   LREAL  =      T    real-space projection
   NLSPLINE    = F    spline interpolate recip. space projectors
   LCOMPAT=      F    compatible to vasp.4.4
   GGA_COMPAT  = T    GGA compatible to vasp.4.4-vasp.4.6
   LMAXPAW     = -100 max onsite density
   LMAXMIX     =    2 max onsite mixed and CHGCAR
   VOSKOWN=      1    Vosko Wilk Nusair interpolation
   ROPT   =   -0.00025  -0.00025  -0.00025  -0.00025
 Ionic relaxation
   EDIFFG = -.2E-01   stopping-criterion for IOM
   NSW    =     20    number of steps for IOM
   NBLOCK =      1;   KBLOCK =     20    inner block; outer block 
   IBRION =      1    ionic relax: 0-MD 1-quasi-New 2-CG
   NFREE  =      0    steps in history (QN), initial steepest desc. (CG)
   ISIF   =      3    stress and relaxation
   IWAVPR =     11    prediction:  0-non 1-charg 2-wave 3-comb
   ISYM   =      2    0-nonsym 1-usesym 2-fastsym
   LCORR  =      T    Harris-Foulkes like correction to forces

   POTIM  = 0.5000    time-step for ionic-motion
   TEIN   =    0.0    initial temperature
   TEBEG  =    0.0;   TEEND  =   0.0 temperature during run
   SMASS  =  -3.00    Nose mass-parameter (am)
   estimated Nose-frequenzy (Omega)   =  0.10E-29 period in steps =****** mass=  -0.195E-26a.u.
   SCALEE = 1.0000    scale energy and forces
   NPACO  =    256;   APACO  = 16.0  distance and # of slots for P.C.
   PSTRESS=    0.0 pullay stress

  Mass of Ions in am
   POMASS = 180.95 58.69  7.01 16.00
  Ionic Valenz
   ZVAL   =  11.00 10.00  3.00  6.00
  Atomic Wigner-Seitz radii
   RWIGS  =   1.34  1.15  1.23  0.73
  virtual crystal weights 
   VCA    =   1.00  1.00  1.00  1.00
   NELECT =     687.0000    total number of electrons
   NUPDOWN=      -1.0000    fix difference up-down

 DOS related values:
   EMIN   =  10.00;   EMAX   =-10.00  energy-range for DOS
   EFERMI =   0.00
   ISMEAR =     0;   SIGMA  =   0.05  broadening in eV -4-tet -1-fermi 0-gaus

 Electronic relaxation 2 (details)
   IALGO  =     38    algorithm
   LDIAG  =      T    sub-space diagonalisation (order eigenvalues)
   LSUBROT=      F    optimize rotation matrix (better conditioning)
   TURBO    =      0    0=normal 1=particle mesh
   IRESTART =      0    0=no restart 2=restart with 2 vectors
   NREBOOT  =      0    no. of reboots
   NMIN     =      0    reboot dimension
   EREF     =   0.00    reference energy to select bands
   IMIX   =      4    mixing-type and parameters
     AMIX     =   0.40;   BMIX     =  1.00
     AMIX_MAG =   1.60;   BMIX_MAG =  1.00
     AMIN     =   0.10
     WC   =   100.;   INIMIX=   1;  MIXPRE=   1;  MAXMIX= -45

 Intra band minimization:
   WEIMIN = 0.0010     energy-eigenvalue tresh-hold
   EBREAK =  0.58E-08  absolut break condition
   DEPER  =   0.30     relativ break condition  

   TIME   =   0.40     timestep for ELM

  volume/ion in A,a.u.               =      10.31        69.55
  Fermi-wavevector in a.u.,A,eV,Ry     =   1.393834  2.633964 26.433032  1.942773
  Thomas-Fermi vector in A             =   2.517442
 
 Write flags
   LWAVE        =      F    write WAVECAR
   LDOWNSAMPLE  =      F    k-point downsampling of WAVECAR
   LCHARG       =      T    write CHGCAR
   LVTOT        =      F    write LOCPOT, total local potential
   LVHAR        =      F    write LOCPOT, Hartree potential only
   LELF         =      F    write electronic localiz. function (ELF)
   LORBIT       =      0    0 simple, 1 ext, 2 COOP (PROOUT), +10 PAW based schemes


 Dipole corrections
   LMONO  =      F    monopole corrections only (constant potential shift)
   LDIPOL =      F    correct potential (dipole corrections)
   IDIPOL =      0    1-x, 2-y, 3-z, 4-all directions 
   EPSILON=  1.0000000 bulk dielectric constant

 Exchange correlation treatment:
   GGA     =    PS    GGA type
   LEXCH   =    14    internal setting for exchange type
   VOSKOWN=      1    Vosko Wilk Nusair interpolation
   LHFCALC =     F    Hartree Fock is set to
   LHFONE  =     F    Hartree Fock one center treatment
   AEXX    =    0.0000 exact exchange contribution

 Linear response parameters
   LEPSILON=     F    determine dielectric tensor
   LRPA    =     F    only Hartree local field effects (RPA)
   LNABLA  =     F    use nabla operator in PAW spheres
   LVEL    =     F    velocity operator in full k-point grid
   LINTERFAST=   F  fast interpolation
   KINTER  =     0    interpolate to denser k-point grid
   CSHIFT  =0.1000    complex shift for real part using Kramers Kronig
   OMEGAMAX=  -1.0    maximum frequency
   DEG_THRESHOLD= 0.2000000E-02 threshold for treating states as degnerate
   RTIME   =   -0.100 relaxation time in fs
  (WPLASMAI=    0.000 imaginary part of plasma frequency in eV, 0.658/RTIME)
   DFIELD  = 0.0000000 0.0000000 0.0000000 field for delta impulse in time
 
 Orbital magnetization related:
   ORBITALMAG=     F  switch on orbital magnetization
   LCHIMAG   =     F  perturbation theory with respect to B field
   DQ        =  0.001000  dq finite difference perturbation B field
   LLRAUG    =     F  two centre corrections for induced B field



--------------------------------------------------------------------------------------------------------


 quasi-Newton-method for relaxation of ions
 charge density and potential will be updated during run
 spin polarized calculation
 Variant of blocked Davidson
 Davidson routine will perform the subspace rotation
 perform sub-space diagonalisation
    after iterative eigenvector-optimisation
 modified Broyden-mixing scheme, WC =      100.0
 initial mixing is a Kerker type mixing with AMIX =  0.4000 and BMIX =      1.0000
 Hartree-type preconditioning will be used
 using additional bands           88
 real space projection scheme for non local part
 use partial core corrections
 calculate Harris-corrections to forces 
   (improved forces if not selfconsistent)
 use gradient corrections 
 use of overlap-Matrix (Vanderbilt PP)
 Gauss-broadening in eV      SIGMA  =   0.05


--------------------------------------------------------------------------------------------------------


  energy-cutoff  :      500.00
  volume of cell :     1113.14
      direct lattice vectors                 reciprocal lattice vectors
     9.238830333  0.000000000  0.000000000     0.108238810 -0.000042176 -0.062400415
     0.000000000 15.036563822 -0.010163107     0.000000000  0.066504586  0.000044856
     4.619415117 -0.005404410  8.012770849     0.000000000  0.000084352  0.124800830

  length of vectors
     9.238830333 15.036567256  9.248974101     0.124937798  0.066504601  0.124800859


 
 k-points in units of 2pi/SCALE and weight: Automatic mesh                          
   0.00000000  0.00000000  0.00000000       1.000
 
 k-points in reciprocal lattice and weights: Automatic mesh                          
   0.00000000  0.00000000  0.00000000       1.000
 
 position of ions in fractional coordinates (direct lattice) 
   0.97390550  0.00039151  0.99978298
   0.88830643  0.33474197  0.20003516
   0.09520416  0.66418185  0.14292502
   0.35964485  0.00039151  0.99978298
   0.24499175  0.33474197  0.20003516
   0.55613801  0.33192469  0.57774262
   0.98303474  0.99685891  0.36726384
   0.19945269  0.33192469  0.57774262
   0.46140971  0.66980776  0.41051393
   0.34924028  0.00248482  0.63485276
   0.47053894  0.66627516  0.77799480
   0.08479959  0.66627516  0.77799480
   0.45202731  0.66816919  0.11010165
   0.66694489  0.99994326  0.99944357
   0.56141757  0.33165124  0.21049821
   0.77120438  0.66816919  0.11010165
   0.66067031  0.00116814  0.33242137
   0.78377414  0.66549853  0.44535640
   0.88302687  0.33501542  0.56727957
   0.10420280  0.66549853  0.44535640
   0.34024166  0.00116814  0.33242137
   0.22222222  0.33333333  0.88888889
   0.67324006  0.99849748  0.66767613
   0.56615592  0.33333333  0.88888889
   0.77749956  0.66672341  0.77833421
   0.99241714  0.99849748  0.66767613
   0.87828852  0.33333333  0.88888889
   0.99689336  0.49874557  0.99888913
   0.88288972  0.83212682  0.22585117
   0.11260923  0.16854284  0.10811486
   0.33755084  0.49874557  0.99888913
   0.22459244  0.83212682  0.22585117
   0.45158516  0.16650416  0.10877625
   0.66775759  0.49973576  0.99781816
   0.55743254  0.83451528  0.21846827
   0.77297193  0.16650416  0.10877625
   0.66868878  0.50178324  0.32906711
   0.56155472  0.83453984  0.55192661
   0.77575567  0.16488343  0.44871066
   0.99731668  0.50282874  0.33869997
   0.88701190  0.83215138  0.55930951
   0.10886702  0.16488343  0.44871066
   0.33557744  0.50178324  0.32906711
   0.21985200  0.83453984  0.55192661
   0.44712777  0.16383793  0.43907780
   0.33183521  0.49812383  0.66966292
   0.22222222  0.83333333  0.88888889
   0.44755108  0.16792110  0.77888865
   0.67147251  0.50016251  0.66900153
   0.56223669  0.83333333  0.88888889
   0.77668686  0.16693091  0.77995962
   0.99285929  0.50016251  0.66900153
   0.88220775  0.83333333  0.88888889
   0.10689360  0.16792110  0.77888865
   0.00028685  0.75446070  0.99967884
   0.00146311  0.25213583  0.00606717
   0.88850750  0.08792653  0.22211179
   0.89244557  0.58585202  0.21943780
   0.11145987  0.41960566  0.11041358
   0.10870337  0.90196377  0.11592659
   0.33336764  0.75446070  0.99967884
   0.32580304  0.25213583  0.00606717
   0.22271404  0.08792653  0.22211179
   0.22144996  0.58585202  0.21943780
   0.43561111  0.41323612  0.11889243
   0.43983731  0.92104733  0.10935437
   0.66686792  0.74073361  0.99959750
   0.66524148  0.25724562  0.00285039
   0.55529789  0.07495102  0.22273757
   0.55171387  0.58674340  0.22990560
   0.77882980  0.41323612  0.11889243
   0.78414166  0.92104733  0.10935437
   0.66282754  0.74624167  0.33686980
   0.66626566  0.24735191  0.33229393
   0.55199887  0.08081464  0.55833998
   0.55593694  0.57874013  0.55566599
   0.77817879  0.41931476  0.44548384
   0.78161691  0.92042500  0.44090797
   0.00373895  0.74674759  0.32585543
   0.99844490  0.24387921  0.33644353
   0.89273057  0.07992326  0.54787218
   0.88914655  0.59171564  0.55504021
   0.10967071  0.41931476  0.44548384
   0.11080846  0.92042500  0.44090797
   0.33363600  0.74624167  0.33686980
   0.33477375  0.24735191  0.33229393
   0.22299448  0.08081464  0.55833998
   0.22173040  0.57874013  0.55566599
   0.44599955  0.42278746  0.44133424
   0.44070550  0.91991908  0.45192234
   0.33574107  0.76470290  0.66185119
   0.33298457  0.24706101  0.66736420
   0.22507987  0.09736920  0.88317360
   0.21936457  0.56929746  0.89460418
   0.44298133  0.41453084  0.77171061
   0.44415759  0.91220597  0.77809894
   0.66030278  0.74561934  0.66842341
   0.66561464  0.25343055  0.65888535
   0.54895683  0.07860690  0.89079652
   0.55086446  0.58805976  0.88698126
   0.77920297  0.40942105  0.77492739
   0.77757653  0.92593306  0.77818028
   0.00460714  0.74561934  0.66842341
   0.00883334  0.25343055  0.65888535
   0.89357998  0.07860690  0.89079652
   0.89548761  0.58805976  0.88698126
   0.11864140  0.41453084  0.77171061
   0.11107680  0.91220597  0.77809894
 
 position of ions in cartesian coordinates  (Angst):
  13.61616029  0.00048373  8.01102794
   9.13095783  5.03228792  1.59943388
   1.53980508  9.98624035  1.13847528
   7.94111036  0.00048373  8.01102794
   3.18748265  5.03228792  1.59943388
   7.80689771  4.98788443  4.62594584
  10.77863531 14.98734778  2.93266981
   4.51154256  4.98788443  4.62594584
   6.15922028 10.06938855  3.28254672
   6.15922013  0.03393215  5.08690444
   7.94111037 10.01428436  6.22712263
   4.37732996 10.01428436  6.22712263
   4.68480885 10.04637363  0.87542862
  10.77863542 15.03030924  7.99814977
   6.15922029  4.98575742  1.68330331
   7.63363165 10.04637363  0.87542862
   7.63941320  0.01576827  2.66360439
   9.29844239 10.00440423  3.56177525
  10.77863525  5.03441493  4.54207640
   3.01999808 10.00440423  3.56177525
   4.67902727  0.01576827  2.66360439
   6.15922016  5.00738397  7.11907528
   9.30422390 15.01036269  5.33978799
   9.33676526  5.00738397  7.11907528
  10.77863533 10.02102267  6.22983769
  12.25304678 15.01036269  5.33978799
  12.22050540  5.00738397  7.11907528
  13.82441216  7.49402119  7.99880090
   9.20016863 12.51110744  1.80123668
   1.53980499  2.53372087  0.86458668
   7.73285849  7.49402119  7.99880090
   3.11827176 12.51110744  1.80123668
   4.67460133  2.50306256  0.86990697
  10.77863537  7.50891603  7.99020940
   6.15922029 12.54706158  1.74205492
   7.64383917  2.50306256  0.86990697
   7.69799977  7.54331730  2.63163967
   7.73768691 12.54562873  4.41397993
   9.23985582  2.47685520  3.59373997
  10.77863536  7.55898597  2.70881494
  10.77863525 12.50967460  4.47316169
   3.07858473  2.47685520  3.59373997
   4.62044061  7.54331730  2.63163967
   4.58075345 12.54562873  4.41397993
   6.15922023  2.46118653  3.51656469
   6.15922022  7.48645163  5.36079304
   6.15922016 12.52566588  7.11399373
   7.73285850  2.52074690  6.23934967
   9.29401637  7.51710994  5.35547275
   9.30055616 12.52566588  7.11399373
  10.77863538  2.50585206  6.24794117
  12.26325431  7.51710994  5.35547275
  12.25671450 12.52566588  7.11399373
   4.58558184  2.52074690  6.23934967
   4.62058170 11.33909379  8.00252980
   0.04154420  3.79122371  0.04605236
   9.23479660  1.32091250  1.77883727
   9.25882749  8.80801536  1.75235073
   1.53980499  6.30883057  0.88045422
   1.53980503 13.56180928  0.91972645
   7.69785861 11.33909379  8.00252980
   3.03806579  3.79122371  0.04605236
   3.08364379  1.32091250  1.77883727
   3.05961290  8.80801536  1.75235073
   4.57375062  6.21300875  0.94845803
   4.56873551 13.84879596  0.86687081
  10.77863537 11.13268597  8.00201755
   6.15922030  3.86807478  0.02022511
   6.15922029  1.12580203  1.78398337
   6.15922024  8.82136208  1.83621775
   7.74468987  6.21300875  0.94845803
   7.74970498 13.84879596  0.86687081
   7.67989263 11.21908992  2.69167638
   7.69051899  3.71752693  2.66008125
   7.67902805  1.21215699  4.47302899
   7.70305894  8.69925985  4.44654245
   9.24733659  6.30264557  3.56529839
   9.25796296 13.83764641  3.52354015
   1.53980502 11.22675674  2.60341561
  10.77863536  3.66528703  2.69336634
  10.77863530  1.19881027  4.38916196
  10.77863525  8.89437032  4.44139635
   3.07110387  6.30264557  3.56529839
   3.06047750 13.83764641  3.52354015
   4.63854784 11.21908992  2.69167638
   4.62792148  3.71752693  2.66008125
   4.63941231  1.21215699  4.47302899
   4.61538142  8.69925985  4.44654245
   6.15922023  6.35488547  3.53201330
   6.15922023 13.82997958  3.61180092
   6.15922017 11.49492705  5.29549016
   6.15922022  3.71134194  5.34492550
   6.15922021  1.45932516  7.07567810
   6.15922012  8.55544278  7.16247246
   7.65748101  6.22894879  6.17932736
   7.69785862 13.71223812  6.22545766
   9.18815056 11.20794036  5.34834581
   9.19316567  3.80716375  5.27692168
   9.18667792  1.17716344  7.13694950
   9.18667792  8.83760450  7.10120107
  10.77863534  6.15209772  6.20515461
  10.77863538 13.91864595  6.22596991
   3.13028979 11.20794036  5.34834581
   3.12527468  3.80716375  5.27692168
  12.37059274  1.17716344  7.13694950
  12.37059274  8.83760450  7.10120107
   4.66095942  6.22894879  6.17932736
   4.62058172 13.71223812  6.22545766
 


--------------------------------------------------------------------------------------------------------


 use serial FFT for orbitals x direction half grid
 k-point  1 :   0.0000 0.0000 0.0000  plane waves:   14146

 maximum and minimum number of plane-waves per node :     14146    14146

 maximum number of plane-waves:     14146
 maximum index in each direction: 
   IXMAX=   16   IYMAX=   27   IZMAX=   16
   IXMIN=    0   IYMIN=  -27   IZMIN=  -14

 The following grids will avoid any aliasing or wrap around errors in the Hartre
 e energy
  - symmetry arguments have not been applied
  - exchange correlation energies might require even more grid points
  - we recommend to set PREC=Normal or Accurate and rely on VASP defaults
 NGX is ok and might be reduce to    70
 NGY is ok and might be reduce to   112
 NGZ is ok and might be reduce to    64

 serial   3D FFT for wavefunctions
 parallel 3D FFT for charge:
    minimum data exchange during FFTs selected (reduces bandwidth)


 total amount of memory used by VASP MPI-rank0   172136. kBytes
=======================================================================

   base      :      30000. kBytes
   nonlr-proj:      44378. kBytes
   fftplans  :      11817. kBytes
   grid      :      71572. kBytes
   one-center:       1679. kBytes
   wavefun   :      12690. kBytes
 
     INWAV:  cpu time    0.0000: real time    0.0000
 Broyden mixing: mesh for mixing (old mesh)
   NGX = 33   NGY = 55   NGZ = 33
  (NGX  =140   NGY  =224   NGZ  =140)
  gives a total of  59895 points

 initial charge density was supplied:
 charge density of overlapping atoms calculated
 number of electron     687.0000000 magnetization      37.5000000
 keeping initial charge density in first step


--------------------------------------------------------------------------------------------------------


 Maximum index for non-local projection operator         8396
 Maximum index for augmentation-charges         1994 (set IRDMAX)


--------------------------------------------------------------------------------------------------------


 First call to EWALD:  gamma=   0.171
 Maximum number of real-space cells 3x 2x 3
 Maximum number of reciprocal cells 3x 4x 3

    FEWALD:  cpu time    0.0049: real time    0.0049


--------------------------------------- Iteration      1(   1)  ---------------------------------------


    POTLOK:  cpu time    0.3945: real time    0.3998
    SETDIJ:  cpu time    0.0432: real time    0.0433
     EDDAV:  cpu time    7.0558: real time    7.0883
    --------------------------------------------
      LOOP:  cpu time    7.4940: real time    7.5320

 eigenvalue-minimisations  :  1776
 total energy-change (2. order) : 0.1123377E+05  (-0.3418672E+05)
 number of electron     687.0000000 magnetization      37.5000000
 augmentation part      687.0000000 magnetization      37.5000000

 Free energy of the ion-electron system (eV)
  ---------------------------------------------------
  alpha Z        PSCENC =      2915.35152704
  Ewald energy   TEWEN  =    -42816.02974957
  -Hartree energ DENC   =    -14169.16680765
  -exchange      EXHF   =         0.00000000
  -V(xc)+E(xc)   XCENC  =      2624.92798371
  PAW double counting   =     45116.95700157   -46413.98586228
  entropy T*S    EENTRO =        -0.00624528
  eigenvalues    EBANDS =      6562.82559316
  atomic energy  EATOM  =     57412.89542408
  Solvation  Ediel_sol  =         0.00000000
  ---------------------------------------------------
  free energy    TOTEN  =     11233.76886479 eV

  energy without entropy =    11233.77511007  energy(sigma->0) =    11233.77198743


--------------------------------------------------------------------------------------------------------




--------------------------------------- Iteration      1(   2)  ---------------------------------------


     EDDAV:  cpu time    8.5899: real time    8.6103
    --------------------------------------------
      LOOP:  cpu time    8.5898: real time    8.6102

 eigenvalue-minimisations  :  1792
 total energy-change (2. order) :-0.9635823E+04  (-0.9082611E+04)
 number of electron     687.0000000 magnetization      37.5000000
 augmentation part      687.0000000 magnetization      37.5000000

 Free energy of the ion-electron system (eV)
  ---------------------------------------------------
  alpha Z        PSCENC =      2915.35152704
  Ewald energy   TEWEN  =    -42816.02974957
  -Hartree energ DENC   =    -14169.16680765
  -exchange      EXHF   =         0.00000000
  -V(xc)+E(xc)   XCENC  =      2624.92798371
  PAW double counting   =     45116.95700157   -46413.98586228
  entropy T*S    EENTRO =        -0.02597629
  eigenvalues    EBANDS =     -3072.97817230
  atomic energy  EATOM  =     57412.89542408
  Solvation  Ediel_sol  =         0.00000000
  ---------------------------------------------------
  free energy    TOTEN  =      1597.94536831 eV

  energy without entropy =     1597.97134461  energy(sigma->0) =     1597.95835646


--------------------------------------------------------------------------------------------------------




--------------------------------------- Iteration      1(   3)  ---------------------------------------


     EDDAV:  cpu time    9.2294: real time    9.2512
    --------------------------------------------
      LOOP:  cpu time    9.2294: real time    9.2513

 eigenvalue-minimisations  :  1984
 total energy-change (2. order) :-0.2155585E+04  (-0.1909456E+04)
 number of electron     687.0000000 magnetization      37.5000000
 augmentation part      687.0000000 magnetization      37.5000000

 Free energy of the ion-electron system (eV)
  ---------------------------------------------------
  alpha Z        PSCENC =      2915.35152704
  Ewald energy   TEWEN  =    -42816.02974957
  -Hartree energ DENC   =    -14169.16680765
  -exchange      EXHF   =         0.00000000
  -V(xc)+E(xc)   XCENC  =      2624.92798371
  PAW double counting   =     45116.95700157   -46413.98586228
  entropy T*S    EENTRO =        -0.08288538
  eigenvalues    EBANDS =     -5228.50675527
  atomic energy  EATOM  =     57412.89542408
  Solvation  Ediel_sol  =         0.00000000
  ---------------------------------------------------
  free energy    TOTEN  =      -557.64012375 eV

  energy without entropy =     -557.55723837  energy(sigma->0) =     -557.59868106


--------------------------------------------------------------------------------------------------------




--------------------------------------- Iteration      1(   4)  ---------------------------------------


     EDDAV:  cpu time    9.0554: real time    9.0768
    --------------------------------------------
      LOOP:  cpu time    9.0553: real time    9.0768

 eigenvalue-minimisations  :  2240
 total energy-change (2. order) :-0.3327736E+03  (-0.3199102E+03)
 number of electron     687.0000000 magnetization      37.5000000
 augmentation part      687.0000000 magnetization      37.5000000

 Free energy of the ion-electron system (eV)
  ---------------------------------------------------
  alpha Z        PSCENC =      2915.35152704
  Ewald energy   TEWEN  =    -42816.02974957
  -Hartree energ DENC   =    -14169.16680765
  -exchange      EXHF   =         0.00000000
  -V(xc)+E(xc)   XCENC  =      2624.92798371
  PAW double counting   =     45116.95700157   -46413.98586228
  entropy T*S    EENTRO =        -0.03582808
  eigenvalues    EBANDS =     -5561.32743243
  atomic energy  EATOM  =     57412.89542408
  Solvation  Ediel_sol  =         0.00000000
  ---------------------------------------------------
  free energy    TOTEN  =      -890.41374361 eV

  energy without entropy =     -890.37791553  energy(sigma->0) =     -890.39582957


--------------------------------------------------------------------------------------------------------




--------------------------------------- Iteration      1(   5)  ---------------------------------------


     EDDAV:  cpu time   13.2509: real time   13.2822
    CHARGE:  cpu time    0.4898: real time    0.4910
    MIXING:  cpu time    0.0073: real time    0.0121
    --------------------------------------------
      LOOP:  cpu time   13.7475: real time   13.7850

 eigenvalue-minimisations  :  3152
 total energy-change (2. order) :-0.2642183E+02  (-0.2586367E+02)
 number of electron     687.0000004 magnetization      36.6129380
 augmentation part      185.5773929 magnetization      29.8444109

 Broyden mixing:
  rms(total) = 0.11228E+02    rms(broyden)= 0.11226E+02
  rms(prec ) = 0.12438E+02
  weight for this iteration     100.00

 Free energy of the ion-electron system (eV)
  ---------------------------------------------------
  alpha Z        PSCENC =      2915.35152704
  Ewald energy   TEWEN  =    -42816.02974957
  -Hartree energ DENC   =    -14169.16680765
  -exchange      EXHF   =         0.00000000
  -V(xc)+E(xc)   XCENC  =      2624.92798371
  PAW double counting   =     45116.95700157   -46413.98586228
  entropy T*S    EENTRO =        -0.03841168
  eigenvalues    EBANDS =     -5587.74667890
  atomic energy  EATOM  =     57412.89542408
  Solvation  Ediel_sol  =         0.00000000
  ---------------------------------------------------
  free energy    TOTEN  =      -916.83557368 eV

  energy without entropy =     -916.79716200  energy(sigma->0) =     -916.81636784


--------------------------------------------------------------------------------------------------------




--------------------------------------- Iteration      1(   6)  ---------------------------------------


    POTLOK:  cpu time    0.3080: real time    0.3088
    SETDIJ:  cpu time    0.0421: real time    0.0422
     EDDAV:  cpu time    9.4241: real time    9.4465
    CHARGE:  cpu time    0.7100: real time    0.7116
    MIXING:  cpu time    0.0081: real time    0.0081
    --------------------------------------------
      LOOP:  cpu time   10.4923: real time   10.5172

 eigenvalue-minimisations  :  2544
 total energy-change (2. order) : 0.2067441E+02  (-0.1385164E+03)
 number of electron     686.9999995 magnetization      34.0913494
 augmentation part      212.9491707 magnetization      29.7902229

 Broyden mixing:
  rms(total) = 0.16125E+02    rms(broyden)= 0.16123E+02
  rms(prec ) = 0.16987E+02
  weight for this iteration     100.00

 eigenvalues of (default mixing * dielectric matrix)
  average eigenvalue GAMMA=   0.2701
  0.2701

 Free energy of the ion-electron system (eV)
  ---------------------------------------------------
  alpha Z        PSCENC =      2915.35152704
  Ewald energy   TEWEN  =    -42816.02974957
  -Hartree energ DENC   =    -13980.48416930
  -exchange      EXHF   =         0.00000000
  -V(xc)+E(xc)   XCENC  =      2653.46654420
  PAW double counting   =     52500.56960839   -53667.33188462
  entropy T*S    EENTRO =        -0.06989782
  eigenvalues    EBANDS =     -5914.52856900
  atomic energy  EATOM  =     57412.89542408
  Solvation  Ediel_sol  =         0.00000000
  ---------------------------------------------------
  free energy    TOTEN  =      -896.16116660 eV

  energy without entropy =     -896.09126878  energy(sigma->0) =     -896.12621769


--------------------------------------------------------------------------------------------------------




--------------------------------------- Iteration      1(   7)  ---------------------------------------


    POTLOK:  cpu time    0.3768: real time    0.3777
    SETDIJ:  cpu time    0.0446: real time    0.0447
     EDDAV:  cpu time   10.7953: real time   10.8209
    CHARGE:  cpu time    0.5739: real time    0.5753
    MIXING:  cpu time    0.0069: real time    0.0069
    --------------------------------------------
      LOOP:  cpu time   11.7976: real time   11.8255

 eigenvalue-minimisations  :  2464
 total energy-change (2. order) : 0.1191650E+03  (-0.3284412E+02)
 number of electron     686.9999996 magnetization      31.6609468
 augmentation part      199.0831285 magnetization      24.0357185

 Broyden mixing:
  rms(total) = 0.52367E+01    rms(broyden)= 0.52356E+01
  rms(prec ) = 0.55746E+01
  weight for this iteration     100.00

 eigenvalues of (default mixing * dielectric matrix)
  average eigenvalue GAMMA=   0.6386
  0.7992  0.4780

 Free energy of the ion-electron system (eV)
  ---------------------------------------------------
  alpha Z        PSCENC =      2915.35152704
  Ewald energy   TEWEN  =    -42816.02974957
  -Hartree energ DENC   =    -14186.68003566
  -exchange      EXHF   =         0.00000000
  -V(xc)+E(xc)   XCENC  =      2645.26507094
  PAW double counting   =     55184.22738361   -56486.80122094
  entropy T*S    EENTRO =        -0.07372993
  eigenvalues    EBANDS =     -5445.15083924
  atomic energy  EATOM  =     57412.89542408
  Solvation  Ediel_sol  =         0.00000000
  ---------------------------------------------------
  free energy    TOTEN  =      -776.99616967 eV

  energy without entropy =     -776.92243974  energy(sigma->0) =     -776.95930471


--------------------------------------------------------------------------------------------------------




--------------------------------------- Iteration      1(   8)  ---------------------------------------


    POTLOK:  cpu time    0.3143: real time    0.3151
    SETDIJ:  cpu time    0.0438: real time    0.0439
     EDDAV:  cpu time    8.6042: real time    8.6247
    CHARGE:  cpu time    0.7057: real time    0.7074
    MIXING:  cpu time    0.0092: real time    0.0092
    --------------------------------------------
      LOOP:  cpu time    9.6772: real time    9.7003

 eigenvalue-minimisations  :  2416
 total energy-change (2. order) :-0.4097268E+02  (-0.1970567E+02)
 number of electron     687.0000000 magnetization      30.7692135
 augmentation part      186.9669025 magnetization      24.5308737

 Broyden mixing:
  rms(total) = 0.91327E+01    rms(broyden)= 0.91321E+01
  rms(prec ) = 0.10796E+02
  weight for this iteration     100.00

 eigenvalues of (default mixing * dielectric matrix)
  average eigenvalue GAMMA=   0.5655
  1.0422  0.3958  0.2584

 Free energy of the ion-electron system (eV)
  ---------------------------------------------------
  alpha Z        PSCENC =      2915.35152704
  Ewald energy   TEWEN  =    -42816.02974957
  -Hartree energ DENC   =    -14160.63937747
  -exchange      EXHF   =         0.00000000
  -V(xc)+E(xc)   XCENC  =      2640.32663369
  PAW double counting   =     59571.85435371   -60939.74905854
  entropy T*S    EENTRO =        -0.05255320
  eigenvalues    EBANDS =     -5441.92605330
  atomic energy  EATOM  =     57412.89542408
  Solvation  Ediel_sol  =         0.00000000
  ---------------------------------------------------
  free energy    TOTEN  =      -817.96885356 eV

  energy without entropy =     -817.91630036  energy(sigma->0) =     -817.94257696


--------------------------------------------------------------------------------------------------------




--------------------------------------- Iteration      1(   9)  ---------------------------------------


    POTLOK:  cpu time    0.3745: real time    0.3754
    SETDIJ:  cpu time    0.0445: real time    0.0446
     EDDAV:  cpu time   10.5202: real time   10.5452
    CHARGE:  cpu time    0.6480: real time    0.6495
    MIXING:  cpu time    0.0090: real time    0.0091
    --------------------------------------------
      LOOP:  cpu time   11.5963: real time   11.6238

 eigenvalue-minimisations  :  2320
 total energy-change (2. order) : 0.4065412E+02  (-0.6536797E+01)
 number of electron     686.9999998 magnetization      29.2789265
 augmentation part      192.1160619 magnetization      21.7017664

 Broyden mixing:
  rms(total) = 0.33677E+01    rms(broyden)= 0.33666E+01
  rms(prec ) = 0.38531E+01
  weight for this iteration     100.00

 eigenvalues of (default mixing * dielectric matrix)
  average eigenvalue GAMMA=   0.6398
  1.4144  0.4875  0.4875  0.1697

 Free energy of the ion-electron system (eV)
  ---------------------------------------------------
  alpha Z        PSCENC =      2915.35152704
  Ewald energy   TEWEN  =    -42816.02974957
  -Hartree energ DENC   =    -14092.01419409
  -exchange      EXHF   =         0.00000000
  -V(xc)+E(xc)   XCENC  =      2635.93783832
  PAW double counting   =     60792.81168206   -62157.47016441
  entropy T*S    EENTRO =        -0.09345195
  eigenvalues    EBANDS =     -5468.70364384
  atomic energy  EATOM  =     57412.89542408
  Solvation  Ediel_sol  =         0.00000000
  ---------------------------------------------------
  free energy    TOTEN  =      -777.31473236 eV

  energy without entropy =     -777.22128041  energy(sigma->0) =     -777.26800638


--------------------------------------------------------------------------------------------------------




--------------------------------------- Iteration      1(  10)  ---------------------------------------


    POTLOK:  cpu time    0.3448: real time    0.3456
    SETDIJ:  cpu time    0.0434: real time    0.0435
     EDDAV:  cpu time    8.1239: real time    8.1431
    CHARGE:  cpu time    0.7030: real time    0.7047
    MIXING:  cpu time    0.0094: real time    0.0094
    --------------------------------------------
      LOOP:  cpu time    9.2245: real time    9.2464

 eigenvalue-minimisations  :  2400
 total energy-change (2. order) : 0.5464386E+01  (-0.4614530E+01)
 number of electron     686.9999999 magnetization      28.1915554
 augmentation part      197.2935784 magnetization      22.3375211

 Broyden mixing:
  rms(total) = 0.32955E+01    rms(broyden)= 0.32946E+01
  rms(prec ) = 0.36855E+01
  weight for this iteration     100.00

 eigenvalues of (default mixing * dielectric matrix)
  average eigenvalue GAMMA=   0.6149
  1.6175  0.4991  0.4991  0.2797  0.1791

 Free energy of the ion-electron system (eV)
  ---------------------------------------------------
  alpha Z        PSCENC =      2915.35152704
  Ewald energy   TEWEN  =    -42816.02974957
  -Hartree energ DENC   =    -14008.86666770
  -exchange      EXHF   =         0.00000000
  -V(xc)+E(xc)   XCENC  =      2633.07788573
  PAW double counting   =     63412.82529172   -64771.49264952
  entropy T*S    EENTRO =        -0.03668861
  eigenvalues    EBANDS =     -5549.57471970
  atomic energy  EATOM  =     57412.89542408
  Solvation  Ediel_sol  =         0.00000000
  ---------------------------------------------------
  free energy    TOTEN  =      -771.85034653 eV

  energy without entropy =     -771.81365792  energy(sigma->0) =     -771.83200223


--------------------------------------------------------------------------------------------------------




--------------------------------------- Iteration      1(  11)  ---------------------------------------


    POTLOK:  cpu time    0.3753: real time    0.3762
    SETDIJ:  cpu time    0.0445: real time    0.0446
     EDDAV:  cpu time   10.9285: real time   10.9545
    CHARGE:  cpu time    0.6951: real time    0.6967
    MIXING:  cpu time    0.0100: real time    0.0100
    --------------------------------------------
      LOOP:  cpu time   12.0533: real time   12.0819

 eigenvalue-minimisations  :  2432
 total energy-change (2. order) :-0.4378368E+01  (-0.2049428E+01)
 number of electron     686.9999997 magnetization      26.9644227
 augmentation part      196.1520397 magnetization      22.3744532

 Broyden mixing:
  rms(total) = 0.43646E+01    rms(broyden)= 0.43633E+01
  rms(prec ) = 0.49326E+01
  weight for this iteration     100.00

 eigenvalues of (default mixing * dielectric matrix)
  average eigenvalue GAMMA=   0.6179
  1.8625  0.6249  0.4527  0.4527  0.1665  0.1479

 Free energy of the ion-electron system (eV)
  ---------------------------------------------------
  alpha Z        PSCENC =      2915.35152704
  Ewald energy   TEWEN  =    -42816.02974957
  -Hartree energ DENC   =    -14028.88844049
  -exchange      EXHF   =         0.00000000
  -V(xc)+E(xc)   XCENC  =      2634.07215727
  PAW double counting   =     64530.92920022   -65899.32220853
  entropy T*S    EENTRO =        -0.05006080
  eigenvalues    EBANDS =     -5525.18656359
  atomic energy  EATOM  =     57412.89542408
  Solvation  Ediel_sol  =         0.00000000
  ---------------------------------------------------
  free energy    TOTEN  =      -776.22871438 eV

  energy without entropy =     -776.17865357  energy(sigma->0) =     -776.20368398


--------------------------------------------------------------------------------------------------------




--------------------------------------- Iteration      1(  12)  ---------------------------------------


    POTLOK:  cpu time    0.3676: real time    0.3685
    SETDIJ:  cpu time    0.0441: real time    0.0442
     EDDAV:  cpu time    7.9830: real time    8.0019
    CHARGE:  cpu time    0.4466: real time    0.4477
    MIXING:  cpu time    0.0077: real time    0.0077
    --------------------------------------------
      LOOP:  cpu time    8.8489: real time    8.8699

 eigenvalue-minimisations  :  2384
 total energy-change (2. order) : 0.7115498E+01  (-0.1170092E+01)
 number of electron     686.9999997 magnetization      26.7862502
 augmentation part      195.4528517 magnetization      21.1228461

 Broyden mixing:
  rms(total) = 0.22375E+01    rms(broyden)= 0.22357E+01
  rms(prec ) = 0.25291E+01
  weight for this iteration     100.00

 eigenvalues of (default mixing * dielectric matrix)
  average eigenvalue GAMMA=   0.5609
  1.8747  0.6420  0.4737  0.4737  0.1694  0.1694  0.1238

 Free energy of the ion-electron system (eV)
  ---------------------------------------------------
  alpha Z        PSCENC =      2915.35152704
  Ewald energy   TEWEN  =    -42816.02974957
  -Hartree energ DENC   =    -14054.61929514
  -exchange      EXHF   =         0.00000000
  -V(xc)+E(xc)   XCENC  =      2635.13362329
  PAW double counting   =     65433.65152388   -66811.46097293
  entropy T*S    EENTRO =        -0.07521164
  eigenvalues    EBANDS =     -5483.96008575
  atomic energy  EATOM  =     57412.89542408
  Solvation  Ediel_sol  =         0.00000000
  ---------------------------------------------------
  free energy    TOTEN  =      -769.11321674 eV

  energy without entropy =     -769.03800510  energy(sigma->0) =     -769.07561092


--------------------------------------------------------------------------------------------------------




--------------------------------------- Iteration      1(  13)  ---------------------------------------


    POTLOK:  cpu time    0.2916: real time    0.2923
    SETDIJ:  cpu time    0.0428: real time    0.0429
     EDDAV:  cpu time   10.1794: real time   10.2035
    CHARGE:  cpu time    0.7057: real time    0.7074
    MIXING:  cpu time    0.0104: real time    0.0105
    --------------------------------------------
      LOOP:  cpu time   11.2299: real time   11.2565

 eigenvalue-minimisations  :  2400
 total energy-change (2. order) : 0.6933273E+00  (-0.5803942E+00)
 number of electron     686.9999997 magnetization      26.5309413
 augmentation part      195.0149545 magnetization      22.3332241

 Broyden mixing:
  rms(total) = 0.20300E+01    rms(broyden)= 0.20292E+01
  rms(prec ) = 0.23453E+01
  weight for this iteration     100.00

 eigenvalues of (default mixing * dielectric matrix)
  average eigenvalue GAMMA=   0.5082
  1.8977  0.6758  0.4629  0.4629  0.1855  0.1855  0.1414  0.0537

 Free energy of the ion-electron system (eV)
  ---------------------------------------------------
  alpha Z        PSCENC =      2915.35152704
  Ewald energy   TEWEN  =    -42816.02974957
  -Hartree energ DENC   =    -14061.87617179
  -exchange      EXHF   =         0.00000000
  -V(xc)+E(xc)   XCENC  =      2635.38539858
  PAW double counting   =     65478.81742391   -66857.98246676
  entropy T*S    EENTRO =        -0.07164218
  eigenvalues    EBANDS =     -5474.90963276
  atomic energy  EATOM  =     57412.89542408
  Solvation  Ediel_sol  =         0.00000000
  ---------------------------------------------------
  free energy    TOTEN  =      -768.41988945 eV

  energy without entropy =     -768.34824727  energy(sigma->0) =     -768.38406836


--------------------------------------------------------------------------------------------------------




--------------------------------------- Iteration      1(  14)  ---------------------------------------


    POTLOK:  cpu time    0.3748: real time    0.3757
    SETDIJ:  cpu time    0.0444: real time    0.0445
     EDDAV:  cpu time   10.2651: real time   10.2895
    CHARGE:  cpu time    0.4420: real time    0.4431
    MIXING:  cpu time    0.0082: real time    0.0082
    --------------------------------------------
      LOOP:  cpu time   11.1345: real time   11.1610

 eigenvalue-minimisations  :  2608
 total energy-change (2. order) : 0.1254526E-01  (-0.1841220E+00)
 number of electron     686.9999997 magnetization      26.1229444
 augmentation part      194.9428681 magnetization      21.1244026

 Broyden mixing:
  rms(total) = 0.19292E+01    rms(broyden)= 0.19274E+01
  rms(prec ) = 0.21482E+01
  weight for this iteration     100.00

 eigenvalues of (default mixing * dielectric matrix)
  average eigenvalue GAMMA=   0.4708
  1.9133  0.6988  0.4390  0.4390  0.2272  0.2272  0.1496  0.0717  0.0717

 Free energy of the ion-electron system (eV)
  ---------------------------------------------------
  alpha Z        PSCENC =      2915.35152704
  Ewald energy   TEWEN  =    -42816.02974957
  -Hartree energ DENC   =    -14063.69599754
  -exchange      EXHF   =         0.00000000
  -V(xc)+E(xc)   XCENC  =      2635.43136262
  PAW double counting   =     65524.80718315   -66903.70020229
  entropy T*S    EENTRO =        -0.09925344
  eigenvalues    EBANDS =     -5473.36763825
  atomic energy  EATOM  =     57412.89542408
  Solvation  Ediel_sol  =         0.00000000
  ---------------------------------------------------
  free energy    TOTEN  =      -768.40734419 eV

  energy without entropy =     -768.30809075  energy(sigma->0) =     -768.35771747


--------------------------------------------------------------------------------------------------------




--------------------------------------- Iteration      1(  15)  ---------------------------------------


    POTLOK:  cpu time    0.2890: real time    0.2897
    SETDIJ:  cpu time    0.0407: real time    0.0408
     EDDAV:  cpu time    8.7091: real time    8.7298
    CHARGE:  cpu time    0.7091: real time    0.7108
    MIXING:  cpu time    0.0112: real time    0.0113
    --------------------------------------------
      LOOP:  cpu time    9.7592: real time    9.7824

 eigenvalue-minimisations  :  2320
 total energy-change (2. order) : 0.1278854E+00  (-0.3179161E+00)
 number of electron     686.9999996 magnetization      25.7812969
 augmentation part      195.0146997 magnetization      20.8063371

 Broyden mixing:
  rms(total) = 0.12519E+01    rms(broyden)= 0.12506E+01
  rms(prec ) = 0.14183E+01
  weight for this iteration     100.00

 eigenvalues of (default mixing * dielectric matrix)
  average eigenvalue GAMMA=   0.4711
  1.9099  0.6824  0.4475  0.4475  0.3807  0.3807  0.1637  0.1532  0.0884  0.0564

 Free energy of the ion-electron system (eV)
  ---------------------------------------------------
  alpha Z        PSCENC =      2915.35152704
  Ewald energy   TEWEN  =    -42816.02974957
  -Hartree energ DENC   =    -14065.26686004
  -exchange      EXHF   =         0.00000000
  -V(xc)+E(xc)   XCENC  =      2635.44077246
  PAW double counting   =     65585.97776503   -66963.85192701
  entropy T*S    EENTRO =        -0.07449865
  eigenvalues    EBANDS =     -5472.72191209
  atomic energy  EATOM  =     57412.89542408
  Solvation  Ediel_sol  =         0.00000000
  ---------------------------------------------------
  free energy    TOTEN  =      -768.27945875 eV

  energy without entropy =     -768.20496010  energy(sigma->0) =     -768.24220943


--------------------------------------------------------------------------------------------------------




--------------------------------------- Iteration      1(  16)  ---------------------------------------


    POTLOK:  cpu time    0.3753: real time    0.3762
    SETDIJ:  cpu time    0.0444: real time    0.0445
     EDDAV:  cpu time   10.6453: real time   10.6706
    CHARGE:  cpu time    0.6117: real time    0.6131
    MIXING:  cpu time    0.0106: real time    0.0106
    --------------------------------------------
      LOOP:  cpu time   11.6874: real time   11.7151

 eigenvalue-minimisations  :  2400
 total energy-change (2. order) :-0.1312997E+00  (-0.1694700E+00)
 number of electron     686.9999996 magnetization      25.3724573
 augmentation part      194.9301603 magnetization      20.4565632

 Broyden mixing:
  rms(total) = 0.15783E+01    rms(broyden)= 0.15772E+01
  rms(prec ) = 0.17368E+01
  weight for this iteration     100.00

 eigenvalues of (default mixing * dielectric matrix)
  average eigenvalue GAMMA=   0.4617
  1.9275  0.6679  0.5051  0.5051  0.4569  0.4569  0.1641  0.1641  0.0976  0.0743
  0.0588

 Free energy of the ion-electron system (eV)
  ---------------------------------------------------
  alpha Z        PSCENC =      2915.35152704
  Ewald energy   TEWEN  =    -42816.02974957
  -Hartree energ DENC   =    -14067.92277939
  -exchange      EXHF   =         0.00000000
  -V(xc)+E(xc)   XCENC  =      2635.51808674
  PAW double counting   =     65633.30240438   -67010.68681738
  entropy T*S    EENTRO =        -0.07585820
  eigenvalues    EBANDS =     -5470.76299613
  atomic energy  EATOM  =     57412.89542408
  Solvation  Ediel_sol  =         0.00000000
  ---------------------------------------------------
  free energy    TOTEN  =      -768.41075844 eV

  energy without entropy =     -768.33490024  energy(sigma->0) =     -768.37282934


--------------------------------------------------------------------------------------------------------




--------------------------------------- Iteration      1(  17)  ---------------------------------------


    POTLOK:  cpu time    0.3257: real time    0.3265
    SETDIJ:  cpu time    0.0422: real time    0.0423
     EDDAV:  cpu time    7.8055: real time    7.8240
    CHARGE:  cpu time    0.7072: real time    0.7089
    MIXING:  cpu time    0.0125: real time    0.0125
    --------------------------------------------
      LOOP:  cpu time    8.8931: real time    8.9142

 eigenvalue-minimisations  :  2320
 total energy-change (2. order) : 0.2491832E+00  (-0.7109100E-01)
 number of electron     686.9999997 magnetization      23.8733484
 augmentation part      195.0462168 magnetization      18.8867828

 Broyden mixing:
  rms(total) = 0.11519E+01    rms(broyden)= 0.11502E+01
  rms(prec ) = 0.12596E+01
  weight for this iteration     100.00

 eigenvalues of (default mixing * dielectric matrix)
  average eigenvalue GAMMA=   0.5026
  1.9692  0.7432  0.7432  0.5935  0.5767  0.4358  0.4358  0.1764  0.1474  0.0826
  0.0706  0.0563

 Free energy of the ion-electron system (eV)
  ---------------------------------------------------
  alpha Z        PSCENC =      2915.35152704
  Ewald energy   TEWEN  =    -42816.02974957
  -Hartree energ DENC   =    -14069.84856547
  -exchange      EXHF   =         0.00000000
  -V(xc)+E(xc)   XCENC  =      2635.56838666
  PAW double counting   =     65713.80294359   -67090.65432131
  entropy T*S    EENTRO =        -0.08414457
  eigenvalues    EBANDS =     -5469.16307572
  atomic energy  EATOM  =     57412.89542408
  Solvation  Ediel_sol  =         0.00000000
  ---------------------------------------------------
  free energy    TOTEN  =      -768.16157527 eV

  energy without entropy =     -768.07743070  energy(sigma->0) =     -768.11950298


--------------------------------------------------------------------------------------------------------




--------------------------------------- Iteration      1(  18)  ---------------------------------------


    POTLOK:  cpu time    0.3745: real time    0.3754
    SETDIJ:  cpu time    0.0447: real time    0.0448
     EDDAV:  cpu time   10.6118: real time   10.6370
    CHARGE:  cpu time    0.7000: real time    0.7017
    MIXING:  cpu time    0.0123: real time    0.0123
    --------------------------------------------
      LOOP:  cpu time   11.7433: real time   11.7712

 eigenvalue-minimisations  :  2336
 total energy-change (2. order) : 0.7366562E-01  (-0.1018796E+00)
 number of electron     686.9999997 magnetization      23.2234151
 augmentation part      194.8802386 magnetization      18.2940038

 Broyden mixing:
  rms(total) = 0.92284E+00    rms(broyden)= 0.92179E+00
  rms(prec ) = 0.10321E+01
  weight for this iteration     100.00

 eigenvalues of (default mixing * dielectric matrix)
  average eigenvalue GAMMA=   0.5104
  2.0004  0.7764  0.7764  0.6119  0.6119  0.4826  0.4826  0.3592  0.1767  0.1476
  0.0848  0.0687  0.0565

 Free energy of the ion-electron system (eV)
  ---------------------------------------------------
  alpha Z        PSCENC =      2915.35152704
  Ewald energy   TEWEN  =    -42816.02974957
  -Hartree energ DENC   =    -14079.78543278
  -exchange      EXHF   =         0.00000000
  -V(xc)+E(xc)   XCENC  =      2635.96247691
  PAW double counting   =     65951.47895794   -67327.16919968
  entropy T*S    EENTRO =        -0.09705815
  eigenvalues    EBANDS =     -5460.69485544
  atomic energy  EATOM  =     57412.89542408
  Solvation  Ediel_sol  =         0.00000000
  ---------------------------------------------------
  free energy    TOTEN  =      -768.08790964 eV

  energy without entropy =     -767.99085150  energy(sigma->0) =     -768.03938057


--------------------------------------------------------------------------------------------------------




--------------------------------------- Iteration      1(  19)  ---------------------------------------


    POTLOK:  cpu time    0.3642: real time    0.3651
    SETDIJ:  cpu time    0.0443: real time    0.0444
     EDDAV:  cpu time    8.0350: real time    8.0541
    CHARGE:  cpu time    0.4564: real time    0.4575
    MIXING:  cpu time    0.0101: real time    0.0102
    --------------------------------------------
      LOOP:  cpu time    8.9101: real time    8.9312

 eigenvalue-minimisations  :  2448
 total energy-change (2. order) :-0.1556102E+00  (-0.3564613E-01)
 number of electron     686.9999997 magnetization      23.0306270
 augmentation part      194.9522030 magnetization      17.4618365

 Broyden mixing:
  rms(total) = 0.92484E+00    rms(broyden)= 0.92372E+00
  rms(prec ) = 0.10507E+01
  weight for this iteration     100.00

 eigenvalues of (default mixing * dielectric matrix)
  average eigenvalue GAMMA=   0.5080
  1.9890  0.8102  0.8102  0.5783  0.5783  0.5263  0.5263  0.3798  0.3798  0.1765
  0.1475  0.0849  0.0686  0.0565

 Free energy of the ion-electron system (eV)
  ---------------------------------------------------
  alpha Z        PSCENC =      2915.35152704
  Ewald energy   TEWEN  =    -42816.02974957
  -Hartree energ DENC   =    -14083.10201696
  -exchange      EXHF   =         0.00000000
  -V(xc)+E(xc)   XCENC  =      2635.97380611
  PAW double counting   =     66067.32295019   -67442.99468341
  entropy T*S    EENTRO =        -0.11826881
  eigenvalues    EBANDS =     -5457.54250856
  atomic energy  EATOM  =     57412.89542408
  Solvation  Ediel_sol  =         0.00000000
  ---------------------------------------------------
  free energy    TOTEN  =      -768.24351988 eV

  energy without entropy =     -768.12525108  energy(sigma->0) =     -768.18438548


--------------------------------------------------------------------------------------------------------




--------------------------------------- Iteration      1(  20)  ---------------------------------------


    POTLOK:  cpu time    0.3739: real time    0.3748
    SETDIJ:  cpu time    0.0447: real time    0.0448
     EDDAV:  cpu time   10.8532: real time   10.8791
    CHARGE:  cpu time    0.7063: real time    0.7080
    MIXING:  cpu time    0.0129: real time    0.0129
    --------------------------------------------
      LOOP:  cpu time   11.9911: real time   12.0196

 eigenvalue-minimisations  :  2400
 total energy-change (2. order) : 0.6175005E-02  (-0.1031321E-01)
 number of electron     686.9999997 magnetization      22.5978733
 augmentation part      194.9008086 magnetization      17.0490335

 Broyden mixing:
  rms(total) = 0.92157E+00    rms(broyden)= 0.92146E+00
  rms(prec ) = 0.10581E+01
  weight for this iteration     100.00

 eigenvalues of (default mixing * dielectric matrix)
  average eigenvalue GAMMA=   0.5457
  2.0157  0.8604  0.8604  0.7041  0.7041  0.5870  0.5870  0.4671  0.4671  0.3976
  0.1766  0.1476  0.0849  0.0686  0.0565

 Free energy of the ion-electron system (eV)
  ---------------------------------------------------
  alpha Z        PSCENC =      2915.35152704
  Ewald energy   TEWEN  =    -42816.02974957
  -Hartree energ DENC   =    -14084.73250764
  -exchange      EXHF   =         0.00000000
  -V(xc)+E(xc)   XCENC  =      2636.00714454
  PAW double counting   =     66080.74461157   -67456.27626169
  entropy T*S    EENTRO =        -0.12018140
  eigenvalues    EBANDS =     -5456.07735181
  atomic energy  EATOM  =     57412.89542408
  Solvation  Ediel_sol  =         0.00000000
  ---------------------------------------------------
  free energy    TOTEN  =      -768.23734488 eV

  energy without entropy =     -768.11716347  energy(sigma->0) =     -768.17725417


--------------------------------------------------------------------------------------------------------




--------------------------------------- Iteration      1(  21)  ---------------------------------------


    POTLOK:  cpu time    0.3741: real time    0.3750
    SETDIJ:  cpu time    0.0445: real time    0.0446
     EDDAV:  cpu time    9.3148: real time    9.3369
    CHARGE:  cpu time    0.4451: real time    0.4462
    MIXING:  cpu time    0.0103: real time    0.0103
    --------------------------------------------
      LOOP:  cpu time   10.1888: real time   10.2130

 eigenvalue-minimisations  :  2528
 total energy-change (2. order) : 0.6597711E-01  (-0.5036461E-01)
 number of electron     686.9999997 magnetization      22.0870051
 augmentation part      194.8298560 magnetization      17.0407726

 Broyden mixing:
  rms(total) = 0.87425E+00    rms(broyden)= 0.87318E+00
  rms(prec ) = 0.96722E+00
  weight for this iteration     100.00

[...]
     10.47978      4.96683      4.14355         0.000000      0.081667     -0.043264
      2.96571      9.69961      3.34186        -0.069800     -0.005144      0.045889
      4.51984      0.13308      2.44464         0.069800      0.005144     -0.045889
      5.98844      4.85657      6.71133         0.000000     -0.000000     -0.000000
      9.00729     14.66877      4.92011         0.031176     -0.014665      0.010462
      9.06499      4.85657      6.71133        -0.000181     -0.000000     -0.000000
     10.47978      9.68077      5.84018        -0.000000     -0.056268      0.038777
     11.95227     14.66877      4.92011        -0.031176     -0.014665      0.010462
     11.89456      4.85657      6.71133         0.000181      0.000000      0.000000
     13.45093      7.35251      7.47458         0.005175      0.028547      0.021180
      8.83558     12.32440      1.60167        -0.012245      0.041145      0.001055
      1.49711      2.45808      0.78579        -0.000000      0.019090      0.018413
      7.50863      7.35251      7.47458        -0.005175      0.028547      0.021180
      3.14131     12.32440      1.60167         0.012245      0.041145      0.001055
      4.69055      2.50016      0.77581        -0.012102      0.050981     -0.036516
     10.47978      7.28763      7.60364        -0.000000     -0.022912      0.105135
      5.98844     12.52464      1.45756        -0.000000      0.063319      0.055776
      7.28634      2.50016      0.77581         0.012102      0.050981     -0.036516
      7.55020      7.44341      2.36918         0.022637     -0.004731      0.029559
      7.63264     12.39683      3.95574         0.012245     -0.041145     -0.001055
      8.91802      2.38929      3.41732        -0.022637      0.004731     -0.029559
     10.47978      7.51850      2.58899         0.000000      0.037678     -0.062779
     10.47978     12.19659      4.09984         0.000000     -0.063319     -0.055776
      3.05887      2.38929      3.41732         0.022637      0.004731     -0.029559
      4.42669      7.44341      2.36918        -0.022637     -0.004731      0.029559
      4.34425     12.39683      3.95574        -0.012245     -0.041145     -0.001055
      5.98844      2.31419      3.19751        -0.000000     -0.037678      0.062779
      5.98844      7.37461      5.00071         0.000000     -0.019090     -0.018413
      5.98844     12.30083      6.59678         0.000000     -0.000000     -0.000000
      7.50863      2.36062      5.94808        -0.005175     -0.028547     -0.021180
      9.18189      7.33254      5.01069        -0.012102     -0.050981      0.036516
      9.22802     12.30083      6.59678         0.008714      0.000000      0.000000
     10.47978      2.42550      5.81902         0.000000      0.022912     -0.105135
     11.77767      7.33254      5.01069         0.012102     -0.050981      0.036516
     11.73154     12.30083      6.59678        -0.008714     -0.000000     -0.000000
      4.46826      2.36062      5.94808         0.005175     -0.028547     -0.021180
      4.64265     10.95422      7.38398        -0.017267      0.001247      0.009138
      0.05157      3.80065     -0.06031        -0.003797     -0.011747     -0.006043
      9.12838      1.15579      1.60723        -0.016163      0.009512      0.030124
      9.04395      8.79635      1.52963         0.021500      0.020602     -0.003639
      1.49711      6.24654      1.12914        -0.000000      0.008689      0.030719
      1.49711     13.93273      0.64586        -0.000000      0.042890      0.001528
      7.33424     10.95422      7.38398         0.017267      0.001247      0.009138
      2.94265      3.80065     -0.06031         0.003797     -0.011747     -0.006043
      2.84851      1.15579      1.60723         0.016163      0.009512      0.030124
      2.93294      8.79635      1.52963        -0.021500      0.020602     -0.003639
      4.32462      6.23317      0.73199        -0.036080      0.012040     -0.007008
      4.33258     13.54279      0.61235        -0.019217      0.035342      0.020700
     10.47978     10.89462      7.41169         0.000000      0.024420     -0.022211
      5.98844      3.88890     -0.01255         0.000000     -0.001424     -0.007827
      5.98844      1.17066      1.63228         0.000000      0.083728     -0.057506
      5.98844      8.36527      1.80362         0.000000     -0.030105     -0.012616
      7.65227      6.23317      0.73199         0.036080      0.012040     -0.007008
      7.64431     13.54279      0.61235         0.019217      0.035342      0.020700
      7.44739     10.98663      2.42080        -0.005902     -0.023220      0.047418
      7.70878      3.76165      2.49170         0.025701      0.017731     -0.021389
      7.42427      1.03635      4.25687        -0.021500     -0.020602      0.003639
      7.33984      8.67690      4.17927         0.016163     -0.009512     -0.030124
      8.75944      6.07105      3.29480        -0.025701     -0.017731      0.021389
      9.02084     13.73460      3.13661         0.005902      0.023220     -0.047418
      1.49711     11.44641      2.12577        -0.000000      0.025671      0.002983
     10.47978      3.95364      2.36556         0.000000      0.023866     -0.021977
     10.47978      1.46742      3.98288        -0.000000      0.030105      0.012616
     10.47978      8.66203      4.15423        -0.000000     -0.083728      0.057506
      3.21745      6.07105      3.29480         0.025701     -0.017731      0.021389
      2.95605     13.73460      3.13661        -0.005902      0.023220     -0.047418
      4.52950     10.98663      2.42080         0.005902     -0.023220      0.047418
      4.26811      3.76165      2.49170        -0.025701      0.017731     -0.021389
      4.55262      1.03635      4.25687         0.021500     -0.020602      0.003639
      4.63705      8.67690      4.17927        -0.016163     -0.009512     -0.030124
      5.98844      5.87905      3.42094        -0.000000     -0.023866      0.021977
      5.98844     13.27482      3.43164         0.000000     -0.025671     -0.002983
      5.98844     10.78850      4.91155         0.000000     -0.042890     -0.001528
      5.98844      3.58615      4.65736         0.000000     -0.008689     -0.030719
      5.98844      0.92068      6.74449         0.000000     -0.028692     -0.000682
      5.98844      8.79245      6.67816        -0.000000      0.028692      0.000682
      7.43398      6.03205      5.84681         0.003797      0.011747      0.006043
      7.33424     13.64744      5.80958         0.017267     -0.001247     -0.009138
      8.82392     11.17844      4.94506        -0.019217     -0.035342     -0.020700
      8.81596      3.59952      5.05451        -0.036080     -0.012040      0.007008
      8.84518      1.15563      6.82301        -0.031371     -0.011277     -0.028271
      8.84518      8.55750      6.59964        -0.031371      0.011277      0.028271
     10.47978      5.94380      5.79905        -0.000000      0.001424      0.007827
     10.47978     13.70705      5.78187        -0.000000     -0.024420      0.022211
      3.15297     11.17844      4.94506         0.019217     -0.035342     -0.020700
      3.16093      3.59952      5.05451         0.036080     -0.012040      0.007008
     12.11438      1.15563      6.82301         0.031371     -0.011277     -0.028271
     12.11438      8.55750      6.59964         0.031371      0.011277      0.028271
      4.54291      6.03205      5.84681        -0.003797      0.011747      0.006043
      4.64265     13.64744      5.80958        -0.017267     -0.001247     -0.009138
 -----------------------------------------------------------------------------------
    total drift:                               -0.002725     -0.002759     -0.000463


--------------------------------------------------------------------------------------------------------



  FREE ENERGIE OF THE ION-ELECTRON SYSTEM (eV)
  ---------------------------------------------------
  free  energy   TOTEN  =      -788.3605780632 eV

  energy  without entropy=     -788.2954025918  energy(sigma->0) =     -788.32799033
 
 d Force = 0.6590785E-01[ 0.475E-01, 0.843E-01]  d Energy = 0.7147648E-01-0.557E-02
 d Force =-0.1654687E+02[-0.176E+02,-0.155E+02]  d Ewald  =-0.3817009E+02 0.216E+02


--------------------------------------------------------------------------------------------------------


    POTLOK:  cpu time    0.3943: real time    0.3952


--------------------------------------------------------------------------------------------------------


 Quasi-Newton relaxation of ions (Broydens 2nd method)
  g(Force)  = 0.116E-01   g(Stress)= 0.320E-03

 retain information from N=  1 steps
 eigenvalues of (default step * inverse Hessian matrix)
  average eigenvalue of G=   5.4613
 eigenvalue spectrum of G is  5.4613


--------------------------------------------------------------------------------------------------------


     LOOP+:  cpu time  200.5796: real time  201.1604
    4ORBIT:  cpu time    0.0000: real time    0.0000

volume of typ            1:    11.8 %

volume of typ            2:     9.4 %

volume of typ            3:    20.6 %

volume of typ            4:     8.6 %
 
total charge     
 
# of ion       s       p       d       tot
------------------------------------------
    1        0.283   6.164   1.985   8.432
    2        0.285   6.172   1.963   8.419
    3        0.285   6.161   1.993   8.439
    4        0.283   6.164   1.985   8.432
    5        0.285   6.172   1.963   8.419
    6        0.285   6.172   1.963   8.419
    7        0.283   6.157   1.994   8.434
    8        0.285   6.172   1.963   8.419
    9        0.283   6.157   1.994   8.434
   10        0.285   6.161   1.993   8.439
   11        0.283   6.164   1.985   8.432
   12        0.283   6.164   1.985   8.432
   13        0.196   0.205   8.009   8.410
   14        0.198   0.211   8.021   8.429
   15        0.187   0.191   8.045   8.423
   16        0.196   0.205   8.009   8.410
   17        0.194   0.204   8.019   8.418
   18        0.194   0.204   8.019   8.418
   19        0.187   0.191   8.045   8.423
   20        0.194   0.204   8.019   8.418
   21        0.194   0.204   8.019   8.418
   22        0.198   0.200   8.072   8.469
   23        0.196   0.205   8.009   8.410
   24        0.202   0.223   7.930   8.355
   25        0.198   0.211   8.020   8.429
   26        0.196   0.205   8.010   8.410
   27        0.202   0.223   7.930   8.355
   28        2.078   0.263   0.100   2.441
   29        2.089   0.290   0.112   2.491
   30        2.077   0.261   0.098   2.436
   31        2.078   0.263   0.100   2.441
   32        2.089   0.290   0.112   2.491
   33        2.076   0.256   0.095   2.427
   34        2.054   0.196   0.070   2.320
   35        2.059   0.210   0.074   2.342
   36        2.076   0.256   0.095   2.427
   37        2.087   0.288   0.113   2.488
   38        2.089   0.290   0.112   2.491
   39        2.087   0.288   0.113   2.488
   40        2.087   0.284   0.110   2.480
   41        2.059   0.210   0.074   2.342
   42        2.087   0.288   0.113   2.488
   43        2.087   0.288   0.113   2.488
   44        2.089   0.290   0.112   2.491
   45        2.087   0.284   0.110   2.480
   46        2.077   0.261   0.098   2.436
   47        2.079   0.262   0.099   2.441
   48        2.078   0.263   0.100   2.441
   49        2.076   0.256   0.095   2.427
   50        2.081   0.268   0.099   2.449
   51        2.054   0.196   0.070   2.320
   52        2.076   0.256   0.095   2.427
   53        2.081   0.268   0.099   2.449
   54        2.078   0.263   0.100   2.441
   55        1.250   2.851   0.005   4.106
   56        1.254   2.823   0.006   4.083
   57        1.249   2.848   0.005   4.103
   58        1.250   2.826   0.006   4.082
   59        1.251   2.851   0.005   4.108
   60        1.245   2.864   0.004   4.113
   61        1.250   2.851   0.005   4.106
   62        1.254   2.823   0.006   4.083
   63        1.249   2.848   0.005   4.103
   64        1.250   2.826   0.006   4.082
   65        1.255   2.830   0.005   4.090
   66        1.254   2.825   0.005   4.084
   67        1.240   2.809   0.005   4.054
   68        1.242   2.805   0.005   4.053
   69        1.237   2.822   0.005   4.065
   70        1.257   2.845   0.005   4.107
   71        1.255   2.830   0.005   4.090
   72        1.254   2.825   0.005   4.084
   73        1.251   2.828   0.006   4.084
   74        1.249   2.849   0.005   4.102
   75        1.250   2.826   0.006   4.082
   76        1.249   2.848   0.005   4.103
   77        1.249   2.849   0.005   4.102
   78        1.251   2.828   0.006   4.084
   79        1.258   2.839   0.005   4.102
   80        1.247   2.850   0.005   4.102
   81        1.257   2.845   0.005   4.107
   82        1.237   2.822   0.005   4.065
   83        1.249   2.849   0.005   4.102
   84        1.251   2.828   0.006   4.084
   85        1.251   2.828   0.006   4.084
   86        1.249   2.849   0.005   4.102
   87        1.250   2.826   0.006   4.082
   88        1.249   2.848   0.005   4.103
   89        1.247   2.850   0.005   4.102
   90        1.258   2.839   0.005   4.102
   91        1.245   2.864   0.004   4.113
   92        1.251   2.851   0.005   4.108
   93        1.241   2.852   0.003   4.096
   94        1.241   2.852   0.003   4.096
   95        1.254   2.823   0.006   4.083
   96        1.250   2.851   0.005   4.106
   97        1.254   2.825   0.005   4.084
   98        1.255   2.830   0.005   4.090
   99        1.253   2.828   0.006   4.087
  100        1.253   2.828   0.006   4.087
  101        1.242   2.805   0.005   4.053
  102        1.240   2.809   0.005   4.054
  103        1.254   2.825   0.005   4.084
  104        1.255   2.830   0.005   4.090
  105        1.253   2.828   0.006   4.087
  106        1.253   2.828   0.006   4.087
  107        1.254   2.823   0.006   4.083
  108        1.250   2.851   0.005   4.106
--------------------------------------------------
tot         129.95  237.26  146.90  514.12
 
magnetization (x)
 
# of ion       s       p       d       tot
------------------------------------------
    1        0.001   0.002   0.044   0.047
    2       -0.000  -0.001  -0.015  -0.016
    3        0.001   0.001   0.029   0.031
    4        0.001   0.002   0.044   0.047
    5       -0.000  -0.001  -0.015  -0.015
    6       -0.000  -0.001  -0.015  -0.016
    7        0.002   0.001   0.031   0.034
    8       -0.000  -0.001  -0.015  -0.016
    9        0.002   0.001   0.031   0.034
   10        0.001   0.001   0.029   0.031
   11        0.001   0.002   0.044   0.047
   12        0.001   0.002   0.044   0.047
   13       -0.002  -0.004  -1.159  -1.165
   14       -0.014  -0.001  -1.110  -1.125
   15        0.014   0.002   1.088   1.104
   16       -0.002  -0.004  -1.159  -1.165
   17       -0.001  -0.003  -1.117  -1.121
   18       -0.001  -0.003  -1.117  -1.121
   19        0.014   0.002   1.088   1.104
   20       -0.001  -0.003  -1.117  -1.121
   21       -0.001  -0.003  -1.117  -1.121
   22       -0.000  -0.001  -0.867  -0.869
   23       -0.002  -0.004  -1.159  -1.165
   24        0.001   0.004   1.433   1.438
   25       -0.014  -0.001  -1.110  -1.125
   26       -0.002  -0.004  -1.159  -1.165
   27        0.001   0.004   1.433   1.438
   28       -0.000  -0.002  -0.001  -0.003
   29       -0.000  -0.001  -0.001  -0.002
   30        0.002   0.002   0.000   0.004
   31       -0.000  -0.002  -0.001  -0.003
   32       -0.000  -0.001  -0.001  -0.002
   33       -0.001  -0.002  -0.000  -0.002
   34        0.001   0.001   0.000   0.002
   35       -0.001  -0.001  -0.000  -0.001
   36       -0.001  -0.002  -0.000  -0.002
   37        0.001   0.003   0.001   0.005
   38       -0.000  -0.001  -0.001  -0.002
   39        0.001   0.003   0.001   0.005
   40       -0.001  -0.003  -0.001  -0.005
   41       -0.001  -0.001  -0.000  -0.001
   42        0.001   0.003   0.001   0.005
   43        0.001   0.003   0.001   0.005
   44       -0.000  -0.001  -0.001  -0.002
   45       -0.001  -0.003  -0.001  -0.005
   46        0.002   0.002   0.000   0.004
   47        0.000  -0.003  -0.002  -0.004
   48       -0.000  -0.002  -0.001  -0.003
   49       -0.001  -0.002  -0.000  -0.002
   50       -0.002  -0.008  -0.002  -0.012
   51        0.001   0.001   0.000   0.002
   52       -0.001  -0.002  -0.000  -0.002
   53       -0.002  -0.008  -0.002  -0.012
   54       -0.000  -0.002  -0.001  -0.003
   55       -0.002  -0.032   0.000  -0.034
   56       -0.000   0.015  -0.000   0.015
   57       -0.002  -0.030   0.000  -0.032
   58       -0.006  -0.056  -0.000  -0.062
   59        0.000  -0.000   0.000   0.000
   60        0.000  -0.000   0.000  -0.000
   61       -0.002  -0.032   0.000  -0.034
   62       -0.000   0.015  -0.000   0.015
   63       -0.002  -0.030   0.000  -0.032
   64       -0.006  -0.056  -0.000  -0.062
   65        0.006   0.059   0.000   0.064
   66       -0.005  -0.049   0.000  -0.054
   67       -0.010  -0.185  -0.000  -0.196
   68        0.013   0.217   0.000   0.230
   69       -0.010  -0.170  -0.000  -0.181
   70        0.001  -0.006   0.000  -0.005
   71        0.006   0.059   0.000   0.064
   72       -0.005  -0.049   0.000  -0.054
   73       -0.006  -0.060  -0.000  -0.067
   74        0.003   0.028  -0.000   0.031
   75       -0.006  -0.056  -0.000  -0.062
   76       -0.002  -0.030   0.000  -0.032
   77        0.003   0.028  -0.000   0.031
   78       -0.006  -0.060  -0.000  -0.067
   79        0.001  -0.000   0.000   0.001
   80        0.003   0.022   0.000   0.024
   81        0.001  -0.006   0.000  -0.005
   82       -0.010  -0.170  -0.000  -0.181
   83        0.003   0.028  -0.000   0.031
   84       -0.006  -0.060  -0.000  -0.067
   85       -0.006  -0.060  -0.000  -0.067
   86        0.003   0.028  -0.000   0.031
   87       -0.006  -0.056  -0.000  -0.062
   88       -0.002  -0.030   0.000  -0.032
   89        0.003   0.022   0.000   0.024
   90        0.001  -0.000   0.000   0.001
   91        0.000  -0.000   0.000  -0.000
   92        0.000  -0.000   0.000   0.000
   93       -0.000  -0.001   0.000  -0.001
   94       -0.000  -0.001   0.000  -0.001
   95       -0.000   0.015  -0.000   0.015
   96       -0.002  -0.032   0.000  -0.034
   97       -0.005  -0.049   0.000  -0.054
   98        0.006   0.059   0.000   0.064
   99       -0.007  -0.061  -0.000  -0.068
  100       -0.007  -0.061  -0.000  -0.068
  101        0.013   0.217   0.000   0.230
  102       -0.010  -0.185  -0.000  -0.196
  103       -0.005  -0.049   0.000  -0.054
  104        0.006   0.059   0.000   0.064
  105       -0.007  -0.061  -0.000  -0.068
  106       -0.007  -0.061  -0.000  -0.068
  107       -0.000   0.015  -0.000   0.015
  108       -0.002  -0.032   0.000  -0.034
--------------------------------------------------
tot          -0.09   -1.03   -6.92   -8.04
 

 total amount of memory used by VASP MPI-rank0   180403. kBytes
=======================================================================

   base      :      30000. kBytes
   nonlr-proj:      52645. kBytes
   fftplans  :      11817. kBytes
   grid      :      71572. kBytes
   one-center:       1679. kBytes
   wavefun   :      12690. kBytes
 
  
  
 General timing and accounting informations for this job:
 ========================================================
  
                  Total CPU time used (sec):     6658.870
                            User time (sec):     6637.693
                          System time (sec):       21.177
                         Elapsed time (sec):     6681.556
  
                   Maximum memory used (kb):      264692.
                   Average memory used (kb):           0.
  
                          Minor page faults:        45092
                          Major page faults:           46
                 Voluntary context switches:         1427
