 vasp.5.4.4.18Apr17-6-g9f103f2a35 (build May 12 2020 05:39:39) gamma-only       
  
 MD_VERSION_INFO: Compiled 2020-05-12T12:39:39-UTC in devlin.sd.materialsdesign.
 com:/home/medea2/data/build/wwolf/vasp-gpu5.4.4/13047/x86_64/src/src/build/gam 
 from svn 13047
 
 This VASP executable licensed from Materials Design, Inc.
 
 executed on                        Lin64 date 2023.04.04  18:26:22
 running on   16 total cores
 distrk:  each k-point on   16 cores,    1 groups
 distr:  one band on NCORES_PER_BAND=   1 cores,   16 groups


--------------------------------------------------------------------------------------------------------


 INCAR:
 POTCAR:    PAW_PBE Ta_pv 07Sep2000               
 POTCAR:    PAW_PBE Ni 02Aug2007                  
 POTCAR:    PAW_PBE Li_sv 10Sep2004               
 POTCAR:    PAW_PBE O 08Apr2002                   

 ----------------------------------------------------------------------------- 
|                                                                             |
|           W    W    AA    RRRRR   N    N  II  N    N   GGGG   !!!           |
|           W    W   A  A   R    R  NN   N  II  NN   N  G    G  !!!           |
|           W    W  A    A  R    R  N N  N  II  N N  N  G       !!!           |
|           W WW W  AAAAAA  RRRRR   N  N N  II  N  N N  G  GGG   !            |
|           WW  WW  A    A  R   R   N   NN  II  N   NN  G    G                |
|           W    W  A    A  R    R  N    N  II  N    N   GGGG   !!!           |
|                                                                             |
|      For optimal performance we recommend to set                            |
|        NCORE= 4 - approx SQRT( number of cores)                             |
|      NCORE specifies how many cores store one orbital (NPAR=cpu/NCORE).     |
|      This setting can  greatly improve the performance of VASP for DFT.     |
|      The default,   NCORE=1            might be grossly inefficient         |
|      on modern multi-core architectures or massively parallel machines.     |
|      Do your own testing !!!!                                               |
|      Unfortunately you need to use the default for GW and RPA calculations. |
|      (for HF NCORE is supported but not extensively tested yet)             |
|                                                                             |
 ----------------------------------------------------------------------------- 

 POTCAR:    PAW_PBE Ta_pv 07Sep2000               
  local pseudopotential read in
  partial core-charges read in
  partial kinetic energy density read in
  atomic valenz-charges read in
  non local Contribution for L=           1  read in
    real space projection operators read in
  non local Contribution for L=           1  read in
    real space projection operators read in
  non local Contribution for L=           2  read in
    real space projection operators read in
  non local Contribution for L=           2  read in
    real space projection operators read in
  non local Contribution for L=           0  read in
    real space projection operators read in
  non local Contribution for L=           0  read in
    real space projection operators read in
    PAW grid and wavefunctions read in
 
   number of l-projection  operators is LMAX  =           6
   number of lm-projection operators is LMMAX =          18
 
 POTCAR:    PAW_PBE Ni 02Aug2007                  
  local pseudopotential read in
  partial core-charges read in
  partial kinetic energy density read in
  atomic valenz-charges read in
  non local Contribution for L=           2  read in
    real space projection operators read in
  non local Contribution for L=           2  read in
    real space projection operators read in
  non local Contribution for L=           0  read in
    real space projection operators read in
  non local Contribution for L=           0  read in
    real space projection operators read in
  non local Contribution for L=           1  read in
    real space projection operators read in
  non local Contribution for L=           1  read in
    real space projection operators read in
    PAW grid and wavefunctions read in
 
   number of l-projection  operators is LMAX  =           6
   number of lm-projection operators is LMMAX =          18
 
 POTCAR:    PAW_PBE Li_sv 10Sep2004               
  local pseudopotential read in
  atomic valenz-charges read in
  non local Contribution for L=           0  read in
    real space projection operators read in
  non local Contribution for L=           0  read in
    real space projection operators read in
  non local Contribution for L=           1  read in
    real space projection operators read in
    PAW grid and wavefunctions read in
 
   number of l-projection  operators is LMAX  =           3
   number of lm-projection operators is LMMAX =           5
 
 POTCAR:    PAW_PBE O 08Apr2002                   
  local pseudopotential read in
  partial core-charges read in
  partial kinetic energy density read in
  kinetic energy density of atom read in
  atomic valenz-charges read in
  non local Contribution for L=           0  read in
    real space projection operators read in
  non local Contribution for L=           0  read in
    real space projection operators read in
  non local Contribution for L=           1  read in
    real space projection operators read in
  non local Contribution for L=           1  read in
    real space projection operators read in
    PAW grid and wavefunctions read in
 
   number of l-projection  operators is LMAX  =           4
   number of lm-projection operators is LMMAX =           8
 
 Optimization of the real space projectors (new method)

 maximal supplied QI-value         = 15.12
 optimisation between [QCUT,QGAM] = [ 11.34, 22.83] = [ 36.00,145.93] Ry 
 Optimized for a Real-space Cutoff    1.61 Angstroem

   l    n(q)    QCUT    max X(q) W(low)/X(q) W(high)/X(q)  e(spline) 
   1     11    11.338     4.092    0.40E-05    0.64E-05    0.47E-07
   1     11    11.338     4.834    0.13E-04    0.44E-04    0.21E-06
   2     10    11.338    62.294    0.15E-03    0.31E-03    0.77E-06
   2     10    11.338    50.966    0.15E-03    0.31E-03    0.77E-06
   0     11    11.338   103.792    0.33E-04    0.19E-04    0.90E-07
   0     11    11.338    56.335    0.26E-04    0.17E-04    0.79E-07
 Optimization of the real space projectors (new method)

 maximal supplied QI-value         = 16.25
 optimisation between [QCUT,QGAM] = [ 11.38, 22.75] = [ 36.24,144.96] Ry 
 Optimized for a Real-space Cutoff    1.47 Angstroem

   l    n(q)    QCUT    max X(q) W(low)/X(q) W(high)/X(q)  e(spline) 
   2      9    11.376    60.317    0.17E-03    0.16E-04    0.16E-06
   2      9    11.376    55.921    0.17E-03    0.16E-04    0.17E-06
   0     10    11.376    51.690    0.45E-04    0.60E-04    0.21E-06
   0     10    11.376    30.015    0.37E-04    0.55E-04    0.19E-06
   1     10    11.376    18.849    0.83E-04    0.11E-03    0.92E-07
   1     10    11.376    14.624    0.69E-04    0.92E-04    0.82E-07
 Optimization of the real space projectors (new method)

 maximal supplied QI-value         = 22.11
 optimisation between [QCUT,QGAM] = [ 11.28, 22.77] = [ 35.61,145.23] Ry 
 Optimized for a Real-space Cutoff    1.10 Angstroem

   l    n(q)    QCUT    max X(q) W(low)/X(q) W(high)/X(q)  e(spline) 
   0      7    11.276    10.506    0.54E-04    0.58E-04    0.16E-07
   0      7    11.276     8.367    0.11E-03    0.14E-03    0.35E-07
   1      7    11.276     8.983    0.23E-03    0.43E-03    0.86E-07
 Optimization of the real space projectors (new method)

 maximal supplied QI-value         = 24.76
 optimisation between [QCUT,QGAM] = [ 11.39, 22.77] = [ 36.31,145.25] Ry 
 Optimized for a Real-space Cutoff    1.10 Angstroem

   l    n(q)    QCUT    max X(q) W(low)/X(q) W(high)/X(q)  e(spline) 
   0      7    11.387    20.381    0.22E-03    0.48E-03    0.18E-06
   0      7    11.387    15.268    0.22E-03    0.52E-03    0.19E-06
   1      7    11.387     5.964    0.22E-03    0.73E-03    0.24E-06
   1      7    11.387     5.382    0.19E-03    0.60E-03    0.21E-06

 ----------------------------------------------------------------------------- 
|                                                                             |
|  ADVICE TO THIS USER RUNNING 'VASP/VAMP'   (HEAR YOUR MASTER'S VOICE ...):  |
|                                                                             |
|      You enforced a specific xc-type in the INCAR file,                     |
|      a different type was found on the POTCAR file                          |
|          I HOPE YOU KNOW, WHAT YOU ARE  DOING                               |
|                                                                             |
 ----------------------------------------------------------------------------- 

  PAW_PBE Ta_pv 07Sep2000               :
 energy of atom  1       EATOM=-1047.1984
 kinetic energy error for atom=    0.0019 (will be added to EATOM!!)
  PAW_PBE Ni 02Aug2007                  :
 energy of atom  2       EATOM=-1077.6739
 kinetic energy error for atom=    0.0030 (will be added to EATOM!!)
  PAW_PBE Li_sv 10Sep2004               :
 energy of atom  3       EATOM= -202.7858
 kinetic energy error for atom=    0.0143 (will be added to EATOM!!)
  PAW_PBE O 08Apr2002                   :
 energy of atom  4       EATOM= -432.3788
 kinetic energy error for atom=    0.0224 (will be added to EATOM!!)
 
 
 POSCAR: ce344135_1                              
  positions in direct lattice
  No initial velocities read in
 exchange correlation table for  LEXCH =       14
   RHO(1)=    0.500       N(1)  =     2000
   RHO(2)=  100.500       N(2)  =     4000
 


--------------------------------------------------------------------------------------------------------


 ion  position               nearest neighbor table
   1  0.999  0.999  0.977- 108 1.90 105 1.91  72 2.02  93 2.04  60 2.14  57 2.15  25 2.74  14 2.82
                            21 2.85  54 2.91  53 2.92  36 3.03   4 3.25   7 3.26   8 3.36
   2  0.916  0.335  0.221-  80 1.91  59 1.92  56 2.01  77 2.01  74 2.14  71 2.14  13 2.78  22 2.85
                            18 2.86  30 2.90  40 2.95  39 3.04  28 3.05  26 3.06  37 3.08  16 3.09
   3  0.084  0.665  0.112-  55 1.91  58 1.92  79 2.01  94 2.01  61 2.14  64 2.14  15 2.78  17 2.85
                            27 2.86  29 2.90  28 2.95  47 3.04  40 3.05  19 3.06  31 3.08  23 3.09
   4  0.363  1.000  0.984-  99 1.90  66 1.93  96 1.94  60 2.13  93 2.14  63 2.15  24 2.78  14 2.78
                            50 2.90  33 2.95  20 2.96  21 2.96  48 2.99   1 3.25   8 3.26
   5  0.446  0.667  0.109-  61 1.99 100 1.99  70 2.00  85 2.00  67 2.02  64 2.02  15 2.87  23 2.92
                            19 2.94  32 2.99  43 3.02  35 3.02  34 3.07   3 3.18  12 3.18  10 3.18
   6  0.554  0.333  0.224-  74 1.99  89 1.99  65 2.00  68 2.00  86 2.02  71 2.02  13 2.87  16 2.92
                            26 2.94  36 2.99  34 3.02  33 3.02  43 3.07   2 3.18   9 3.18  11 3.18
   7  0.637  0.000  0.349-  90 1.90  69 1.93  75 1.94  57 2.13  78 2.14  72 2.15  21 2.78  20 2.78
                            45 2.90  35 2.95  14 2.96  24 2.96  38 2.99   8 3.25   1 3.26
   8  0.001  0.001  0.356-  81 1.90  84 1.91  63 2.02  78 2.04  57 2.14  60 2.15  25 2.74  20 2.82
                            24 2.85  41 2.91  42 2.92  32 3.03   7 3.25   4 3.26   1 3.36
   9  0.196  0.334  0.583- 104 1.93 107 1.93  92 2.01  83 2.01  89 2.12  86 2.17  26 2.77  22 2.82
                            18 2.84  52 2.88  54 2.89  42 3.02  16 3.04  13 3.05  46 3.08  43 3.09
  10  0.444  0.667  0.471-  76 1.93  91 1.93  88 2.00  73 2.00  85 2.13  70 2.16  23 2.74  27 2.84
                            17 2.85  46 2.95  38 2.96  19 3.03  37 3.03  15 3.06   5 3.18
  11  0.556  0.333  0.863-  95 1.93  98 1.93 101 2.00  62 2.00  68 2.13  65 2.16  16 2.74  18 2.84
                            22 2.85  49 2.95  48 2.96  26 3.03  31 3.03  13 3.06   6 3.18
  12  0.804  0.666  0.750- 103 1.93  82 1.93  97 2.01 106 2.01 100 2.12  67 2.17  19 2.77  17 2.82
                            27 2.84  52 2.88  41 2.89  53 3.02  23 3.04  15 3.05  49 3.08  34 3.09
  13  0.230  0.335  0.223-  62 2.02  83 2.03  65 2.17  86 2.17  59 2.20  80 2.23   2 2.78   6 2.87
                            22 3.00  18 3.00   9 3.05  11 3.06
  14  0.670  0.996  0.999- 102 1.97  69 2.12  72 2.12  66 2.14 105 2.25  99 2.30   4 2.78   1 2.82
                            25 2.94  24 2.94   7 2.96  20 3.00
  15  0.770  0.665  0.111-  73 2.02 106 2.03  70 2.17  67 2.17  58 2.20  55 2.23   3 2.78   5 2.87
                            17 3.00  27 3.00  12 3.05  10 3.06
  16  0.554  0.333  0.554-  77 2.04  92 2.05  98 2.17  89 2.18  74 2.23  95 2.23  11 2.74   6 2.92
                            22 2.96  18 2.97   9 3.04   2 3.09
  17  0.777  0.670  0.446-  73 2.02  79 2.05  97 2.07  82 2.18  58 2.18  76 2.19  12 2.82  10 2.85
                             3 2.85  23 2.96  19 2.98  15 3.00
  18  0.888  0.336  0.557-  77 2.04 101 2.05  83 2.08 104 2.13  98 2.17  80 2.19  11 2.84   9 2.84
                             2 2.86  26 2.95  16 2.97  13 3.00
  19  0.117  0.670  0.441-  79 2.00  88 2.01 103 2.17  85 2.17  64 2.24  82 2.29  12 2.77   5 2.94
                            27 2.95  17 2.98  10 3.03   3 3.06
  20  0.330  0.004  0.334-  87 1.97  66 2.12  63 2.12  69 2.14  84 2.25  90 2.30   7 2.78   8 2.82
                            25 2.94  21 2.94   4 2.96  14 3.00
  21  0.330  0.002  0.667-  87 1.96  96 2.11  75 2.16  93 2.18 108 2.22  90 2.30   7 2.78  45 2.84
                             1 2.85  25 2.92  20 2.94   4 2.96  24 3.00
  22  0.223  0.330  0.888-  62 2.02  56 2.05  92 2.07 107 2.18  59 2.18  95 2.19   9 2.82  11 2.85
                             2 2.85  16 2.96  26 2.98  13 3.00
  23  0.446  0.667  0.779-  94 2.04  97 2.05  91 2.17 100 2.18  61 2.23  76 2.23  10 2.74   5 2.92
                            17 2.96  27 2.97  12 3.04   3 3.09
  24  0.670  0.998  0.667- 102 1.96  75 2.11  96 2.16  78 2.18  81 2.22  99 2.30   4 2.78  50 2.84
                             8 2.85  25 2.92  14 2.94   7 2.96  21 3.00
  25  0.000  0.000  0.667-  87 2.01 102 2.01 108 2.20  81 2.20 105 2.24  84 2.24   1 2.74   8 2.74
                            21 2.92  24 2.92  14 2.94  20 2.94
  26  0.883  0.330  0.893-  56 2.00 101 2.01 104 2.17  68 2.17  71 2.24 107 2.29   9 2.77   6 2.94
                            18 2.95  22 2.98  11 3.03   2 3.06
  27  0.112  0.664  0.776-  94 2.04  88 2.05 106 2.08 103 2.13  91 2.17  55 2.19  10 2.84  12 2.84
                             3 2.86  19 2.95  23 2.97  15 3.00
  28  0.002  0.500  0.984- 107 2.04  59 2.11 106 2.12  58 2.19  94 2.20  71 2.24   3 2.95   2 3.05

  29  0.874  0.827  0.231-  78 2.05  72 2.05  55 2.09  73 2.09  79 2.16   3 2.90
  30  0.126  0.173  0.102-  93 2.05  63 2.05  80 2.09  62 2.09  56 2.16   2 2.90
  31  0.321  0.497  1.000-  95 1.99  59 2.02  64 2.04  94 2.10  65 2.26  11 3.03   3 3.08
  32  0.220  0.831  0.231-  84 1.97  61 2.04  66 2.11  79 2.12  85 2.18   5 2.99   8 3.03
  33  0.442  0.164  0.117-  99 1.99  68 2.04  69 2.15  63 2.17  62 2.20  86 2.24   4 2.95   6 3.02

  34  0.681  0.499  0.993- 106 2.06 100 2.06  65 2.07 101 2.11  71 2.17   6 3.02   5 3.07  12 3.09

  35  0.558  0.836  0.216-  90 1.99  85 2.04  66 2.15  72 2.17  73 2.20  67 2.24   7 2.95   5 3.02

  36  0.780  0.169  0.102- 105 1.97  74 2.04  69 2.11  56 2.12  68 2.18   6 2.99   1 3.03
  37  0.679  0.503  0.334-  76 1.99  58 2.02  71 2.04  77 2.10  70 2.26  10 3.03   2 3.08
  38  0.556  0.834  0.569-  90 2.04  91 2.08  97 2.11  96 2.12  78 2.22  10 2.96   7 2.99
  39  0.769  0.173  0.462-  98 1.99  81 2.01  80 2.06  75 2.07  74 2.23   2 3.04
  40  0.998  0.500  0.349-  82 2.04  58 2.11  83 2.12  59 2.19  77 2.20  64 2.24   2 2.95   3 3.05

  41  0.885  0.836  0.563-  84 1.99 103 2.07  97 2.16 102 2.17  78 2.17  12 2.89   8 2.91
  42  0.114  0.166  0.449-  81 2.02 104 2.04  87 2.15  86 2.19  80 2.20  63 2.23   8 2.92   9 3.02

  43  0.319  0.501  0.341-  83 2.06  89 2.06  70 2.07  88 2.11  64 2.17   5 3.02   6 3.07   9 3.09

  44  0.214  0.841  0.561-  84 2.09 108 2.10  91 2.12 103 2.17  90 2.17
  45  0.424  0.162  0.461-  86 2.02  87 2.05  92 2.08  75 2.11  69 2.23  21 2.84   7 2.90   9 3.09

  46  0.332  0.501  0.683- 107 2.01  95 2.03  76 2.07  94 2.13  10 2.95   9 3.08
  47  0.231  0.827  0.871-  91 1.99 108 2.01  55 2.06  96 2.07  61 2.23   3 3.04
  48  0.444  0.166  0.764-  99 2.04  98 2.08  92 2.11  75 2.12  93 2.22  11 2.96   4 2.99
  49  0.668  0.499  0.650-  82 2.01  76 2.03  95 2.07  77 2.13  11 2.95  12 3.08
  50  0.576  0.838  0.872-  67 2.02 102 2.05  97 2.08  96 2.11  66 2.23  24 2.84   4 2.90  12 3.09

  51  0.786  0.159  0.772- 105 2.09  81 2.10  98 2.12 104 2.17  99 2.17
  52  0.000  0.500  0.667- 107 2.04  82 2.04 106 2.19  83 2.19  88 2.24 101 2.24   9 2.88  12 2.88

  53  0.886  0.834  0.885- 108 2.02 103 2.04 102 2.15  67 2.19  55 2.20  72 2.23   1 2.92  12 3.02

  54  0.115  0.164  0.770- 105 1.99 104 2.07  92 2.16  87 2.17  93 2.17   9 2.89   1 2.91
  55  0.007  0.752  0.004-   3 1.91  47 2.06  29 2.09  27 2.19  53 2.20  15 2.23
  56  0.993  0.260  0.007-  26 2.00   2 2.01  22 2.05  36 2.12  30 2.16
  57  0.883  0.066  0.224-   7 2.13   8 2.14   1 2.15
  58  0.896  0.580  0.222-   3 1.92  37 2.02  40 2.11  17 2.18  28 2.19  15 2.20
  59  0.104  0.420  0.112-   2 1.92  31 2.02  28 2.11  22 2.18  40 2.19  13 2.20
  60  0.117  0.934  0.109-   4 2.13   1 2.14   8 2.15
  61  0.316  0.744  0.027-   5 1.99  32 2.04   3 2.14  23 2.23  47 2.23
  62  0.337  0.262  0.003-  11 2.00  13 2.02  22 2.02  30 2.09  33 2.20
  63  0.213  0.079  0.215-   8 2.02  30 2.05  20 2.12   4 2.15  33 2.17  42 2.23
  64  0.234  0.587  0.198-   5 2.02  31 2.04   3 2.14  43 2.17  19 2.24  40 2.24
  65  0.470  0.412  0.095-   6 2.00  34 2.07  11 2.16  13 2.17  31 2.26
  66  0.433  0.920  0.112-   4 1.93  32 2.11  20 2.12  14 2.14  35 2.15  50 2.23
  67  0.659  0.745  0.984-   5 2.02  50 2.02  15 2.17  12 2.17  53 2.19  35 2.24
  68  0.639  0.256  0.013-   6 2.00  33 2.04  11 2.13  26 2.17  36 2.18
  69  0.567  0.080  0.221-   7 1.93  36 2.11  14 2.12  20 2.14  33 2.15  45 2.23
  70  0.530  0.588  0.238-   5 2.00  43 2.07  10 2.16  15 2.17  37 2.26
  71  0.766  0.413  0.135-   6 2.02  37 2.04   2 2.14  34 2.17  26 2.24  28 2.24
  72  0.787  0.921  0.119-   1 2.02  29 2.05  14 2.12   7 2.15  35 2.17  53 2.23
  73  0.663  0.738  0.331-  10 2.00  15 2.02  17 2.02  29 2.09  35 2.20
  74  0.684  0.256  0.306-   6 1.99  36 2.04   2 2.14  16 2.23  39 2.23
  75  0.566  0.081  0.545-   7 1.94  39 2.07  45 2.11  24 2.11  48 2.12  21 2.16
  76  0.554  0.579  0.546-  10 1.93  37 1.99  49 2.03  46 2.07  17 2.19  23 2.23
  77  0.777  0.407  0.439-   2 2.01  16 2.04  18 2.04  37 2.10  49 2.13  40 2.20
  78  0.789  0.920  0.427-   8 2.04  29 2.05   7 2.14  41 2.17  24 2.18  38 2.22
  79  0.007  0.740  0.326-  19 2.00   3 2.01  17 2.05  32 2.12  29 2.16
  80  0.993  0.248  0.329-   2 1.91  39 2.06  30 2.09  18 2.19  42 2.20  13 2.23
  81  0.900  0.088  0.535-   8 1.90  39 2.01  42 2.02  51 2.10  25 2.20  24 2.22
  82  0.878  0.578  0.567-  12 1.93  49 2.01  52 2.04  40 2.04  17 2.18  19 2.29
  83  0.119  0.409  0.444-   9 2.01  13 2.03  43 2.06  18 2.08  40 2.12  52 2.19
  84  0.100  0.910  0.435-   8 1.91  32 1.97  41 1.99  44 2.09  25 2.24  20 2.25
  85  0.361  0.744  0.320-   5 2.00  35 2.04  10 2.13  19 2.17  32 2.18
  86  0.341  0.255  0.350-   6 2.02  45 2.02  13 2.17   9 2.17  42 2.19  33 2.24
  87  0.223  0.071  0.554-  21 1.96  20 1.97  25 2.01  45 2.05  42 2.15  54 2.17
  88  0.228  0.594  0.548-  10 2.00  19 2.01  27 2.05  43 2.11  52 2.24
  89  0.428  0.409  0.436-   6 1.99  43 2.06   9 2.12  16 2.18
  90  0.467  0.907  0.433-   7 1.90  35 1.99  38 2.04  44 2.17  21 2.30  20 2.30
  91  0.336  0.753  0.658-  10 1.93  47 1.99  38 2.08  44 2.12  23 2.17  27 2.17
  92  0.332  0.256  0.660-   9 2.01  16 2.05  22 2.07  45 2.08  48 2.11  54 2.16
  93  0.211  0.080  0.907-   1 2.04  30 2.05   4 2.14  54 2.17  21 2.18  48 2.22
  94  0.223  0.593  0.895-   3 2.01  23 2.04  27 2.04  31 2.10  46 2.13  28 2.20
  95  0.446  0.421  0.787-  11 1.93  31 1.99  46 2.03  49 2.07  22 2.19  16 2.23
  96  0.434  0.919  0.789-   4 1.94  47 2.07  50 2.11  21 2.11  38 2.12  24 2.16
  97  0.668  0.744  0.673-  12 2.01  23 2.05  17 2.07  50 2.08  38 2.11  41 2.16
  98  0.664  0.247  0.676-  11 1.93  39 1.99  48 2.08  51 2.12  16 2.17  18 2.17
  99  0.533  0.093  0.900-   4 1.90  33 1.99  48 2.04  51 2.17  24 2.30  14 2.30
 100  0.572  0.591  0.898-   5 1.99  34 2.06  12 2.12  23 2.18
 101  0.772  0.406  0.786-  11 2.00  26 2.01  18 2.05  34 2.11  52 2.24
 102  0.777  0.929  0.779-  24 1.96  14 1.97  25 2.01  50 2.05  53 2.15  41 2.17
 103  0.992  0.751  0.674-  12 1.93  53 2.04  41 2.07  27 2.13  44 2.17  19 2.17
 104  0.008  0.249  0.660-   9 1.93  42 2.04  54 2.07  18 2.13  51 2.17  26 2.17
 105  0.900  0.090  0.898-   1 1.91  36 1.97  54 1.99  51 2.09  25 2.24  14 2.25
 106  0.881  0.591  0.890-  12 2.01  15 2.03  34 2.06  27 2.08  28 2.12  52 2.19
 107  0.122  0.422  0.766-   9 1.93  46 2.01  52 2.04  28 2.04  22 2.18  26 2.29
 108  0.100  0.912  0.798-   1 1.90  47 2.01  53 2.02  44 2.10  25 2.20  21 2.22
 
  LATTYP: Found a triclinic cell.
 ALAT       =    15.3533903226
 B/A-ratio  =     0.5786164324
 C/A-ratio  =     2.2055786714
 COS(alpha) =     0.0001705452
 COS(beta)  =     0.4478266490
 COS(gamma) =     0.8672157154
  
  Lattice vectors:
  
 A1 = ( -13.2726105659,  -0.0127532239,   7.7177872813)
 A2 = (  -4.4364532485,   0.0148025456,   7.6966365634)
 A3 = ( -26.4263233349,  14.6857835120, -15.2540955811)


Analysis of symmetry for initial positions (statically):
=====================================================================
 Subroutine PRICEL returns:
 Original cell was already a primitive cell.
 

 Routine SETGRP: Setting up the symmetry group for a 
 triclinic supercell.


 Subroutine GETGRP returns: Found  2 space group operations
 (whereof  1 operations were pure point group operations)
 out of a pool of  2 trial point group operations.


The static configuration has the point symmetry C_1 .
 The point group associated with its full space group is S_2 .


Analysis of symmetry for dynamics (positions and initial velocities):
=====================================================================
 Subroutine PRICEL returns:
 Original cell was already a primitive cell.
 

 Routine SETGRP: Setting up the symmetry group for a 
 triclinic supercell.


 Subroutine GETGRP returns: Found  2 space group operations
 (whereof  1 operations were pure point group operations)
 out of a pool of  2 trial point group operations.


The dynamic configuration has the point symmetry C_1 .
 The point group associated with its full space group is S_2 .


Analysis of structural, dynamic, and magnetic symmetry:
=====================================================================
 Subroutine PRICEL returns:
 Original cell was already a primitive cell.
 

 Routine SETGRP: Setting up the symmetry group for a 
 triclinic supercell.


 Subroutine GETGRP returns: Found  2 space group operations
 (whereof  1 operations were pure point group operations)
 out of a pool of  2 trial point group operations.


The magnetic configuration has the point symmetry C_1 .
 The point group associated with its full space group is S_2 .


 Subroutine INISYM returns: Found  2 space group operations
 (whereof  1 operations are pure point group operations),
 and found     1 'primitive' translations

 
 
 KPOINTS: Automatic mesh                          

Automatic generation of k-mesh.
Space group operators:
 irot       det(A)        alpha          n_x          n_y          n_z        tau_x        tau_y        tau_z
    1     1.000000     0.000000     1.000000     0.000000     0.000000     0.000000     0.000000     0.000000
    2    -1.000000     0.000000     1.000000     0.000000     0.000000    -2.000000    -0.000000     1.333333
 
 Subroutine IBZKPT returns following result:
 ===========================================
 
 Found      1 irreducible k-points:
 
 Following reciprocal coordinates:
            Coordinates               Weight
  0.000000  0.000000  0.000000      1.000000
 
 Following cartesian coordinates:
            Coordinates               Weight
  0.000000  0.000000  0.000000      1.000000
 


--------------------------------------------------------------------------------------------------------




 Dimension of arrays:
   k-points           NKPTS =      1   k-points in BZ     NKDIM =      1   number of bands    NBANDS=    432
   number of dos      NEDOS =    301   number of ions     NIONS =    108
   non local maximal  LDIM  =      6   non local SUM 2l+1 LMDIM =     18
   total plane-waves  NPLWV = 483840
   max r-space proj   IRMAX =   8467   max aug-charges    IRDMAX=  27193
   dimension x,y,z NGX =    64 NGY =  108 NGZ =   70
   dimension x,y,z NGXF=   128 NGYF=  216 NGZF=  140
   support grid    NGXF=   128 NGYF=  216 NGZF=  140
   ions per type =              12  15  27  54
   NGX,Y,Z   is equivalent  to a cutoff of  12.04, 12.11, 13.15 a.u.
   NGXF,Y,Z  is equivalent  to a cutoff of  24.08, 24.22, 26.31 a.u.

 SYSTEM =  unknown system                          
 POSCAR =  ce344135_1                              

 Startparameter for this run:
   NWRITE =      1    write-flag & timer
   PREC   = accura    normal or accurate (medium, high low for compatibility)
   ISTART =      0    job   : 0-new  1-cont  2-samecut
   ICHARG =      2    charge: 1-file 2-atom 10-const
   ISPIN  =      2    spin polarized calculation?
   LNONCOLLINEAR =      F non collinear calculations
   LSORBIT =      F    spin-orbit coupling
   INIWAV =      1    electr: 0-lowe 1-rand  2-diag
   LASPH  =      F    aspherical Exc in radial PAW
   METAGGA=      F    non-selfconsistent MetaGGA calc.

 Electronic Relaxation 1
   ENCUT  =  500.0 eV  36.75 Ry    6.06 a.u.  16.11 27.03 16.13*2*pi/ulx,y,z
   ENINI  =  500.0     initial cutoff
   ENAUG  =  628.9 eV  augmentation charge cutoff
   NELM   =     80;   NELMIN=  2; NELMDL= -5     # of ELM steps 
   EDIFF  = 0.1E-04   stopping-criterion for ELM
   LREAL  =      T    real-space projection
   NLSPLINE    = F    spline interpolate recip. space projectors
   LCOMPAT=      F    compatible to vasp.4.4
   GGA_COMPAT  = T    GGA compatible to vasp.4.4-vasp.4.6
   LMAXPAW     = -100 max onsite density
   LMAXMIX     =    2 max onsite mixed and CHGCAR
   VOSKOWN=      1    Vosko Wilk Nusair interpolation
   ROPT   =   -0.00025  -0.00025  -0.00025  -0.00025
 Ionic relaxation
   EDIFFG = -.2E-01   stopping-criterion for IOM
   NSW    =     20    number of steps for IOM
   NBLOCK =      1;   KBLOCK =     20    inner block; outer block 
   IBRION =      1    ionic relax: 0-MD 1-quasi-New 2-CG
   NFREE  =      0    steps in history (QN), initial steepest desc. (CG)
   ISIF   =      3    stress and relaxation
   IWAVPR =     11    prediction:  0-non 1-charg 2-wave 3-comb
   ISYM   =      2    0-nonsym 1-usesym 2-fastsym
   LCORR  =      T    Harris-Foulkes like correction to forces

   POTIM  = 0.5000    time-step for ionic-motion
   TEIN   =    0.0    initial temperature
   TEBEG  =    0.0;   TEEND  =   0.0 temperature during run
   SMASS  =  -3.00    Nose mass-parameter (am)
   estimated Nose-frequenzy (Omega)   =  0.10E-29 period in steps =****** mass=  -0.178E-26a.u.
   SCALEE = 1.0000    scale energy and forces
   NPACO  =    256;   APACO  = 16.0  distance and # of slots for P.C.
   PSTRESS=    0.0 pullay stress

  Mass of Ions in am
   POMASS = 180.95 58.69  7.01 16.00
  Ionic Valenz
   ZVAL   =  11.00 10.00  3.00  6.00
  Atomic Wigner-Seitz radii
   RWIGS  =   1.34  1.15  1.23  0.73
  virtual crystal weights 
   VCA    =   1.00  1.00  1.00  1.00
   NELECT =     687.0000    total number of electrons
   NUPDOWN=      -1.0000    fix difference up-down

 DOS related values:
   EMIN   =  10.00;   EMAX   =-10.00  energy-range for DOS
   EFERMI =   0.00
   ISMEAR =     0;   SIGMA  =   0.05  broadening in eV -4-tet -1-fermi 0-gaus

 Electronic relaxation 2 (details)
   IALGO  =     38    algorithm
   LDIAG  =      T    sub-space diagonalisation (order eigenvalues)
   LSUBROT=      F    optimize rotation matrix (better conditioning)
   TURBO    =      0    0=normal 1=particle mesh
   IRESTART =      0    0=no restart 2=restart with 2 vectors
   NREBOOT  =      0    no. of reboots
   NMIN     =      0    reboot dimension
   EREF     =   0.00    reference energy to select bands
   IMIX   =      4    mixing-type and parameters
     AMIX     =   0.40;   BMIX     =  1.00
     AMIX_MAG =   1.60;   BMIX_MAG =  1.00
     AMIN     =   0.10
     WC   =   100.;   INIMIX=   1;  MIXPRE=   1;  MAXMIX= -45

 Intra band minimization:
   WEIMIN = 0.0010     energy-eigenvalue tresh-hold
   EBREAK =  0.58E-08  absolut break condition
   DEPER  =   0.30     relativ break condition  

   TIME   =   0.40     timestep for ELM

  volume/ion in A,a.u.               =       9.32        62.91
  Fermi-wavevector in a.u.,A,eV,Ry     =   1.441246  2.723559 28.261868  2.077189
  Thomas-Fermi vector in A             =   2.559899
 
 Write flags
   LWAVE        =      F    write WAVECAR
   LDOWNSAMPLE  =      F    k-point downsampling of WAVECAR
   LCHARG       =      T    write CHGCAR
   LVTOT        =      F    write LOCPOT, total local potential
   LVHAR        =      F    write LOCPOT, Hartree potential only
   LELF         =      F    write electronic localiz. function (ELF)
   LORBIT       =      0    0 simple, 1 ext, 2 COOP (PROOUT), +10 PAW based schemes


 Dipole corrections
   LMONO  =      F    monopole corrections only (constant potential shift)
   LDIPOL =      F    correct potential (dipole corrections)
   IDIPOL =      0    1-x, 2-y, 3-z, 4-all directions 
   EPSILON=  1.0000000 bulk dielectric constant

 Exchange correlation treatment:
   GGA     =    PS    GGA type
   LEXCH   =    14    internal setting for exchange type
   VOSKOWN=      1    Vosko Wilk Nusair interpolation
   LHFCALC =     F    Hartree Fock is set to
   LHFONE  =     F    Hartree Fock one center treatment
   AEXX    =    0.0000 exact exchange contribution

 Linear response parameters
   LEPSILON=     F    determine dielectric tensor
   LRPA    =     F    only Hartree local field effects (RPA)
   LNABLA  =     F    use nabla operator in PAW spheres
   LVEL    =     F    velocity operator in full k-point grid
   LINTERFAST=   F  fast interpolation
   KINTER  =     0    interpolate to denser k-point grid
   CSHIFT  =0.1000    complex shift for real part using Kramers Kronig
   OMEGAMAX=  -1.0    maximum frequency
   DEG_THRESHOLD= 0.2000000E-02 threshold for treating states as degnerate
   RTIME   =   -0.100 relaxation time in fs
  (WPLASMAI=    0.000 imaginary part of plasma frequency in eV, 0.658/RTIME)
   DFIELD  = 0.0000000 0.0000000 0.0000000 field for delta impulse in time
 
 Orbital magnetization related:
   ORBITALMAG=     F  switch on orbital magnetization
   LCHIMAG   =     F  perturbation theory with respect to B field
   DQ        =  0.001000  dq finite difference perturbation B field
   LLRAUG    =     F  two centre corrections for induced B field



--------------------------------------------------------------------------------------------------------


 quasi-Newton-method for relaxation of ions
 charge density and potential will be updated during run
 spin polarized calculation
 Variant of blocked Davidson
 Davidson routine will perform the subspace rotation
 perform sub-space diagonalisation
    after iterative eigenvector-optimisation
 modified Broyden-mixing scheme, WC =      100.0
 initial mixing is a Kerker type mixing with AMIX =  0.4000 and BMIX =      1.0000
 Hartree-type preconditioning will be used
 using additional bands           88
 real space projection scheme for non local part
 use partial core corrections
 calculate Harris-corrections to forces 
   (improved forces if not selfconsistent)
 use gradient corrections 
 use of overlap-Matrix (Vanderbilt PP)
 Gauss-broadening in eV      SIGMA  =   0.05


--------------------------------------------------------------------------------------------------------


  energy-cutoff  :      500.00
  volume of cell :     1006.86
      direct lattice vectors                 reciprocal lattice vectors
     8.836157317  0.027555769 -0.021150718     0.113016636 -0.000107613 -0.064782244
     0.045399438 14.825611681  0.054574674    -0.000210954  0.067452414 -0.000251324
     4.399704069  0.042358315  7.675485845     0.000312931 -0.000479901  0.130108184

  length of vectors
     8.836225598 14.825781640  8.847161866     0.130267074  0.067453212  0.130109445


 
 k-points in units of 2pi/SCALE and weight: Automatic mesh                          
   0.00000000  0.00000000  0.00000000       1.000
 
 k-points in reciprocal lattice and weights: Automatic mesh                          
   0.00000000  0.00000000  0.00000000       1.000
 
 position of ions in fractional coordinates (direct lattice) 
   0.99904601  0.99932242  0.97717121
   0.91553351  0.33506835  0.22095407
   0.08446649  0.66493165  0.11237926
   0.36319685  0.99998032  0.98421055
   0.44619708  0.66676359  0.10944653
   0.55380293  0.33323641  0.22388680
   0.63680315  0.00001968  0.34912278
   0.00095399  0.00067758  0.35616212
   0.19618327  0.33418668  0.58310211
   0.44356008  0.66714881  0.47068073
   0.55643992  0.33285119  0.86265260
   0.80381673  0.66581332  0.75023123
   0.22980134  0.33477059  0.22254502
   0.67007977  0.99639392  0.99914500
   0.77019866  0.66522941  0.11078831
   0.55422784  0.33317099  0.55412700
   0.77736404  0.66998077  0.44556377
   0.88837249  0.33620926  0.55684065
   0.11661628  0.67000139  0.44053675
   0.32992024  0.00360608  0.33418833
   0.32998911  0.00196861  0.66682332
   0.22263596  0.33001923  0.88776956
   0.44577215  0.66682901  0.77920634
   0.67001088  0.99803139  0.66651002
   0.00000000  0.00000000  0.66666667
   0.88338373  0.32999861  0.89279658
   0.11162750  0.66379074  0.77649269
   0.00187066  0.49966400  0.98401881
   0.87402082  0.82723144  0.23108887
   0.12597918  0.17276856  0.10224446
   0.32066687  0.49656472  0.99976262
   0.21955289  0.83065508  0.23146238
   0.44187966  0.16445537  0.11690329
   0.68077505  0.49874090  0.99280032
   0.55812035  0.83554463  0.21643004
   0.78044711  0.16934492  0.10187095
   0.67933313  0.50343528  0.33357071
   0.55559331  0.83350188  0.56938206
   0.76882136  0.17252566  0.46199881
   0.99812934  0.50033600  0.34931452
   0.88536252  0.83564246  0.56312703
   0.11435187  0.16577693  0.44877571
   0.31922496  0.50125910  0.34053301
   0.21379732  0.84138604  0.56146849
   0.42448436  0.16217011  0.46141361
   0.33229392  0.50093397  0.68307666
   0.23117864  0.82747434  0.87133452
   0.44440668  0.16649812  0.76395128
   0.66770607  0.49906603  0.65025668
   0.57551564  0.83782989  0.87191972
   0.78620268  0.15861396  0.77186485
   0.00000000  0.50000000  0.66666667
   0.88564814  0.83422307  0.88455762
   0.11463747  0.16435754  0.77020631
   0.00702389  0.75176580  0.00396602
   0.99328397  0.25985174  0.00743775
   0.88319267  0.06628105  0.22412920
   0.89637827  0.58036587  0.22150117
   0.10362173  0.41963413  0.11183216
   0.11680733  0.93371895  0.10920413
   0.31577601  0.74356245  0.02683408
   0.33746418  0.26161341  0.00251234
   0.21278542  0.07904590  0.21455628
   0.23396474  0.58738322  0.19785709
   0.47001989  0.41150894  0.09506118
   0.43303357  0.92008876  0.11230134
   0.65882845  0.74549321  0.98363452
   0.63931810  0.25603608  0.01303549
   0.56696644  0.07991124  0.22103199
   0.52998012  0.58849106  0.23827215
   0.76603526  0.41261678  0.13547624
   0.78721458  0.92095410  0.11877705
   0.66253582  0.73838659  0.33082099
   0.68422399  0.25643755  0.30649925
   0.56625019  0.08093858  0.54463941
   0.55395489  0.57872007  0.54606160
   0.77699757  0.40739333  0.43882481
   0.78940607  0.92039220  0.42677567
   0.00671603  0.74014826  0.32589558
   0.99297611  0.24823420  0.32936731
   0.89995551  0.08835310  0.53513680
   0.87848323  0.57763236  0.56743469
   0.11873578  0.40935879  0.44358565
   0.10020740  0.90969126  0.43503051
   0.36068191  0.74396392  0.32029784
   0.34117156  0.25450679  0.34969881
   0.22319507  0.07111710  0.55436075
   0.22788857  0.59393156  0.54750910
   0.42762805  0.40926522  0.43558557
   0.46673590  0.90690285  0.43348029
   0.33609937  0.75300698  0.65774552
   0.33236715  0.25642725  0.66023841
   0.21059393  0.07960780  0.90655766
   0.22300243  0.59260667  0.89450852
   0.44604510  0.42127993  0.78727174
   0.43374980  0.91906142  0.78869393
   0.66763284  0.74357275  0.67309493
   0.66390062  0.24699302  0.67558782
   0.53326410  0.09309715  0.89985304
   0.57237195  0.59073478  0.89774776
   0.77211143  0.40606844  0.78582424
   0.77680493  0.92888290  0.77897259
   0.99157362  0.75133677  0.67380442
   0.00842638  0.24866323  0.65952892
   0.89979261  0.09030874  0.89830282
   0.88126423  0.59064121  0.88974768
   0.12151676  0.42236764  0.76589865
   0.10004448  0.91164690  0.79819654
 
 position of ions in cartesian coordinates  (Angst):
  13.17236054 14.88448695  7.53367095
   9.07714256  5.00218072  1.69485189
   1.27098220  9.86510617  0.89706732
   7.58489821 14.87701758  7.60118587
   4.45447063  9.90210934  0.86700631
   5.89365422  4.96517755  1.72491290
   7.16293062  0.03262762  2.66621919
   1.57546830  0.02515825  2.73373411
   4.31415485  4.98462715  4.48968070
   6.02051075  9.92304907  3.63973110
   8.72731808  4.98659613  6.62767396
  10.43367403  9.92501805  5.77772443
   3.02489142  4.97893775  1.72155068
  10.36210831 14.83293600  7.70912851
   7.32323334  9.88834913  0.87036853
   7.35036498  4.97820778  4.25965433
   8.85967643  9.97316892  3.44004058
  10.31499686  5.03257455  4.27358132
   2.99908881  9.95505428  3.41543218
   4.38572061  0.07670920  2.55827655
   5.84975034  0.06652446  5.11132088
   5.88815240  4.93647628  6.82736447
   7.39746381  9.93143742  6.00775081
   8.89807845 14.84312074  5.15608425
   2.93313606  0.02823888  5.11699059
  11.74874011  4.95459092  6.85197288
   4.43283192  9.87707065  5.99382381
   4.36860547  7.44955736  7.58005188
   8.77726395 12.29808495  1.80037907
   1.57086082  2.56920194  0.79154014
   7.25466634  7.41306020  7.69398136
   2.99608112 12.33082396  1.81727525
   4.42632425  2.45527961  0.89691857
  10.40610560  7.45495154  7.63304454
   5.92180060 12.41200727  1.69500064
   7.35204364  2.53646293  0.77464396
   7.49316250  7.49658501  2.57342370
   7.45226297 12.39660307  4.40402084
   8.83391710  2.59855340  3.53921973
  10.37922336  7.46008784  2.68735318
  10.33873249 12.43716057  4.34915241
   2.99243761  2.47990483  3.45120021
   4.34172332  7.45469366  2.63436051
   4.39764041 12.50373691  4.35093985
   5.78825635  2.43551277  3.54144586
   5.96427863  7.46474311  5.26325529
   5.91391173 12.31109181  6.72818532
   7.29556581  2.51304213  5.86338430
   8.78355015  7.44490210  5.00414985
   8.95957248 12.47413243  6.72595919
  10.35018847  2.40590829  5.91646528
   2.95583578  7.44104472  5.14427793
  11.75539131 12.42974038  6.81620485
   4.40909630  2.47248463  5.91825272
   0.11364326 11.14574937  0.07131994
   8.82133444  3.88014675  0.05026100
   8.79314065  1.01648790  1.70523761
   8.92142729  8.63836183  1.71284333
   1.42669747  6.22892506  0.87907588
   1.55498411 13.85079899  0.88668160
   2.94206583 11.03360624  0.23986539
   3.00481724  3.88798433  0.02642329
   2.82777822  1.18685553  1.64663703
   2.96452876  8.72314350  1.54575702
   4.59009303  6.11785014  0.74215745
   4.36221692 13.65756814  0.90302192
  10.18305760 11.11221247  7.57662319
   5.71809150  3.81406056  0.10050477
   5.98590793  1.20971875  1.68889729
   5.75803183  8.74943675  1.84976176
   7.38359600  6.14414339  1.04616219
   7.52034654 13.68043136  0.94528218
   7.34330753 10.97930256  2.56549593
   7.40605893  3.83368065  2.35205382
   7.40340255  1.23863742  4.17281268
   7.32361556  8.61827393  4.21115500
   8.81486749  6.07985396  3.37399292
   8.89478816 13.68520754  3.30924421
   1.52679032 10.98714014  2.54165821
  10.23448151  3.72153752  2.52059927
  10.31060320  1.35735521  4.09322207
  10.28518492  8.61199592  4.36828048
   3.01939828  6.09105586  3.42456465
   2.84075333 13.50791782  3.38659717
   4.63003335 11.05322633  2.49141444
   4.56477132  3.79743274  2.69078187
   4.41443867  1.08398661  4.25414855
   4.44950143  8.83486988  4.22999196
   5.71361674  6.09784152  3.35662175
   6.07250971 13.47661225  3.36679396
   5.89789864 11.20091155  5.08250280
   5.85334370  3.83881605  5.07461520
   5.85304067  1.22443766  6.95816084
   5.93296134  8.82979125  6.89341214
   7.42421322  6.29137127  6.05625014
   7.34442623 13.67100778  6.09459245
   8.89448509 11.07082915  5.19278993
   8.84993015  3.70873366  5.18490234
   8.67531912  1.43303296  6.90061110
   9.03421209  8.81180369  6.91078330
  10.29832745  6.07477532  6.03741317
  10.33339020 13.82565860  6.01325659
  11.76035081 11.19489199  5.19180775
   2.98747806  3.71475322  5.07559738
  11.90707559  1.40172738  6.88080789
  11.72843064  8.81858935  6.84284040
   4.46264387  6.29764928  5.89912466
   4.43722559 13.55228999  6.17418306
 


--------------------------------------------------------------------------------------------------------


 use serial FFT for orbitals x direction half grid
 k-point  1 :   0.0000 0.0000 0.0000  plane waves:   12763

 maximum and minimum number of plane-waves per node :     12763    12763

 maximum number of plane-waves:     12763
 maximum index in each direction: 
   IXMAX=   16   IYMAX=   27   IZMAX=   16
   IXMIN=    0   IYMIN=  -26   IZMIN=  -13

 The following grids will avoid any aliasing or wrap around errors in the Hartre
 e energy
  - symmetry arguments have not been applied
  - exchange correlation energies might require even more grid points
  - we recommend to set PREC=Normal or Accurate and rely on VASP defaults
 WARNING: aliasing errors must be expected set NGX to    70 to avoid them
 NGY is ok and might be reduce to   108
 NGZ is ok and might be reduce to    60

 serial   3D FFT for wavefunctions
 parallel 3D FFT for charge:
    minimum data exchange during FFTs selected (reduces bandwidth)


 total amount of memory used by VASP MPI-rank0   159094. kBytes
=======================================================================

   base      :      30000. kBytes
   nonlr-proj:      43280. kBytes
   fftplans  :      10209. kBytes
   grid      :      62439. kBytes
   one-center:       1679. kBytes
   wavefun   :      11487. kBytes
 
     INWAV:  cpu time    0.0000: real time    0.0000
 Broyden mixing: mesh for mixing (old mesh)
   NGX = 33   NGY = 55   NGZ = 33
  (NGX  =128   NGY  =216   NGZ  =140)
  gives a total of  59895 points

 initial charge density was supplied:
 charge density of overlapping atoms calculated
 number of electron     687.0000000 magnetization      37.5000000
 keeping initial charge density in first step


--------------------------------------------------------------------------------------------------------


 Maximum index for non-local projection operator         8190
 Maximum index for augmentation-charges         1675 (set IRDMAX)


--------------------------------------------------------------------------------------------------------


 First call to EWALD:  gamma=   0.177
 Maximum number of real-space cells 3x 2x 3
 Maximum number of reciprocal cells 2x 4x 2

    FEWALD:  cpu time    0.0048: real time    0.0048


--------------------------------------- Iteration      1(   1)  ---------------------------------------


    POTLOK:  cpu time    0.3393: real time    0.3424
    SETDIJ:  cpu time    0.0397: real time    0.0398
     EDDAV:  cpu time    5.0521: real time    5.0821
    --------------------------------------------
      LOOP:  cpu time    5.4316: real time    5.4648

 eigenvalue-minimisations  :  1744
 total energy-change (2. order) : 0.1167725E+05  (-0.3424874E+05)
 number of electron     687.0000000 magnetization      37.5000000
 augmentation part      687.0000000 magnetization      37.5000000

 Free energy of the ion-electron system (eV)
  ---------------------------------------------------
  alpha Z        PSCENC =      3223.08493062
  Ewald energy   TEWEN  =    -43877.86009237
  -Hartree energ DENC   =    -13868.49059562
  -exchange      EXHF   =         0.00000000
  -V(xc)+E(xc)   XCENC  =      2650.43808139
  PAW double counting   =     45116.95700157   -46413.98586228
  entropy T*S    EENTRO =        -0.00000190
  eigenvalues    EBANDS =      7434.20871191
  atomic energy  EATOM  =     57412.89542408
  Solvation  Ediel_sol  =         0.00000000
  ---------------------------------------------------
  free energy    TOTEN  =     11677.24759739 eV

  energy without entropy =    11677.24759929  energy(sigma->0) =    11677.24759834


--------------------------------------------------------------------------------------------------------




--------------------------------------- Iteration      1(   2)  ---------------------------------------


     EDDAV:  cpu time    5.5953: real time    5.6087
    --------------------------------------------
      LOOP:  cpu time    5.5952: real time    5.6086

 eigenvalue-minimisations  :  1760
 total energy-change (2. order) :-0.1000879E+05  (-0.9381476E+04)
 number of electron     687.0000000 magnetization      37.5000000
 augmentation part      687.0000000 magnetization      37.5000000

 Free energy of the ion-electron system (eV)
  ---------------------------------------------------
  alpha Z        PSCENC =      3223.08493062
  Ewald energy   TEWEN  =    -43877.86009237
  -Hartree energ DENC   =    -13868.49059562
  -exchange      EXHF   =         0.00000000
  -V(xc)+E(xc)   XCENC  =      2650.43808139
  PAW double counting   =     45116.95700157   -46413.98586228
  entropy T*S    EENTRO =        -0.01314125
  eigenvalues    EBANDS =     -2574.56859764
  atomic energy  EATOM  =     57412.89542408
  Solvation  Ediel_sol  =         0.00000000
  ---------------------------------------------------
  free energy    TOTEN  =      1668.45714849 eV

  energy without entropy =     1668.47028974  energy(sigma->0) =     1668.46371912


--------------------------------------------------------------------------------------------------------




--------------------------------------- Iteration      1(   3)  ---------------------------------------


     EDDAV:  cpu time    5.2589: real time    5.2713
    --------------------------------------------
      LOOP:  cpu time    5.2589: real time    5.2714

 eigenvalue-minimisations  :  1920
 total energy-change (2. order) :-0.2235256E+04  (-0.1991146E+04)
 number of electron     687.0000000 magnetization      37.5000000
 augmentation part      687.0000000 magnetization      37.5000000

 Free energy of the ion-electron system (eV)
  ---------------------------------------------------
  alpha Z        PSCENC =      3223.08493062
  Ewald energy   TEWEN  =    -43877.86009237
  -Hartree energ DENC   =    -13868.49059562
  -exchange      EXHF   =         0.00000000
  -V(xc)+E(xc)   XCENC  =      2650.43808139
  PAW double counting   =     45116.95700157   -46413.98586228
  entropy T*S    EENTRO =        -0.05442594
  eigenvalues    EBANDS =     -4809.78303695
  atomic energy  EATOM  =     57412.89542408
  Solvation  Ediel_sol  =         0.00000000
  ---------------------------------------------------
  free energy    TOTEN  =      -566.79857550 eV

  energy without entropy =     -566.74414956  energy(sigma->0) =     -566.77136253


--------------------------------------------------------------------------------------------------------




--------------------------------------- Iteration      1(   4)  ---------------------------------------


     EDDAV:  cpu time    6.2729: real time    6.2878
    --------------------------------------------
      LOOP:  cpu time    6.2729: real time    6.2877

 eigenvalue-minimisations  :  2176
 total energy-change (2. order) :-0.3280188E+03  (-0.3146025E+03)
 number of electron     687.0000000 magnetization      37.5000000
 augmentation part      687.0000000 magnetization      37.5000000

 Free energy of the ion-electron system (eV)
  ---------------------------------------------------
  alpha Z        PSCENC =      3223.08493062
  Ewald energy   TEWEN  =    -43877.86009237
  -Hartree energ DENC   =    -13868.49059562
  -exchange      EXHF   =         0.00000000
  -V(xc)+E(xc)   XCENC  =      2650.43808139
  PAW double counting   =     45116.95700157   -46413.98586228
  entropy T*S    EENTRO =        -0.05153771
  eigenvalues    EBANDS =     -5137.80470530
  atomic energy  EATOM  =     57412.89542408
  Solvation  Ediel_sol  =         0.00000000
  ---------------------------------------------------
  free energy    TOTEN  =      -894.81735562 eV

  energy without entropy =     -894.76581792  energy(sigma->0) =     -894.79158677


--------------------------------------------------------------------------------------------------------




--------------------------------------- Iteration      1(   5)  ---------------------------------------


     EDDAV:  cpu time    8.3468: real time    8.3666
    CHARGE:  cpu time    0.3613: real time    0.3622
    MIXING:  cpu time    0.0065: real time    0.0081
    --------------------------------------------
      LOOP:  cpu time    8.7143: real time    8.7366

 eigenvalue-minimisations  :  3136
 total energy-change (2. order) :-0.2852019E+02  (-0.2797487E+02)
 number of electron     687.0000016 magnetization      34.9418230
 augmentation part      187.8964505 magnetization      30.6469325

 Broyden mixing:
  rms(total) = 0.13493E+02    rms(broyden)= 0.13491E+02
  rms(prec ) = 0.14407E+02
  weight for this iteration     100.00

 Free energy of the ion-electron system (eV)
  ---------------------------------------------------
  alpha Z        PSCENC =      3223.08493062
  Ewald energy   TEWEN  =    -43877.86009237
  -Hartree energ DENC   =    -13868.49059562
  -exchange      EXHF   =         0.00000000
  -V(xc)+E(xc)   XCENC  =      2650.43808139
  PAW double counting   =     45116.95700157   -46413.98586228
  entropy T*S    EENTRO =        -0.03218547
  eigenvalues    EBANDS =     -5166.34425086
  atomic energy  EATOM  =     57412.89542408
  Solvation  Ediel_sol  =         0.00000000
  ---------------------------------------------------
  free energy    TOTEN  =      -923.33754895 eV

  energy without entropy =     -923.30536348  energy(sigma->0) =     -923.32145621


--------------------------------------------------------------------------------------------------------




--------------------------------------- Iteration      1(   6)  ---------------------------------------


    POTLOK:  cpu time    0.2722: real time    0.2729
    SETDIJ:  cpu time    0.0391: real time    0.0392
     EDDAV:  cpu time    7.1199: real time    7.1368
    CHARGE:  cpu time    0.3433: real time    0.3441
    MIXING:  cpu time    0.0056: real time    0.0056
    --------------------------------------------
      LOOP:  cpu time    7.7800: real time    7.7985

 eigenvalue-minimisations  :  2512
 total energy-change (2. order) : 0.4943156E+02  (-0.1232883E+03)
 number of electron     687.0000008 magnetization      31.8452029
 augmentation part      210.7422441 magnetization      28.0658950

 Broyden mixing:
  rms(total) = 0.14206E+02    rms(broyden)= 0.14205E+02
  rms(prec ) = 0.15077E+02
  weight for this iteration     100.00

 eigenvalues of (default mixing * dielectric matrix)
  average eigenvalue GAMMA=   0.3763
  0.3763

 Free energy of the ion-electron system (eV)
  ---------------------------------------------------
  alpha Z        PSCENC =      3223.08493062
  Ewald energy   TEWEN  =    -43877.86009237
  -Hartree energ DENC   =    -13753.65218576
  -exchange      EXHF   =         0.00000000
  -V(xc)+E(xc)   XCENC  =      2677.30031797
  PAW double counting   =     56358.11224895   -57549.11404201
  entropy T*S    EENTRO =        -0.04971695
  eigenvalues    EBANDS =     -5364.62287192
  atomic energy  EATOM  =     57412.89542408
  Solvation  Ediel_sol  =         0.00000000
  ---------------------------------------------------
  free energy    TOTEN  =      -873.90598739 eV

  energy without entropy =     -873.85627044  energy(sigma->0) =     -873.88112892


--------------------------------------------------------------------------------------------------------




--------------------------------------- Iteration      1(   7)  ---------------------------------------


    POTLOK:  cpu time    0.2563: real time    0.2569
    SETDIJ:  cpu time    0.0391: real time    0.0392
     EDDAV:  cpu time    6.6369: real time    6.6526
    CHARGE:  cpu time    0.3670: real time    0.3678
    MIXING:  cpu time    0.0056: real time    0.0056
    --------------------------------------------
      LOOP:  cpu time    7.3049: real time    7.3223

 eigenvalue-minimisations  :  2288
 total energy-change (2. order) : 0.7623645E+02  (-0.4405007E+02)
 number of electron     687.0000012 magnetization      28.9380302
 augmentation part      196.4134776 magnetization      23.1406151

 Broyden mixing:
  rms(total) = 0.65499E+01    rms(broyden)= 0.65490E+01
  rms(prec ) = 0.72700E+01
  weight for this iteration     100.00

 eigenvalues of (default mixing * dielectric matrix)
  average eigenvalue GAMMA=   0.6724
  0.9429  0.4019

 Free energy of the ion-electron system (eV)
  ---------------------------------------------------
  alpha Z        PSCENC =      3223.08493062
  Ewald energy   TEWEN  =    -43877.86009237
  -Hartree energ DENC   =    -13970.43158657
  -exchange      EXHF   =         0.00000000
  -V(xc)+E(xc)   XCENC  =      2673.17682904
  PAW double counting   =     61056.92952100   -62395.15478634
  entropy T*S    EENTRO =        -0.04251659
  eigenvalues    EBANDS =     -4920.26726263
  atomic energy  EATOM  =     57412.89542408
  Solvation  Ediel_sol  =         0.00000000
  ---------------------------------------------------
  free energy    TOTEN  =      -797.66953976 eV

  energy without entropy =     -797.62702318  energy(sigma->0) =     -797.64828147


--------------------------------------------------------------------------------------------------------




--------------------------------------- Iteration      1(   8)  ---------------------------------------


    POTLOK:  cpu time    0.2679: real time    0.2686
    SETDIJ:  cpu time    0.0397: real time    0.0398
     EDDAV:  cpu time    6.6557: real time    6.6715
    CHARGE:  cpu time    0.4554: real time    0.4565
    MIXING:  cpu time    0.0064: real time    0.0064
    --------------------------------------------
      LOOP:  cpu time    7.4252: real time    7.4428

 eigenvalue-minimisations  :  2448
 total energy-change (2. order) :-0.1792642E+03  (-0.2532652E+02)
 number of electron     687.0000012 magnetization      26.6783976
 augmentation part      181.4190627 magnetization      21.2558223

 Broyden mixing:
  rms(total) = 0.16066E+02    rms(broyden)= 0.16065E+02
  rms(prec ) = 0.22380E+02
  weight for this iteration     100.00

 eigenvalues of (default mixing * dielectric matrix)
  average eigenvalue GAMMA=   0.6445
  1.3090  0.4179  0.2065

 Free energy of the ion-electron system (eV)
  ---------------------------------------------------
  alpha Z        PSCENC =      3223.08493062
  Ewald energy   TEWEN  =    -43877.86009237
  -Hartree energ DENC   =    -13952.44216950
  -exchange      EXHF   =         0.00000000
  -V(xc)+E(xc)   XCENC  =      2671.10859803
  PAW double counting   =     67770.96002438   -69167.48780295
  entropy T*S    EENTRO =        -0.10339799
  eigenvalues    EBANDS =     -5057.08923600
  atomic energy  EATOM  =     57412.89542408
  Solvation  Ediel_sol  =         0.00000000
  ---------------------------------------------------
  free energy    TOTEN  =      -976.93372170 eV

  energy without entropy =     -976.83032370  energy(sigma->0) =     -976.88202270


--------------------------------------------------------------------------------------------------------




--------------------------------------- Iteration      1(   9)  ---------------------------------------


    POTLOK:  cpu time    0.3116: real time    0.3123
    SETDIJ:  cpu time    0.0408: real time    0.0409
     EDDAV:  cpu time    6.6164: real time    6.6321
    CHARGE:  cpu time    0.4468: real time    0.4479
    MIXING:  cpu time    0.0068: real time    0.0068
    --------------------------------------------
      LOOP:  cpu time    7.4223: real time    7.4400

 eigenvalue-minimisations  :  2480
 total energy-change (2. order) : 0.1664866E+03  (-0.1412753E+02)
 number of electron     687.0000014 magnetization      23.2803493
 augmentation part      196.8786889 magnetization      18.8912811

 Broyden mixing:
  rms(total) = 0.48028E+01    rms(broyden)= 0.48015E+01
  rms(prec ) = 0.59461E+01
  weight for this iteration     100.00

 eigenvalues of (default mixing * dielectric matrix)
  average eigenvalue GAMMA=   0.7106
  1.7228  0.4940  0.4940  0.1314

 Free energy of the ion-electron system (eV)
  ---------------------------------------------------
  alpha Z        PSCENC =      3223.08493062
  Ewald energy   TEWEN  =    -43877.86009237
  -Hartree energ DENC   =    -13816.96226453
  -exchange      EXHF   =         0.00000000
  -V(xc)+E(xc)   XCENC  =      2664.26545705
  PAW double counting   =     71504.44934790   -72882.93049851
  entropy T*S    EENTRO =        -0.06426995
  eigenvalues    EBANDS =     -5037.32512408
  atomic energy  EATOM  =     57412.89542408
  Solvation  Ediel_sol  =         0.00000000
  ---------------------------------------------------
  free energy    TOTEN  =      -810.44708980 eV

  energy without entropy =     -810.38281985  energy(sigma->0) =     -810.41495482


--------------------------------------------------------------------------------------------------------




--------------------------------------- Iteration      1(  10)  ---------------------------------------


    POTLOK:  cpu time    0.3113: real time    0.3120
    SETDIJ:  cpu time    0.0413: real time    0.0414
     EDDAV:  cpu time    6.4616: real time    6.4769
    CHARGE:  cpu time    0.3386: real time    0.3394
    MIXING:  cpu time    0.0072: real time    0.0073
    --------------------------------------------
      LOOP:  cpu time    7.1599: real time    7.1769

 eigenvalue-minimisations  :  2384
 total energy-change (2. order) :-0.4203480E+02  (-0.9586136E+01)
 number of electron     687.0000010 magnetization      21.9826810
 augmentation part      195.8034578 magnetization      19.1125636

 Broyden mixing:
  rms(total) = 0.10390E+02    rms(broyden)= 0.10389E+02
  rms(prec ) = 0.13119E+02
  weight for this iteration     100.00

 eigenvalues of (default mixing * dielectric matrix)
  average eigenvalue GAMMA=   0.6110
  1.8041  0.4866  0.4866  0.1387  0.1387

 Free energy of the ion-electron system (eV)
  ---------------------------------------------------
  alpha Z        PSCENC =      3223.08493062
  Ewald energy   TEWEN  =    -43877.86009237
  -Hartree energ DENC   =    -13799.10535292
  -exchange      EXHF   =         0.00000000
  -V(xc)+E(xc)   XCENC  =      2663.71959488
  PAW double counting   =     76358.99651249   -77753.40468223
  entropy T*S    EENTRO =        -0.03786188
  eigenvalues    EBANDS =     -5080.77035888
  atomic energy  EATOM  =     57412.89542408
  Solvation  Ediel_sol  =         0.00000000
  ---------------------------------------------------
  free energy    TOTEN  =      -852.48188621 eV

  energy without entropy =     -852.44402434  energy(sigma->0) =     -852.46295528


--------------------------------------------------------------------------------------------------------




--------------------------------------- Iteration      1(  11)  ---------------------------------------


    POTLOK:  cpu time    0.3135: real time    0.3142
    SETDIJ:  cpu time    0.0418: real time    0.0419
     EDDAV:  cpu time    6.9794: real time    6.9959
    CHARGE:  cpu time    0.3999: real time    0.4009
    MIXING:  cpu time    0.0067: real time    0.0067
    --------------------------------------------
      LOOP:  cpu time    7.7412: real time    7.7596

 eigenvalue-minimisations  :  2464
 total energy-change (2. order) : 0.4506485E+02  (-0.1684743E+01)
 number of electron     687.0000009 magnetization      21.2729775
 augmentation part      197.5058010 magnetization      18.7287041

 Broyden mixing:
  rms(total) = 0.55534E+01    rms(broyden)= 0.55526E+01
  rms(prec ) = 0.70474E+01
  weight for this iteration     100.00

 eigenvalues of (default mixing * dielectric matrix)
  average eigenvalue GAMMA=   0.5396
  1.8222  0.4591  0.4591  0.2681  0.1422  0.0865

 Free energy of the ion-electron system (eV)
  ---------------------------------------------------
  alpha Z        PSCENC =      3223.08493062
  Ewald energy   TEWEN  =    -43877.86009237
  -Hartree energ DENC   =    -13787.54515576
  -exchange      EXHF   =         0.00000000
  -V(xc)+E(xc)   XCENC  =      2663.09290093
  PAW double counting   =     77642.85214992   -79038.36813674
  entropy T*S    EENTRO =        -0.03094884
  eigenvalues    EBANDS =     -5045.53810836
  atomic energy  EATOM  =     57412.89542408
  Solvation  Ediel_sol  =         0.00000000
  ---------------------------------------------------
  free energy    TOTEN  =      -807.41703651 eV

  energy without entropy =     -807.38608767  energy(sigma->0) =     -807.40156209


--------------------------------------------------------------------------------------------------------




--------------------------------------- Iteration      1(  12)  ---------------------------------------


    POTLOK:  cpu time    0.2835: real time    0.2842
    SETDIJ:  cpu time    0.0393: real time    0.0394
     EDDAV:  cpu time    6.8248: real time    6.8410
    CHARGE:  cpu time    0.4299: real time    0.4309
    MIXING:  cpu time    0.0074: real time    0.0074
    --------------------------------------------
      LOOP:  cpu time    7.5849: real time    7.6029

 eigenvalue-minimisations  :  2272
 total energy-change (2. order) : 0.1065286E+02  (-0.3355980E+01)
 number of electron     687.0000016 magnetization      19.7748085
 augmentation part      198.0670866 magnetization      16.4350058

 Broyden mixing:
  rms(total) = 0.38906E+01    rms(broyden)= 0.38895E+01
  rms(prec ) = 0.48693E+01
  weight for this iteration     100.00

 eigenvalues of (default mixing * dielectric matrix)
  average eigenvalue GAMMA=   0.5394
  1.8890  0.5228  0.5228  0.4865  0.1258  0.1258  0.1027

 Free energy of the ion-electron system (eV)
  ---------------------------------------------------
  alpha Z        PSCENC =      3223.08493062
  Ewald energy   TEWEN  =    -43877.86009237
  -Hartree energ DENC   =    -13789.90820644
  -exchange      EXHF   =         0.00000000
  -V(xc)+E(xc)   XCENC  =      2663.20240097
  PAW double counting   =     77986.95890489   -79385.64067919
  entropy T*S    EENTRO =        -0.05379019
  eigenvalues    EBANDS =     -5029.44306677
  atomic energy  EATOM  =     57412.89542408
  Solvation  Ediel_sol  =         0.00000000
  ---------------------------------------------------
  free energy    TOTEN  =      -796.76417440 eV

  energy without entropy =     -796.71038421  energy(sigma->0) =     -796.73727930


--------------------------------------------------------------------------------------------------------




--------------------------------------- Iteration      1(  13)  ---------------------------------------


    POTLOK:  cpu time    0.3025: real time    0.3032
    SETDIJ:  cpu time    0.0411: real time    0.0412
     EDDAV:  cpu time    6.5371: real time    6.5526
    CHARGE:  cpu time    0.3366: real time    0.3374
    MIXING:  cpu time    0.0068: real time    0.0068
    --------------------------------------------
      LOOP:  cpu time    7.2241: real time    7.2412

 eigenvalue-minimisations  :  2288
 total energy-change (2. order) : 0.2214451E+01  (-0.5091721E+01)
 number of electron     687.0000011 magnetization      18.9955362
 augmentation part      197.3291366 magnetization      16.6146883

 Broyden mixing:
  rms(total) = 0.41106E+01    rms(broyden)= 0.41094E+01
  rms(prec ) = 0.49305E+01
  weight for this iteration     100.00

 eigenvalues of (default mixing * dielectric matrix)
  average eigenvalue GAMMA=   0.5095
  1.9406  0.5362  0.4690  0.4690  0.3323  0.1377  0.1057  0.0858

 Free energy of the ion-electron system (eV)
  ---------------------------------------------------
  alpha Z        PSCENC =      3223.08493062
  Ewald energy   TEWEN  =    -43877.86009237
  -Hartree energ DENC   =    -13806.84399665
  -exchange      EXHF   =         0.00000000
  -V(xc)+E(xc)   XCENC  =      2663.82425915
  PAW double counting   =     78434.60200439   -79838.80571094
  entropy T*S    EENTRO =        -0.03739194
  eigenvalues    EBANDS =     -5005.40914954
  atomic energy  EATOM  =     57412.89542408
  Solvation  Ediel_sol  =         0.00000000
  ---------------------------------------------------
  free energy    TOTEN  =      -794.54972320 eV

  energy without entropy =     -794.51233126  energy(sigma->0) =     -794.53102723


--------------------------------------------------------------------------------------------------------




--------------------------------------- Iteration      1(  14)  ---------------------------------------


    POTLOK:  cpu time    0.2556: real time    0.2562
    SETDIJ:  cpu time    0.0388: real time    0.0389
     EDDAV:  cpu time    6.0843: real time    6.0987
    CHARGE:  cpu time    0.3453: real time    0.3461
    MIXING:  cpu time    0.0072: real time    0.0072
    --------------------------------------------
      LOOP:  cpu time    6.7312: real time    6.7471

 eigenvalue-minimisations  :  2320
 total energy-change (2. order) : 0.5438118E+01  (-0.1359012E+01)
 number of electron     687.0000013 magnetization      18.8276142
 augmentation part      196.9771469 magnetization      13.8691280

 Broyden mixing:
  rms(total) = 0.26095E+01    rms(broyden)= 0.26084E+01
  rms(prec ) = 0.30087E+01
  weight for this iteration     100.00

 eigenvalues of (default mixing * dielectric matrix)
  average eigenvalue GAMMA=   0.5086
  2.0140  0.4919  0.4919  0.5385  0.5385  0.1797  0.1410  0.0983  0.0838

 Free energy of the ion-electron system (eV)
  ---------------------------------------------------
  alpha Z        PSCENC =      3223.08493062
  Ewald energy   TEWEN  =    -43877.86009237
  -Hartree energ DENC   =    -13818.44100693
  -exchange      EXHF   =         0.00000000
  -V(xc)+E(xc)   XCENC  =      2664.08502593
  PAW double counting   =     78608.68778467   -80016.09797781
  entropy T*S    EENTRO =        -0.06455155
  eigenvalues    EBANDS =     -4985.40114175
  atomic energy  EATOM  =     57412.89542408
  Solvation  Ediel_sol  =         0.00000000
  ---------------------------------------------------
  free energy    TOTEN  =      -789.11160512 eV

  energy without entropy =     -789.04705356  energy(sigma->0) =     -789.07932934


--------------------------------------------------------------------------------------------------------




--------------------------------------- Iteration      1(  15)  ---------------------------------------


    POTLOK:  cpu time    0.2553: real time    0.2559
    SETDIJ:  cpu time    0.0411: real time    0.0412
     EDDAV:  cpu time    6.8398: real time    6.8560
    CHARGE:  cpu time    0.3598: real time    0.3607
    MIXING:  cpu time    0.0078: real time    0.0079
    --------------------------------------------
      LOOP:  cpu time    7.5039: real time    7.5217

 eigenvalue-minimisations  :  2368
 total energy-change (2. order) :-0.1980881E+01  (-0.1255341E+01)
 number of electron     687.0000012 magnetization      18.6918839
 augmentation part      196.2618569 magnetization      13.2356284

 Broyden mixing:
  rms(total) = 0.28793E+01    rms(broyden)= 0.28786E+01
  rms(prec ) = 0.34914E+01
  weight for this iteration     100.00

 eigenvalues of (default mixing * dielectric matrix)
  average eigenvalue GAMMA=   0.4814
  2.0485  0.5951  0.5951  0.3634  0.3634  0.3858  0.1440  0.1243  0.1134  0.0815

 Free energy of the ion-electron system (eV)
  ---------------------------------------------------
  alpha Z        PSCENC =      3223.08493062
  Ewald energy   TEWEN  =    -43877.86009237
  -Hartree energ DENC   =    -13827.97328750
  -exchange      EXHF   =         0.00000000
  -V(xc)+E(xc)   XCENC  =      2664.84107362
  PAW double counting   =     78747.31370200   -80155.09827152
  entropy T*S    EENTRO =        -0.01729571
  eigenvalues    EBANDS =     -4978.27866969
  atomic energy  EATOM  =     57412.89542408
  Solvation  Ediel_sol  =         0.00000000
  ---------------------------------------------------
  free energy    TOTEN  =      -791.09248647 eV

  energy without entropy =     -791.07519076  energy(sigma->0) =     -791.08383861


--------------------------------------------------------------------------------------------------------




--------------------------------------- Iteration      1(  16)  ---------------------------------------


    POTLOK:  cpu time    0.2718: real time    0.2725
    SETDIJ:  cpu time    0.0393: real time    0.0394
     EDDAV:  cpu time    6.8881: real time    6.9044
    CHARGE:  cpu time    0.3445: real time    0.3453
    MIXING:  cpu time    0.0083: real time    0.0083
    --------------------------------------------
      LOOP:  cpu time    7.5520: real time    7.5699

 eigenvalue-minimisations  :  2400
 total energy-change (2. order) : 0.6956094E+00  (-0.8288503E+00)
 number of electron     687.0000014 magnetization      18.5531655
 augmentation part      196.2974694 magnetization      13.2724469

 Broyden mixing:
  rms(total) = 0.25604E+01    rms(broyden)= 0.25599E+01
  rms(prec ) = 0.31408E+01
  weight for this iteration     100.00

 eigenvalues of (default mixing * dielectric matrix)
  average eigenvalue GAMMA=   0.4811
  2.0745  0.6656  0.6656  0.4180  0.4180  0.4439  0.1703  0.1354  0.0820  0.1189
  0.0999

 Free energy of the ion-electron system (eV)
  ---------------------------------------------------
  alpha Z        PSCENC =      3223.08493062
  Ewald energy   TEWEN  =    -43877.86009237
  -Hartree energ DENC   =    -13828.40199153
  -exchange      EXHF   =         0.00000000
  -V(xc)+E(xc)   XCENC  =      2665.02083073
  PAW double counting   =     78842.29241992   -80249.40929298
  entropy T*S    EENTRO =        -0.02267720
  eigenvalues    EBANDS =     -4977.99642838
  atomic energy  EATOM  =     57412.89542408
  Solvation  Ediel_sol  =         0.00000000
  ---------------------------------------------------
  free energy    TOTEN  =      -790.39687712 eV

  energy without entropy =     -790.37419991  energy(sigma->0) =     -790.38553851


--------------------------------------------------------------------------------------------------------




--------------------------------------- Iteration      1(  17)  ---------------------------------------


    POTLOK:  cpu time    0.2599: real time    0.2605
    SETDIJ:  cpu time    0.0387: real time    0.0388
     EDDAV:  cpu time    6.9216: real time    6.9381
    CHARGE:  cpu time    0.3585: real time    0.3594
    MIXING:  cpu time    0.0082: real time    0.0082
    --------------------------------------------
      LOOP:  cpu time    7.5870: real time    7.6050

 eigenvalue-minimisations  :  2416
 total energy-change (2. order) : 0.8629379E+00  (-0.4849012E+00)
 number of electron     687.0000014 magnetization      18.5468478
 augmentation part      196.5328754 magnetization      13.3327721

 Broyden mixing:
  rms(total) = 0.23431E+01    rms(broyden)= 0.23428E+01
  rms(prec ) = 0.28835E+01
  weight for this iteration     100.00

 eigenvalues of (default mixing * dielectric matrix)
  average eigenvalue GAMMA=   0.4611
  2.0723  0.6742  0.6742  0.4648  0.4648  0.4513  0.1767  0.1334  0.1334  0.0815
  0.1030  0.1030

 Free energy of the ion-electron system (eV)
  ---------------------------------------------------
  alpha Z        PSCENC =      3223.08493062
  Ewald energy   TEWEN  =    -43877.86009237
  -Hartree energ DENC   =    -13826.76737978
  -exchange      EXHF   =         0.00000000
  -V(xc)+E(xc)   XCENC  =      2665.08991697
  PAW double counting   =     78906.24555300   -80311.89142808
  entropy T*S    EENTRO =        -0.03918367
  eigenvalues    EBANDS =     -4980.29168001
  atomic energy  EATOM  =     57412.89542408
  Solvation  Ediel_sol  =         0.00000000
  ---------------------------------------------------
  free energy    TOTEN  =      -789.53393924 eV

  energy without entropy =     -789.49475557  energy(sigma->0) =     -789.51434740


--------------------------------------------------------------------------------------------------------




--------------------------------------- Iteration      1(  18)  ---------------------------------------


    POTLOK:  cpu time    0.2750: real time    0.2757
    SETDIJ:  cpu time    0.0390: real time    0.0391
     EDDAV:  cpu time    6.3652: real time    6.3803
    CHARGE:  cpu time    0.4522: real time    0.4533
    MIXING:  cpu time    0.0101: real time    0.0101
    --------------------------------------------
      LOOP:  cpu time    7.1416: real time    7.1585

 eigenvalue-minimisations  :  2320
 total energy-change (2. order) : 0.5811812E+00  (-0.1232558E+00)
 number of electron     687.0000013 magnetization      18.4349311
 augmentation part      196.6003793 magnetization      13.8891872

 Broyden mixing:
  rms(total) = 0.20246E+01    rms(broyden)= 0.20242E+01
  rms(prec ) = 0.24930E+01
  weight for this iteration     100.00

 eigenvalues of (default mixing * dielectric matrix)
  average eigenvalue GAMMA=   0.4524
  2.0997  0.5546  0.5546  0.6393  0.6393  0.4714  0.2027  0.2027  0.1369  0.1100
  0.1100  0.0798  0.0798

 Free energy of the ion-electron system (eV)
  ---------------------------------------------------
  alpha Z        PSCENC =      3223.08493062
  Ewald energy   TEWEN  =    -43877.86009237
  -Hartree energ DENC   =    -13826.07006062
  -exchange      EXHF   =         0.00000000
  -V(xc)+E(xc)   XCENC  =      2665.14642746
  PAW double counting   =     78889.19494578   -80294.03969029
  entropy T*S    EENTRO =        -0.05235763
  eigenvalues    EBANDS =     -4981.25228506
  atomic energy  EATOM  =     57412.89542408
  Solvation  Ediel_sol  =         0.00000000
  ---------------------------------------------------
  free energy    TOTEN  =      -788.95275802 eV

  energy without entropy =     -788.90040039  energy(sigma->0) =     -788.92657921


--------------------------------------------------------------------------------------------------------




--------------------------------------- Iteration      1(  19)  ---------------------------------------


    POTLOK:  cpu time    0.3094: real time    0.3101
    SETDIJ:  cpu time    0.0420: real time    0.0421
     EDDAV:  cpu time    6.6527: real time    6.6686
    CHARGE:  cpu time    0.4294: real time    0.4304
    MIXING:  cpu time    0.0096: real time    0.0096
    --------------------------------------------
      LOOP:  cpu time    7.4431: real time    7.4609

 eigenvalue-minimisations  :  2416
 total energy-change (2. order) :-0.1431319E-01  (-0.3338654E+00)
 number of electron     687.0000012 magnetization      18.3979089
 augmentation part      196.7325520 magnetization      15.1334979

 Broyden mixing:
  rms(total) = 0.18483E+01    rms(broyden)= 0.18479E+01
  rms(prec ) = 0.21134E+01
  weight for this iteration     100.00

 eigenvalues of (default mixing * dielectric matrix)
  average eigenvalue GAMMA=   0.4211
  2.1005  0.6368  0.6368  0.5508  0.5508  0.4727  0.1715  0.1715  0.1317  0.1204
  0.1204  0.0819  0.0819  0.0671

 Free energy of the ion-electron system (eV)
  ---------------------------------------------------
  alpha Z        PSCENC =      3223.08493062
  Ewald energy   TEWEN  =    -43877.86009237
  -Hartree energ DENC   =    -13826.68149187
  -exchange      EXHF   =         0.00000000
  -V(xc)+E(xc)   XCENC  =      2665.58551208
  PAW double counting   =     78935.16943262   -80338.60331768
  entropy T*S    EENTRO =        -0.03529588
  eigenvalues    EBANDS =     -4982.52217281
  atomic energy  EATOM  =     57412.89542408
  Solvation  Ediel_sol  =         0.00000000
  ---------------------------------------------------
  free energy    TOTEN  =      -788.96707122 eV

  energy without entropy =     -788.93177534  energy(sigma->0) =     -788.94942328


--------------------------------------------------------------------------------------------------------




--------------------------------------- Iteration      1(  20)  ---------------------------------------


    POTLOK:  cpu time    0.3071: real time    0.3078
    SETDIJ:  cpu time    0.0416: real time    0.0417
     EDDAV:  cpu time    6.9136: real time    6.9300
    CHARGE:  cpu time    0.4352: real time    0.4362
    MIXING:  cpu time    0.0099: real time    0.0099
    --------------------------------------------
      LOOP:  cpu time    7.7073: real time    7.7256

 eigenvalue-minimisations  :  2320
 total energy-change (2. order) : 0.1515167E+00  (-0.1762178E-01)
 number of electron     687.0000012 magnetization      18.3629684
 augmentation part      196.7150621 magnetization      15.1358804

 Broyden mixing:
  rms(total) = 0.18158E+01    rms(broyden)= 0.18158E+01
  rms(prec ) = 0.20759E+01
  weight for this iteration     100.00

 eigenvalues of (default mixing * dielectric matrix)
  average eigenvalue GAMMA=   0.4165
  2.1007  0.6424  0.6424  0.5471  0.5471  0.4688  0.1977  0.1977  0.1957  0.1957
  0.1382  0.1087  0.1087  0.0801  0.0770

 Free energy of the ion-electron system (eV)
  ---------------------------------------------------
  alpha Z        PSCENC =      3223.08493062
  Ewald energy   TEWEN  =    -43877.86009237
  -Hartree energ DENC   =    -13827.23027808
  -exchange      EXHF   =         0.00000000
  -V(xc)+E(xc)   XCENC  =      2665.63222812
  PAW double counting   =     78933.78629479   -80337.40713686
  entropy T*S    EENTRO =        -0.03379356
  eigenvalues    EBANDS =     -4981.68313129
  atomic energy  EATOM  =     57412.89542408
  Solvation  Ediel_sol  =         0.00000000
  ---------------------------------------------------
  free energy    TOTEN  =      -788.81555456 eV

  energy without entropy =     -788.78176100  energy(sigma->0) =     -788.79865778


--------------------------------------------------------------------------------------------------------




--------------------------------------- Iteration      1(  21)  ---------------------------------------


    POTLOK:  cpu time    0.3072: real time    0.3079
    SETDIJ:  cpu time    0.0409: real time    0.0410
     EDDAV:  cpu time    7.0307: real time    7.0474
    CHARGE:  cpu time    0.3833: real time    0.3842
    MIXING:  cpu time    0.0096: real time    0.0096
    --------------------------------------------
      LOOP:  cpu time    7.7716: real time    7.7901

 eigenvalue-minimisations  :  2704
 total energy-change (2. order) : 0.1060391E-01  (-0.5466215E-02)
 number of electron     687.0000012 magnetization      18.2938390
 augmentation part      196.6988267 magnetization      15.0375472

 Broyden mixing:
  rms(total) = 0.17478E+01    rms(broyden)= 0.17478E+01
  rms(prec ) = 0.20085E+01
  weight for this iteration     100.00

 eigenvalues of (default mixing * dielectric matrix)
  average eigenvalue GAMMA=   0.4166
  2.1018  0.6274  0.6274  0.5476  0.5476  0.4799  0.3196  0.3196  0.2118  0.2118
  0.1555  0.1409  0.1112  0.1061  0.0808  0.0759

 Free energy of the ion-electron system (eV)
[...]
      3.01700      9.96299      3.40679         0.068441      0.141211      0.019371
      4.37810      0.08802      2.57646        -0.020769      0.019660      0.029380
      5.84869      0.05851      5.12410        -0.007161      0.033005      0.037642
      5.88324      4.95829      6.84645        -0.011534      0.043299     -0.026526
      7.43581      9.94126      6.05743         0.051973      0.070617      0.091988
      8.93178     14.86745      5.17464         0.007161     -0.033005     -0.037642
      2.93496      0.03311      5.13226         0.000000      0.000000      0.000000
     11.76347      4.96297      6.89195        -0.068441     -0.141211     -0.019371
      4.43265      9.90598      6.02372        -0.013298      0.012393      0.007051
      4.37053      7.45715      7.60861        -0.016147      0.013225     -0.013775
      8.79490     12.29515      1.80573        -0.029667     -0.057555      0.019119
      1.58314      2.58115      0.79462         0.029667      0.057555     -0.019119
      7.26387      7.41493      7.72686        -0.005308     -0.015875      0.035535
      3.01446     12.32644      1.82869         0.017164     -0.000009     -0.017056
      4.44492      2.46353      0.89744         0.009043     -0.017318      0.011097
     10.42610      7.45376      7.65531         0.003597     -0.034982     -0.016102
      5.93312     12.41277      1.70291        -0.009043      0.017318     -0.011097
      7.36357      2.54985      0.77165        -0.017164      0.000009      0.017056
      7.51661      7.51103      2.57187         0.005308      0.015875     -0.035535
      7.46669     12.41192      4.42854         0.004591     -0.004056      0.037320
      8.85191      2.61354      3.54555        -0.009028      0.009674     -0.014653
     10.40995      7.46881      2.69012         0.016147     -0.013225      0.013775
     10.36222     12.45275      4.36213        -0.006543      0.001425     -0.006670
      2.99467      2.48950      3.45198        -0.021450      0.040625     -0.018769
      4.35437      7.47220      2.64343        -0.003597      0.034982      0.016102
      4.40800     12.51185      4.37455         0.009486      0.035859     -0.008457
      5.79901      2.42553      3.54964        -0.029950     -0.048154      0.003974
      5.98707      7.47020      5.28189         0.056727      0.034888      0.032239
      5.92856     12.31242      6.75319         0.009028     -0.009674      0.014653
      7.31378      2.51404      5.87020        -0.004591      0.004056     -0.037320
      8.79340      7.45577      5.01684        -0.056727     -0.034888     -0.032239
      8.98147     12.50043      6.74910         0.029950      0.048154     -0.003974
     10.37247      2.41411      5.92419        -0.009486     -0.035859      0.008457
      2.96245      7.44636      5.16397         0.000000      0.000000      0.000000
     11.78581     12.43647      6.84676         0.021450     -0.040625      0.018769
      4.41825      2.47321      5.93661         0.006543     -0.001425      0.006670
      0.11777     11.14346      0.09105        -0.014292     -0.041756      0.014889
      8.85082      3.88162      0.04735         0.019056      0.024885     -0.006451
      8.81910      1.02009      1.69971        -0.011252     -0.014247      0.014491
      8.96581      8.63942      1.70342         0.016421      0.011106     -0.023629
      1.41222      6.23687      0.89693        -0.016421     -0.011106      0.023629
      1.55894     13.85620      0.90063         0.011252      0.014247     -0.014491
      2.95150     11.03452      0.24604        -0.021319      0.065121      0.057047
      3.01879      3.89023      0.02776        -0.017821      0.058936      0.018275
      2.81879      1.18021      1.64002        -0.011776      0.001225     -0.001293
      2.98058      8.71492      1.54802        -0.003817     -0.015436     -0.023571
      4.60590      6.13490      0.73922         0.012103      0.002293     -0.001627
      4.37999     13.66408      0.91159         0.030838      0.061381     -0.020738
     10.19923     11.12881      7.59420        -0.014666     -0.005354     -0.046195
      5.73242      3.80871      0.10980        -0.030779     -0.016196      0.045269
      5.99804      1.21221      1.68875        -0.030838     -0.061381      0.020738
      5.77213      8.74139      1.86113        -0.012103     -0.002293      0.001627
      7.39745      6.16137      1.05233         0.003817      0.015436      0.023571
      7.55924     13.69608      0.96033         0.011776     -0.001225      0.001293
      7.35924     10.98606      2.57259         0.017821     -0.058936     -0.018275
      7.42653      3.84178      2.35430         0.021319     -0.065121     -0.057047
      7.41344      1.25059      4.17572        -0.041771     -0.037105      0.012209
      7.32793      8.63039      4.22483        -0.027260     -0.014932     -0.076591
      8.84117      6.08206      3.38380         0.003206     -0.040074      0.001141
      8.91897     13.70521      3.30209         0.025372     -0.044779     -0.036534
      1.52721     10.99467      2.55300        -0.019056     -0.024885      0.006451
     10.26026      3.73283      2.50930         0.014292      0.041756     -0.014889
     10.33481      1.35271      4.10746        -0.005703     -0.062813      0.025497
     10.31705      8.61653      4.39565        -0.070281     -0.065762      0.023553
      3.02984      6.10591      3.43782         0.013179     -0.014803      0.006370
      2.85179     13.49924      3.39421         0.033768     -0.045696     -0.054222
      4.64562     11.06759      2.49055         0.030779      0.016196     -0.045269
      4.58124      3.79715      2.70453         0.014666      0.005354      0.046195
      4.41677      1.07943      4.27019        -0.018674      0.006116      0.016683
      4.46354      8.83595      4.24398        -0.016882      0.025370      0.004359
      5.73262      6.11067      3.36885         0.020861     -0.014148      0.002301
      6.10423     13.49107      3.37290         0.046505     -0.079308     -0.035670
      5.93179     11.19887      5.08583         0.048920     -0.050619      0.033572
      5.86479      3.84244      5.08840         0.004856     -0.050377      0.014626
      5.86151      1.22075      6.99664        -0.025372      0.044779      0.036534
      5.93930      8.84391      6.91493        -0.003206      0.040074     -0.001141
      7.45254      6.29557      6.07391         0.027260      0.014932      0.076591
      7.36703     13.67537      6.12301         0.041771      0.037105     -0.012209
      8.91568     11.08352      5.21034        -0.004856      0.050377     -0.014626
      8.84868      3.72710      5.21290        -0.048920      0.050619     -0.033572
      8.67624      1.43489      6.92583        -0.046505      0.079308      0.035670
      9.04786      8.81529      6.92989        -0.020861      0.014148     -0.002301
     10.31693      6.09001      6.05476         0.016882     -0.025370     -0.004359
     10.36371     13.84653      6.02855         0.018674     -0.006116     -0.016683
     11.77263     11.20079      5.20827         0.010411     -0.045879     -0.023487
      3.00784      3.72517      5.09046        -0.010411      0.045879      0.023487
     11.92868      1.42673      6.90453        -0.033768      0.045696      0.054222
     11.75063      8.82005      6.86091        -0.013179      0.014803     -0.006370
      4.46342      6.30943      5.90309         0.070281      0.065762     -0.023553
      4.44567     13.57325      6.19128         0.005703      0.062813     -0.025497
 -----------------------------------------------------------------------------------
    total drift:                               -0.000567      0.000020     -0.001052


--------------------------------------------------------------------------------------------------------



  FREE ENERGIE OF THE ION-ELECTRON SYSTEM (eV)
  ---------------------------------------------------
  free  energy   TOTEN  =      -788.4428798879 eV

  energy  without entropy=     -788.3678211942  energy(sigma->0) =     -788.40535054
 
 d Force = 0.1056773E-01[ 0.100E-01, 0.111E-01]  d Energy = 0.1124691E-01-0.679E-03
 d Force =-0.3309713E+00[-0.365E+00,-0.297E+00]  d Ewald  =-0.2175304E+01 0.184E+01


--------------------------------------------------------------------------------------------------------


    POTLOK:  cpu time    0.3248: real time    0.3255


--------------------------------------------------------------------------------------------------------


 Quasi-Newton relaxation of ions (Broydens 2nd method)
  g(Force)  = 0.175E-01   g(Stress)= 0.169E-02

 retain information from N=  1 steps
 eigenvalues of (default step * inverse Hessian matrix)
  average eigenvalue of G=   0.8747
 eigenvalue spectrum of G is  0.8747


--------------------------------------------------------------------------------------------------------


     LOOP+:  cpu time  120.5115: real time  120.9137
    4ORBIT:  cpu time    0.0000: real time    0.0000

volume of typ            1:    11.9 %

volume of typ            2:     9.4 %

volume of typ            3:    20.8 %

volume of typ            4:     8.7 %
 
total charge     
 
# of ion       s       p       d       tot
------------------------------------------
    1        0.283   6.165   1.981   8.429
    2        0.288   6.170   1.961   8.419
    3        0.288   6.170   1.961   8.419
    4        0.285   6.163   1.991   8.439
    5        0.283   6.178   1.942   8.403
    6        0.283   6.178   1.942   8.403
    7        0.285   6.163   1.991   8.439
    8        0.283   6.165   1.981   8.429
    9        0.284   6.166   1.966   8.416
   10        0.285   6.167   1.957   8.409
   11        0.285   6.167   1.957   8.409
   12        0.284   6.166   1.966   8.416
   13        0.182   0.197   8.034   8.413
   14        0.187   0.198   8.028   8.413
   15        0.182   0.197   8.034   8.413
   16        0.179   0.192   8.039   8.410
   17        0.188   0.209   7.988   8.385
   18        0.187   0.208   7.981   8.376
   19        0.182   0.195   8.049   8.426
   20        0.187   0.198   8.028   8.413
   21        0.187   0.195   8.034   8.415
   22        0.188   0.209   7.988   8.385
   23        0.179   0.192   8.039   8.410
   24        0.187   0.195   8.034   8.415
   25        0.194   0.203   8.018   8.415
   26        0.182   0.195   8.049   8.426
   27        0.187   0.208   7.981   8.376
   28        2.071   0.244   0.090   2.406
   29        2.078   0.263   0.099   2.440
   30        2.078   0.263   0.099   2.440
   31        2.081   0.269   0.104   2.454
   32        2.083   0.276   0.107   2.466
   33        2.076   0.261   0.100   2.438
   34        2.078   0.264   0.101   2.443
   35        2.076   0.261   0.100   2.438
   36        2.083   0.276   0.107   2.466
   37        2.081   0.269   0.104   2.454
   38        2.074   0.252   0.095   2.421
   39        2.080   0.267   0.103   2.450
   40        2.071   0.244   0.090   2.406
   41        2.076   0.259   0.098   2.432
   42        2.073   0.249   0.094   2.416
   43        2.078   0.264   0.101   2.443
   44        2.062   0.219   0.081   2.361
   45        2.079   0.267   0.100   2.447
   46        2.077   0.259   0.099   2.435
   47        2.080   0.267   0.103   2.450
   48        2.074   0.252   0.095   2.421
   49        2.077   0.259   0.099   2.435
   50        2.079   0.267   0.100   2.447
   51        2.062   0.219   0.081   2.361
   52        2.076   0.258   0.097   2.430
   53        2.073   0.249   0.094   2.416
   54        2.076   0.259   0.098   2.432
   55        1.256   2.823   0.005   4.085
   56        1.247   2.829   0.006   4.082
   57        1.244   2.863   0.004   4.111
   58        1.257   2.824   0.005   4.086
   59        1.257   2.824   0.005   4.086
   60        1.244   2.863   0.004   4.111
   61        1.250   2.847   0.005   4.102
   62        1.248   2.829   0.005   4.082
   63        1.247   2.850   0.005   4.101
   64        1.247   2.849   0.005   4.101
   65        1.249   2.845   0.005   4.100
   66        1.252   2.823   0.005   4.081
   67        1.247   2.847   0.005   4.098
   68        1.249   2.852   0.005   4.106
   69        1.252   2.823   0.005   4.081
   70        1.249   2.845   0.005   4.100
   71        1.247   2.849   0.005   4.101
   72        1.247   2.850   0.005   4.101
   73        1.248   2.829   0.005   4.082
   74        1.250   2.847   0.005   4.102
   75        1.249   2.829   0.005   4.084
   76        1.253   2.832   0.005   4.091
   77        1.246   2.831   0.005   4.082
   78        1.248   2.849   0.005   4.101
   79        1.247   2.829   0.006   4.082
   80        1.256   2.823   0.005   4.085
   81        1.254   2.831   0.006   4.091
   82        1.254   2.832   0.005   4.090
   83        1.246   2.832   0.005   4.083
   84        1.255   2.834   0.005   4.094
   85        1.249   2.852   0.005   4.106
   86        1.247   2.847   0.005   4.098
   87        1.240   2.807   0.005   4.052
   88        1.248   2.826   0.005   4.080
   89        1.250   2.848   0.005   4.103
   90        1.259   2.825   0.006   4.090
   91        1.253   2.831   0.005   4.089
   92        1.247   2.829   0.005   4.081
   93        1.248   2.849   0.005   4.101
   94        1.246   2.831   0.005   4.082
   95        1.253   2.832   0.005   4.091
   96        1.249   2.829   0.005   4.084
   97        1.247   2.829   0.005   4.081
   98        1.253   2.831   0.005   4.089
   99        1.259   2.825   0.006   4.090
  100        1.250   2.848   0.005   4.103
  101        1.248   2.826   0.005   4.080
  102        1.240   2.807   0.005   4.052
  103        1.253   2.827   0.006   4.085
  104        1.253   2.827   0.006   4.085
  105        1.255   2.834   0.005   4.094
  106        1.246   2.832   0.005   4.083
  107        1.254   2.832   0.005   4.090
  108        1.254   2.831   0.006   4.091
--------------------------------------------------
tot         129.74  237.06  146.83  513.63
 
magnetization (x)
 
# of ion       s       p       d       tot
------------------------------------------
    1        0.001   0.001   0.031   0.034
    2       -0.001  -0.001  -0.027  -0.030
    3       -0.001  -0.001  -0.027  -0.030
    4        0.001   0.001   0.036   0.039
    5       -0.001  -0.001  -0.025  -0.027
    6       -0.001  -0.001  -0.025  -0.027
    7        0.001   0.001   0.036   0.039
    8        0.001   0.001   0.031   0.034
    9       -0.001  -0.002  -0.043  -0.046
   10       -0.001  -0.001  -0.031  -0.034
   11       -0.001  -0.001  -0.031  -0.034
   12       -0.001  -0.002  -0.043  -0.046
   13        0.005   0.001   1.122   1.127
   14       -0.007  -0.003  -1.125  -1.135
   15        0.005   0.001   1.122   1.127
   16        0.004   0.001   1.109   1.114
   17        0.001   0.002   1.278   1.281
   18        0.001   0.001   1.304   1.306
   19        0.007   0.001   1.062   1.069
   20       -0.007  -0.003  -1.125  -1.135
   21       -0.008  -0.002  -1.106  -1.116
   22        0.001   0.002   1.278   1.281
   23        0.004   0.001   1.109   1.114
   24       -0.008  -0.002  -1.106  -1.116
   25       -0.011  -0.000  -1.150  -1.162
   26        0.007   0.001   1.062   1.069
   27        0.001   0.001   1.304   1.306
   28        0.000   0.002   0.001   0.002
   29        0.001   0.000  -0.000   0.001
   30        0.001   0.000  -0.000   0.001
   31        0.001   0.003   0.001   0.004
   32       -0.000  -0.001   0.000  -0.000
   33        0.000   0.002   0.001   0.003
   34        0.001   0.005   0.002   0.008
   35        0.000   0.002   0.001   0.003
   36       -0.000  -0.001   0.000  -0.000
   37        0.001   0.003   0.001   0.004
   38        0.000   0.002   0.001   0.003
   39       -0.001  -0.003  -0.001  -0.005
   40        0.000   0.002   0.001   0.002
   41        0.000   0.000  -0.000   0.000
   42       -0.001  -0.002  -0.001  -0.004
   43        0.001   0.005   0.002   0.008
   44        0.001   0.002   0.001   0.003
   45       -0.001  -0.001   0.000  -0.002
   46        0.001   0.002   0.001   0.003
   47       -0.001  -0.003  -0.001  -0.005
   48        0.000   0.002   0.001   0.003
   49        0.001   0.002   0.001   0.003
   50       -0.001  -0.001   0.000  -0.002
   51        0.001   0.002   0.001   0.003
   52        0.001   0.005   0.001   0.008
   53       -0.001  -0.002  -0.001  -0.004
   54        0.000   0.000  -0.000   0.000
   55        0.004   0.060   0.000   0.064
   56        0.006   0.084   0.000   0.091
   57       -0.000   0.002   0.000   0.002
   58        0.003   0.059   0.000   0.062
   59        0.003   0.059   0.000   0.062
   60       -0.000   0.002   0.000   0.002
   61        0.002   0.026  -0.000   0.027
   62        0.006   0.088   0.000   0.095
   63       -0.003  -0.033   0.000  -0.035
   64        0.003   0.029  -0.000   0.031
   65        0.002   0.033  -0.000   0.035
   66       -0.005  -0.053  -0.000  -0.059
   67        0.002   0.031  -0.000   0.034
   68        0.002   0.025  -0.000   0.028
   69       -0.005  -0.053  -0.000  -0.059
   70        0.002   0.033  -0.000   0.035
   71        0.003   0.029  -0.000   0.031
   72       -0.003  -0.033   0.000  -0.035
   73        0.006   0.088   0.000   0.095
   74        0.002   0.026  -0.000   0.027
   75       -0.006  -0.052  -0.000  -0.057
   76        0.003   0.055   0.000   0.059
   77        0.007   0.086   0.000   0.093
   78       -0.002  -0.028   0.000  -0.030
   79        0.006   0.084   0.000   0.091
   80        0.004   0.060   0.000   0.064
   81       -0.006  -0.053  -0.000  -0.059
   82        0.003   0.050   0.000   0.053
   83        0.006   0.083   0.000   0.090
   84       -0.004  -0.042  -0.000  -0.047
   85        0.002   0.025  -0.000   0.028
   86        0.002   0.031  -0.000   0.034
   87       -0.010  -0.172  -0.000  -0.182
   88        0.006   0.081   0.000   0.086
   89        0.003   0.031  -0.000   0.034
   90       -0.002  -0.029   0.000  -0.031
   91        0.004   0.059   0.000   0.063
   92        0.006   0.080   0.000   0.086
   93       -0.002  -0.028   0.000  -0.030
   94        0.007   0.086   0.000   0.093
   95        0.003   0.055   0.000   0.059
   96       -0.006  -0.052  -0.000  -0.057
   97        0.006   0.080   0.000   0.086
   98        0.004   0.059   0.000   0.063
   99       -0.002  -0.029   0.000  -0.031
  100        0.003   0.031  -0.000   0.034
  101        0.006   0.081   0.000   0.086
  102       -0.010  -0.172  -0.000  -0.182
  103        0.005   0.064   0.000   0.069
  104        0.005   0.064   0.000   0.069
  105       -0.004  -0.042  -0.000  -0.047
  106        0.006   0.083   0.000   0.090
  107        0.003   0.050   0.000   0.053
  108       -0.006  -0.053  -0.000  -0.059
--------------------------------------------------
tot           0.06    1.15    6.03    7.24
 

 total amount of memory used by VASP MPI-rank0   159094. kBytes
=======================================================================

   base      :      30000. kBytes
   nonlr-proj:      43280. kBytes
   fftplans  :      10209. kBytes
   grid      :      62439. kBytes
   one-center:       1679. kBytes
   wavefun   :      11487. kBytes
 
  
  
 General timing and accounting informations for this job:
 ========================================================
  
                  Total CPU time used (sec):     3082.594
                            User time (sec):     3068.633
                          System time (sec):       13.961
                         Elapsed time (sec):     3096.697
  
                   Maximum memory used (kb):      232044.
                   Average memory used (kb):           0.
  
                          Minor page faults:        42360
                          Major page faults:           50
                 Voluntary context switches:         1393
