 vasp.5.4.4.18Apr17-6-g9f103f2a35 (build May 12 2020 05:39:39) gamma-only       
  
 MD_VERSION_INFO: Compiled 2020-05-12T12:39:39-UTC in devlin.sd.materialsdesign.
 com:/home/medea2/data/build/wwolf/vasp-gpu5.4.4/13047/x86_64/src/src/build/gam 
 from svn 13047
 
 This VASP executable licensed from Materials Design, Inc.
 
 executed on                        Lin64 date 2023.04.05  00:02:57
 running on   16 total cores
 distrk:  each k-point on   16 cores,    1 groups
 distr:  one band on NCORES_PER_BAND=   1 cores,   16 groups


--------------------------------------------------------------------------------------------------------


 INCAR:
 POTCAR:    PAW_PBE Ta_pv 07Sep2000               
 POTCAR:    PAW_PBE Ni 02Aug2007                  
 POTCAR:    PAW_PBE Li_sv 10Sep2004               
 POTCAR:    PAW_PBE O 08Apr2002                   

 ----------------------------------------------------------------------------- 
|                                                                             |
|           W    W    AA    RRRRR   N    N  II  N    N   GGGG   !!!           |
|           W    W   A  A   R    R  NN   N  II  NN   N  G    G  !!!           |
|           W    W  A    A  R    R  N N  N  II  N N  N  G       !!!           |
|           W WW W  AAAAAA  RRRRR   N  N N  II  N  N N  G  GGG   !            |
|           WW  WW  A    A  R   R   N   NN  II  N   NN  G    G                |
|           W    W  A    A  R    R  N    N  II  N    N   GGGG   !!!           |
|                                                                             |
|      For optimal performance we recommend to set                            |
|        NCORE= 4 - approx SQRT( number of cores)                             |
|      NCORE specifies how many cores store one orbital (NPAR=cpu/NCORE).     |
|      This setting can  greatly improve the performance of VASP for DFT.     |
|      The default,   NCORE=1            might be grossly inefficient         |
|      on modern multi-core architectures or massively parallel machines.     |
|      Do your own testing !!!!                                               |
|      Unfortunately you need to use the default for GW and RPA calculations. |
|      (for HF NCORE is supported but not extensively tested yet)             |
|                                                                             |
 ----------------------------------------------------------------------------- 

 POTCAR:    PAW_PBE Ta_pv 07Sep2000               
  local pseudopotential read in
  partial core-charges read in
  partial kinetic energy density read in
  atomic valenz-charges read in
  non local Contribution for L=           1  read in
    real space projection operators read in
  non local Contribution for L=           1  read in
    real space projection operators read in
  non local Contribution for L=           2  read in
    real space projection operators read in
  non local Contribution for L=           2  read in
    real space projection operators read in
  non local Contribution for L=           0  read in
    real space projection operators read in
  non local Contribution for L=           0  read in
    real space projection operators read in
    PAW grid and wavefunctions read in
 
   number of l-projection  operators is LMAX  =           6
   number of lm-projection operators is LMMAX =          18
 
 POTCAR:    PAW_PBE Ni 02Aug2007                  
  local pseudopotential read in
  partial core-charges read in
  partial kinetic energy density read in
  atomic valenz-charges read in
  non local Contribution for L=           2  read in
    real space projection operators read in
  non local Contribution for L=           2  read in
    real space projection operators read in
  non local Contribution for L=           0  read in
    real space projection operators read in
  non local Contribution for L=           0  read in
    real space projection operators read in
  non local Contribution for L=           1  read in
    real space projection operators read in
  non local Contribution for L=           1  read in
    real space projection operators read in
    PAW grid and wavefunctions read in
 
   number of l-projection  operators is LMAX  =           6
   number of lm-projection operators is LMMAX =          18
 
 POTCAR:    PAW_PBE Li_sv 10Sep2004               
  local pseudopotential read in
  atomic valenz-charges read in
  non local Contribution for L=           0  read in
    real space projection operators read in
  non local Contribution for L=           0  read in
    real space projection operators read in
  non local Contribution for L=           1  read in
    real space projection operators read in
    PAW grid and wavefunctions read in
 
   number of l-projection  operators is LMAX  =           3
   number of lm-projection operators is LMMAX =           5
 
 POTCAR:    PAW_PBE O 08Apr2002                   
  local pseudopotential read in
  partial core-charges read in
  partial kinetic energy density read in
  kinetic energy density of atom read in
  atomic valenz-charges read in
  non local Contribution for L=           0  read in
    real space projection operators read in
  non local Contribution for L=           0  read in
    real space projection operators read in
  non local Contribution for L=           1  read in
    real space projection operators read in
  non local Contribution for L=           1  read in
    real space projection operators read in
    PAW grid and wavefunctions read in
 
   number of l-projection  operators is LMAX  =           4
   number of lm-projection operators is LMMAX =           8
 
 Optimization of the real space projectors (new method)

 maximal supplied QI-value         = 15.12
 optimisation between [QCUT,QGAM] = [ 11.34, 22.83] = [ 36.00,145.93] Ry 
 Optimized for a Real-space Cutoff    1.61 Angstroem

   l    n(q)    QCUT    max X(q) W(low)/X(q) W(high)/X(q)  e(spline) 
   1     11    11.338     4.092    0.40E-05    0.64E-05    0.47E-07
   1     11    11.338     4.834    0.13E-04    0.44E-04    0.21E-06
   2     10    11.338    62.294    0.15E-03    0.31E-03    0.77E-06
   2     10    11.338    50.966    0.15E-03    0.31E-03    0.77E-06
   0     11    11.338   103.792    0.33E-04    0.19E-04    0.90E-07
   0     11    11.338    56.335    0.26E-04    0.17E-04    0.79E-07
 Optimization of the real space projectors (new method)

 maximal supplied QI-value         = 16.25
 optimisation between [QCUT,QGAM] = [ 11.38, 22.75] = [ 36.24,144.96] Ry 
 Optimized for a Real-space Cutoff    1.47 Angstroem

   l    n(q)    QCUT    max X(q) W(low)/X(q) W(high)/X(q)  e(spline) 
   2      9    11.376    60.317    0.17E-03    0.16E-04    0.16E-06
   2      9    11.376    55.921    0.17E-03    0.16E-04    0.17E-06
   0     10    11.376    51.690    0.45E-04    0.60E-04    0.21E-06
   0     10    11.376    30.015    0.37E-04    0.55E-04    0.19E-06
   1     10    11.376    18.849    0.83E-04    0.11E-03    0.92E-07
   1     10    11.376    14.624    0.69E-04    0.92E-04    0.82E-07
 Optimization of the real space projectors (new method)

 maximal supplied QI-value         = 22.11
 optimisation between [QCUT,QGAM] = [ 11.28, 22.77] = [ 35.61,145.23] Ry 
 Optimized for a Real-space Cutoff    1.10 Angstroem

   l    n(q)    QCUT    max X(q) W(low)/X(q) W(high)/X(q)  e(spline) 
   0      7    11.276    10.506    0.54E-04    0.58E-04    0.16E-07
   0      7    11.276     8.367    0.11E-03    0.14E-03    0.35E-07
   1      7    11.276     8.983    0.23E-03    0.43E-03    0.86E-07
 Optimization of the real space projectors (new method)

 maximal supplied QI-value         = 24.76
 optimisation between [QCUT,QGAM] = [ 11.39, 22.77] = [ 36.31,145.25] Ry 
 Optimized for a Real-space Cutoff    1.10 Angstroem

   l    n(q)    QCUT    max X(q) W(low)/X(q) W(high)/X(q)  e(spline) 
   0      7    11.387    20.381    0.22E-03    0.48E-03    0.18E-06
   0      7    11.387    15.268    0.22E-03    0.52E-03    0.19E-06
   1      7    11.387     5.964    0.22E-03    0.73E-03    0.24E-06
   1      7    11.387     5.382    0.19E-03    0.60E-03    0.21E-06

 ----------------------------------------------------------------------------- 
|                                                                             |
|  ADVICE TO THIS USER RUNNING 'VASP/VAMP'   (HEAR YOUR MASTER'S VOICE ...):  |
|                                                                             |
|      You enforced a specific xc-type in the INCAR file,                     |
|      a different type was found on the POTCAR file                          |
|          I HOPE YOU KNOW, WHAT YOU ARE  DOING                               |
|                                                                             |
 ----------------------------------------------------------------------------- 

  PAW_PBE Ta_pv 07Sep2000               :
 energy of atom  1       EATOM=-1047.1984
 kinetic energy error for atom=    0.0019 (will be added to EATOM!!)
  PAW_PBE Ni 02Aug2007                  :
 energy of atom  2       EATOM=-1077.6739
 kinetic energy error for atom=    0.0030 (will be added to EATOM!!)
  PAW_PBE Li_sv 10Sep2004               :
 energy of atom  3       EATOM= -202.7858
 kinetic energy error for atom=    0.0143 (will be added to EATOM!!)
  PAW_PBE O 08Apr2002                   :
 energy of atom  4       EATOM= -432.3788
 kinetic energy error for atom=    0.0224 (will be added to EATOM!!)
 
 
 POSCAR: ce230013_1                              
  positions in direct lattice
  No initial velocities read in
 exchange correlation table for  LEXCH =       14
   RHO(1)=    0.500       N(1)  =     2000
   RHO(2)=  100.500       N(2)  =     4000
 


--------------------------------------------------------------------------------------------------------


 ion  position               nearest neighbor table
   1  0.000  0.999  0.002-  60 1.95  72 1.98 108 1.98  57 2.03  93 2.06 105 2.07  19 2.94  22 3.00
                            14 3.04  30 3.07  54 3.08  53 3.10   7 3.10   4 3.12  13 3.14
   2  0.863  0.333  0.224-  74 1.92  71 1.93  77 2.01  56 2.02  59 2.15  80 2.17  15 2.80  17 2.87
                            26 2.87  36 2.92  37 2.93  39 3.03  23 3.05  30 3.06  20 3.09   5 3.20
   3  0.086  0.666  0.110-  58 1.92  55 1.93  94 2.02  79 2.03  61 2.14  64 2.15  16 2.78  27 2.85
                            29 2.87  18 2.88  28 2.99  47 3.01  21 3.06  40 3.07  32 3.08  24 3.09
   4  0.367  0.000  0.968-  99 1.94  96 1.95  66 2.02  93 2.04  60 2.19  63 2.20  25 2.68  14 2.74
                            22 2.86  50 2.95  48 3.00  33 3.10   8 3.11   1 3.12  19 3.30
   5  0.224  0.334  0.221-  65 1.99  59 1.99  83 2.01  62 2.01  86 2.03  80 2.03  15 2.88  23 2.89
                            20 2.98  42 2.98  30 3.01  33 3.05  43 3.06  31 3.06  11 3.18   9 3.19
   6  0.445  0.667  0.111- 100 2.00  85 2.00  64 2.01  70 2.01  61 2.01  67 2.03  16 2.91  24 2.93
                            21 2.94  35 2.99  32 3.06  43 3.06  50 3.07  31 3.08  34 3.11   3 3.19
   7  0.670  0.999  0.365-  78 1.94  75 1.95  90 2.02  57 2.03  72 2.22  69 2.22  25 2.71  19 2.75
                            22 2.83  38 3.00  39 3.04  29 3.06  45 3.09   1 3.10   8 3.13  14 3.32
   8  0.335  1.000  0.333-  63 1.97  87 1.97  69 1.99  90 2.03  66 2.05  84 2.07  22 2.95  14 2.96
                            19 3.02  33 3.07  32 3.09   4 3.11   7 3.13  13 3.13
   9  0.222  0.334  0.581- 107 1.94  92 1.94 104 2.00  89 2.01  83 2.15  86 2.17  23 2.81  17 2.85
                            26 2.86  54 2.86  46 2.98  45 3.01  52 3.01  20 3.06  43 3.08  15 3.09
  10  0.444  0.667  0.471-  91 1.93  76 1.94  88 1.99  73 2.02  85 2.15  70 2.18  24 2.77  18 2.84
                            27 2.86  38 2.95  46 2.96  44 2.99  37 3.02  16 3.05  21 3.08  43 3.09
  11  0.580  0.334  0.863- 101 1.93  98 1.94  95 2.01  68 2.02  62 2.15  65 2.16  20 2.75  17 2.84
                            26 2.87  51 2.89  49 2.98  15 3.04  23 3.05  48 3.07  33 3.08  34 3.08
  12  0.801  0.666  0.751-  82 1.93 103 1.94 106 2.00  97 2.01 100 2.12  67 2.20  21 2.78  18 2.84
                            27 2.88  52 2.91  41 2.94  53 2.99  24 3.02  50 3.06  49 3.10  16 3.11
  13  0.967  1.000  0.666- 102 1.94  81 1.94  84 2.03 105 2.04  87 2.18 108 2.18  25 2.62  14 2.83
                            19 2.83  51 2.93  41 3.02  42 3.07   8 3.13   1 3.14  22 3.26
  14  0.662  0.002  0.995-  99 2.03 102 2.10  69 2.20  72 2.20  66 2.39 105 2.41   4 2.74  13 2.83
                            25 2.86   8 2.96   1 3.04   7 3.32
  15  0.550  0.337  0.219-  89 2.02  68 2.05  65 2.16  71 2.17  86 2.22  74 2.31   2 2.80   5 2.88
                            26 2.98  17 3.03  11 3.04   9 3.09
  16  0.771  0.663  0.115-  73 2.01 106 2.02  70 2.15  58 2.17  67 2.28  55 2.29   3 2.78   6 2.91
                            18 2.96  27 3.02  10 3.05  12 3.11
  17  0.554  0.338  0.557-  89 2.05  77 2.05  95 2.07  98 2.22  92 2.22  74 2.27  11 2.84   9 2.85
                             2 2.87  20 2.99  23 3.01  15 3.03
  18  0.776  0.670  0.445-  73 2.05  97 2.07  79 2.08  58 2.20  76 2.21  82 2.22  29 2.80  12 2.84
                            10 2.84   3 2.88  24 2.96  16 2.96  21 2.97
  19  0.993  0.997  0.336-  78 2.11  60 2.14  81 2.16  63 2.21  84 2.38  57 2.40   7 2.75  13 2.83
                            25 2.92   1 2.94   8 3.02   4 3.30
  20  0.891  0.335  0.557- 104 2.02  77 2.02 101 2.18  83 2.21  98 2.23  80 2.29  11 2.75  26 2.94
                             5 2.98  17 2.99   9 3.06   2 3.09
  21  0.113  0.667  0.440-  79 2.03  88 2.03  82 2.21  85 2.21  64 2.23 103 2.23  12 2.78   6 2.94
                            18 2.97  27 3.00   3 3.06  10 3.08
  22  0.336  0.000  0.663-  75 2.08  87 2.12  96 2.14 108 2.15  90 2.41  93 2.42   7 2.83   4 2.86
                             8 2.95  25 3.00   1 3.00  13 3.26
  23  0.220  0.335  0.899-  56 2.03  95 2.04  59 2.17  62 2.21 107 2.23  92 2.29   9 2.81   5 2.89
                            26 2.98  17 3.01   2 3.05  11 3.05
  24  0.448  0.663  0.780-  94 2.03  97 2.06 100 2.18  76 2.19  61 2.25  91 2.29  10 2.77   6 2.93
                            18 2.96  27 2.99  12 3.02   3 3.09
  25  0.671  0.001  0.669- 102 2.12  75 2.14  81 2.17  99 2.22  96 2.22  78 2.31  13 2.62   4 2.68
                             7 2.71  14 2.86  19 2.92  22 3.00
  26  0.889  0.331  0.889-  56 2.04  68 2.06 104 2.07 101 2.16  71 2.21 107 2.23   9 2.86  11 2.87
                             2 2.87  20 2.94  15 2.98  23 2.98
  27  0.111  0.663  0.779- 106 2.04  94 2.04  88 2.09 103 2.18  91 2.24  55 2.25   3 2.85  10 2.86
                            12 2.88  24 2.99  21 3.00  16 3.02
  28  0.999  0.501  0.983- 107 2.06  71 2.08 106 2.13  58 2.19  94 2.21   3 2.99
  29  0.875  0.824  0.236-  78 1.97  55 2.05  73 2.08  79 2.10  72 2.20  18 2.80   3 2.87   7 3.06

  30  0.106  0.171  0.113-  93 1.92  80 1.94  56 2.11  62 2.26   5 3.01   2 3.06   1 3.07
  31  0.333  0.501  0.987-  94 2.06  65 2.07  95 2.07  64 2.08   5 3.06   6 3.08
  32  0.206  0.831  0.232-  66 1.96  79 2.03  61 2.06  60 2.25  84 2.27  85 2.28   6 3.06   3 3.08
                             8 3.09
  33  0.458  0.170  0.107-  99 2.01  62 2.02  68 2.05  69 2.20  63 2.21  86 2.27   5 3.05   8 3.07
                            11 3.08   4 3.10
  34  0.679  0.498  0.004-  71 2.03 101 2.06 100 2.12 106 2.12  70 2.26  11 3.08   6 3.11
  35  0.572  0.829  0.211-  90 1.95  73 2.08  85 2.08  67 2.15  72 2.19   6 2.99
  36  0.769  0.172  0.102-  57 1.99  74 2.06  68 2.07  56 2.22  69 2.25   2 2.92
  37  0.669  0.502  0.333-  76 2.04  71 2.07  58 2.14  77 2.21  70 2.22  89 2.27   2 2.93  10 3.02

  38  0.558  0.829  0.574-  91 2.03  97 2.05  96 2.06  78 2.11  10 2.95   7 3.00
  39  0.778  0.172  0.463-  98 2.00  81 2.03  74 2.07  75 2.19  80 2.21   2 3.03   7 3.04
  40  0.986  0.502  0.351-  82 2.03  58 2.05  77 2.11  59 2.14  83 2.26   3 3.07
  41  0.887  0.829  0.538-  78 2.00  79 2.10  97 2.15 103 2.18 102 2.28  84 2.29  12 2.94  13 3.02

  42  0.097  0.173  0.450-  81 2.00  86 2.04 104 2.08  80 2.13  87 2.22   5 2.98  13 3.07
  43  0.333  0.500  0.344-  70 2.01  83 2.01  88 2.08  89 2.09   6 3.06   5 3.06   9 3.08  10 3.09

  44  0.209  0.826  0.568-  84 1.93  91 1.94 103 2.03 108 2.27  85 2.27  10 2.99
  45  0.459  0.175  0.441-  92 2.00  74 2.01  75 2.10  69 2.15  86 2.22   9 3.01   7 3.09
  46  0.334  0.500  0.682-  76 2.04 107 2.04  95 2.12  94 2.14  10 2.96   9 2.98
  47  0.234  0.826  0.871-  91 2.00  55 2.04  96 2.05  61 2.21   3 3.01
  48  0.446  0.170  0.759-  98 2.01  92 2.01  75 2.04  99 2.25  93 2.28   4 3.00  11 3.07
  49  0.668  0.499  0.647-  76 2.02  82 2.06  77 2.13 101 2.20  95 2.21  11 2.98  12 3.10
  50  0.571  0.833  0.873-  67 1.97 102 2.01  97 2.06  96 2.10   4 2.95  12 3.06   6 3.07
  51  0.777  0.169  0.780-  98 2.03  99 2.12  81 2.14  68 2.17 105 2.23 104 2.24  11 2.89  13 2.93

  52  0.998  0.499  0.668- 107 2.02  82 2.03 101 2.14 106 2.23  83 2.25  88 2.28  12 2.91   9 3.01

  53  0.886  0.825  0.898- 103 2.04  55 2.05  67 2.13 102 2.18 108 2.22  72 2.26  12 2.99   1 3.10

  54  0.111  0.174  0.787- 105 1.93  92 1.99  56 2.13 104 2.19  93 2.28   9 2.86   1 3.08
  55  0.007  0.756  0.007-   3 1.93  47 2.04  53 2.05  29 2.05  27 2.25  16 2.29
  56  0.000  0.260  0.006-   2 2.02  23 2.03  26 2.04  30 2.11  54 2.13  36 2.22
  57  0.862  0.083  0.203-  36 1.99   7 2.03   1 2.03  19 2.40
  58  0.900  0.581  0.219-   3 1.92  40 2.05  37 2.14  16 2.17  28 2.19  18 2.20
  59  0.095  0.411  0.139-   5 1.99  40 2.14   2 2.15  23 2.17
  60  0.120  0.928  0.095-   1 1.95  19 2.14   4 2.19  32 2.25
  61  0.317  0.744  0.025-   6 2.01  32 2.06   3 2.14  47 2.21  24 2.25
  62  0.349  0.255  0.012-   5 2.01  33 2.02  11 2.15  23 2.21  30 2.26
  63  0.240  0.074  0.214-   8 1.97   4 2.20  33 2.21  19 2.21
  64  0.235  0.589  0.195-   6 2.01  31 2.08   3 2.15  21 2.23
  65  0.433  0.412  0.095-   5 1.99  31 2.07  11 2.16  15 2.16
  66  0.399  0.916  0.128-  32 1.96   4 2.02   8 2.05  14 2.39
  67  0.655  0.748  0.985-  50 1.97   6 2.03  53 2.13  35 2.15  12 2.20  16 2.28
  68  0.660  0.259  1.000-  11 2.02  33 2.05  15 2.05  26 2.06  36 2.07  51 2.17
  69  0.546  0.076  0.240-   8 1.99  45 2.15  14 2.20  33 2.20   7 2.22  36 2.25
  70  0.532  0.588  0.236-   6 2.01  43 2.01  16 2.15  10 2.18  37 2.22  34 2.26
  71  0.782  0.419  0.118-   2 1.93  34 2.03  37 2.07  28 2.08  15 2.17  26 2.21
  72  0.787  0.925  0.116-   1 1.98  35 2.19  29 2.20  14 2.20   7 2.22  53 2.26
  73  0.661  0.739  0.329-  16 2.01  10 2.02  18 2.05  29 2.08  35 2.08
  74  0.682  0.244  0.328-   2 1.92  45 2.01  36 2.06  39 2.07  17 2.27  15 2.31
  75  0.554  0.083  0.555-   7 1.95  48 2.04  22 2.08  45 2.10  25 2.14  39 2.19
  76  0.550  0.578  0.551-  10 1.94  49 2.02  37 2.04  46 2.04  24 2.19  18 2.21
  77  0.785  0.407  0.438-   2 2.01  20 2.02  17 2.05  40 2.11  49 2.13  37 2.21
  78  0.782  0.908  0.431-   7 1.94  29 1.97  41 2.00  38 2.11  19 2.11  25 2.31
  79  0.007  0.742  0.326-  32 2.03  21 2.03   3 2.03  18 2.08  41 2.10  29 2.10
  80  0.014  0.253  0.307-  30 1.94   5 2.03  42 2.13   2 2.17  39 2.21  20 2.29
  81  0.896  0.088  0.552-  13 1.94  42 2.00  39 2.03  51 2.14  19 2.16  25 2.17
  82  0.884  0.579  0.567-  12 1.93  40 2.03  52 2.03  49 2.06  21 2.21  18 2.22
  83  0.137  0.411  0.433-   5 2.01  43 2.01   9 2.15  20 2.21  52 2.25  40 2.26
  84  0.125  0.916  0.471-  44 1.93  13 2.03   8 2.07  32 2.27  41 2.29  19 2.38
  85  0.358  0.744  0.322-   6 2.00  35 2.08  10 2.15  21 2.21  44 2.27  32 2.28
  86  0.309  0.255  0.349-   5 2.03  42 2.04   9 2.17  45 2.22  15 2.22  33 2.27
  87  0.213  0.072  0.546-   8 1.97  22 2.12  13 2.18  42 2.22
  88  0.231  0.593  0.544-  10 1.99  21 2.03  43 2.08  27 2.09  52 2.28
  89  0.439  0.407  0.442-   9 2.01  15 2.02  17 2.05  43 2.09  37 2.27
  90  0.475  0.917  0.398-  35 1.95   7 2.02   8 2.03  22 2.41
  91  0.339  0.756  0.651-  10 1.93  44 1.94  47 2.00  38 2.03  27 2.24  24 2.29
  92  0.329  0.245  0.660-   9 1.94  54 1.99  45 2.00  48 2.01  17 2.22  23 2.29
  93  0.208  0.084  0.930-  30 1.92   4 2.04   1 2.06  48 2.28  54 2.28  22 2.42
  94  0.224  0.592  0.894-   3 2.02  24 2.03  27 2.04  31 2.06  46 2.14  28 2.21
  95  0.442  0.409  0.787-  11 2.01  23 2.04  17 2.07  31 2.07  46 2.12  49 2.21
  96  0.438  0.913  0.782-   4 1.95  47 2.05  38 2.06  50 2.10  22 2.14  25 2.22
  97  0.667  0.742  0.672-  12 2.01  38 2.05  24 2.06  50 2.06  18 2.07  41 2.15
  98  0.659  0.246  0.679-  11 1.94  39 2.00  48 2.01  51 2.03  17 2.22  20 2.23
  99  0.551  0.088  0.901-   4 1.94  33 2.01  14 2.03  51 2.12  25 2.22  48 2.25
 100  0.571  0.590  0.902-   6 2.00  34 2.12  12 2.12  24 2.18
 101  0.767  0.419  0.787-  11 1.93  34 2.06  52 2.14  26 2.16  20 2.18  49 2.20
 102  0.777  0.915  0.781-  13 1.94  50 2.01  14 2.10  25 2.12  53 2.18  41 2.28
 103  0.988  0.752  0.677-  12 1.94  44 2.03  53 2.04  41 2.18  27 2.18  21 2.23
 104  0.008  0.260  0.659-   9 2.00  20 2.02  26 2.07  42 2.08  54 2.19  51 2.24
 105  0.931  0.084  0.861-  54 1.93  13 2.04   1 2.07  51 2.23  14 2.41
 106  0.881  0.594  0.890-  12 2.00  16 2.02  27 2.04  34 2.12  28 2.13  52 2.23
 107  0.118  0.422  0.764-   9 1.94  52 2.02  46 2.04  28 2.06  26 2.23  23 2.23
 108  0.095  0.928  0.786-   1 1.98  22 2.15  13 2.18  53 2.22  44 2.27
 
  LATTYP: Found a triclinic cell.
 ALAT       =    15.3760212550
 B/A-ratio  =     0.5783895413
 C/A-ratio  =     1.3943928948
 COS(alpha) =     0.0018199655
 COS(beta)  =     0.3610480895
 COS(gamma) =     0.8656484758
  
  Lattice vectors:
  
 A1 = ( -13.3069400730,  -0.0437324397,  -7.7036006518)
 A2 = (  -4.4317736885,  -0.0295622921,  -7.7103712237)
 A3 = ( -13.3422304023, -14.9220961347,   7.6810640554)


Analysis of symmetry for initial positions (statically):
=====================================================================
 Subroutine PRICEL returns:
 Original cell was already a primitive cell.
 

 Routine SETGRP: Setting up the symmetry group for a 
 triclinic supercell.


 Subroutine GETGRP returns: Found  1 space group operations
 (whereof  1 operations were pure point group operations)
 out of a pool of  2 trial point group operations.


The static configuration has the point symmetry C_1 .


Analysis of symmetry for dynamics (positions and initial velocities):
=====================================================================
 Subroutine PRICEL returns:
 Original cell was already a primitive cell.
 

 Routine SETGRP: Setting up the symmetry group for a 
 triclinic supercell.


 Subroutine GETGRP returns: Found  1 space group operations
 (whereof  1 operations were pure point group operations)
 out of a pool of  2 trial point group operations.


The dynamic configuration has the point symmetry C_1 .


Analysis of structural, dynamic, and magnetic symmetry:
=====================================================================
 Subroutine PRICEL returns:
 Original cell was already a primitive cell.
 

 Routine SETGRP: Setting up the symmetry group for a 
 triclinic supercell.


 Subroutine GETGRP returns: Found  1 space group operations
 (whereof  1 operations were pure point group operations)
 out of a pool of  2 trial point group operations.


The magnetic configuration has the point symmetry C_1 .


 Subroutine INISYM returns: Found  1 space group operations
 (whereof  1 operations are pure point group operations),
 and found     1 'primitive' translations

 
 
 KPOINTS: Automatic mesh                          

Automatic generation of k-mesh.
Space group operators:
 irot       det(A)        alpha          n_x          n_y          n_z        tau_x        tau_y        tau_z
    1     1.000000     0.000000     1.000000     0.000000     0.000000     0.000000     0.000000     0.000000
 
 Subroutine IBZKPT returns following result:
 ===========================================
 
 Found      1 irreducible k-points:
 
 Following reciprocal coordinates:
            Coordinates               Weight
  0.000000  0.000000  0.000000      1.000000
 
 Following cartesian coordinates:
            Coordinates               Weight
  0.000000  0.000000  0.000000      1.000000
 


--------------------------------------------------------------------------------------------------------




 Dimension of arrays:
   k-points           NKPTS =      1   k-points in BZ     NKDIM =      1   number of bands    NBANDS=    432
   number of dos      NEDOS =    301   number of ions     NIONS =    108
   non local maximal  LDIM  =      6   non local SUM 2l+1 LMDIM =     18
   total plane-waves  NPLWV = 548800
   max r-space proj   IRMAX =   9459   max aug-charges    IRDMAX=  30374
   dimension x,y,z NGX =    70 NGY =  112 NGZ =   70
   dimension x,y,z NGXF=   140 NGYF=  224 NGZF=  140
   support grid    NGXF=   140 NGYF=  224 NGZF=  140
   ions per type =              13  14  27  54
   NGX,Y,Z   is equivalent  to a cutoff of  13.11, 12.48, 13.09 a.u.
   NGXF,Y,Z  is equivalent  to a cutoff of  26.22, 24.95, 26.17 a.u.

 SYSTEM =  unknown system                          
 POSCAR =  ce230013_1                              

 Startparameter for this run:
   NWRITE =      1    write-flag & timer
   PREC   = accura    normal or accurate (medium, high low for compatibility)
   ISTART =      0    job   : 0-new  1-cont  2-samecut
   ICHARG =      2    charge: 1-file 2-atom 10-const
   ISPIN  =      2    spin polarized calculation?
   LNONCOLLINEAR =      F non collinear calculations
   LSORBIT =      F    spin-orbit coupling
   INIWAV =      1    electr: 0-lowe 1-rand  2-diag
   LASPH  =      F    aspherical Exc in radial PAW
   METAGGA=      F    non-selfconsistent MetaGGA calc.

 Electronic Relaxation 1
   ENCUT  =  500.0 eV  36.75 Ry    6.06 a.u.  16.18 27.21 16.21*2*pi/ulx,y,z
   ENINI  =  500.0     initial cutoff
   ENAUG  =  628.9 eV  augmentation charge cutoff
   NELM   =     80;   NELMIN=  2; NELMDL= -5     # of ELM steps 
   EDIFF  = 0.1E-04   stopping-criterion for ELM
   LREAL  =      T    real-space projection
   NLSPLINE    = F    spline interpolate recip. space projectors
   LCOMPAT=      F    compatible to vasp.4.4
   GGA_COMPAT  = T    GGA compatible to vasp.4.4-vasp.4.6
   LMAXPAW     = -100 max onsite density
   LMAXMIX     =    2 max onsite mixed and CHGCAR
   VOSKOWN=      1    Vosko Wilk Nusair interpolation
   ROPT   =   -0.00025  -0.00025  -0.00025  -0.00025
 Ionic relaxation
   EDIFFG = -.2E-01   stopping-criterion for IOM
   NSW    =     20    number of steps for IOM
   NBLOCK =      1;   KBLOCK =     20    inner block; outer block 
   IBRION =      1    ionic relax: 0-MD 1-quasi-New 2-CG
   NFREE  =      0    steps in history (QN), initial steepest desc. (CG)
   ISIF   =      3    stress and relaxation
   IWAVPR =     11    prediction:  0-non 1-charg 2-wave 3-comb
   ISYM   =      2    0-nonsym 1-usesym 2-fastsym
   LCORR  =      T    Harris-Foulkes like correction to forces

   POTIM  = 0.5000    time-step for ionic-motion
   TEIN   =    0.0    initial temperature
   TEBEG  =    0.0;   TEEND  =   0.0 temperature during run
   SMASS  =  -3.00    Nose mass-parameter (am)
   estimated Nose-frequenzy (Omega)   =  0.10E-29 period in steps =****** mass=  -0.180E-26a.u.
   SCALEE = 1.0000    scale energy and forces
   NPACO  =    256;   APACO  = 16.0  distance and # of slots for P.C.
   PSTRESS=    0.0 pullay stress

  Mass of Ions in am
   POMASS = 180.95 58.69  7.01 16.00
  Ionic Valenz
   ZVAL   =  11.00 10.00  3.00  6.00
  Atomic Wigner-Seitz radii
   RWIGS  =   1.34  1.15  1.23  0.73
  virtual crystal weights 
   VCA    =   1.00  1.00  1.00  1.00
   NELECT =     688.0000    total number of electrons
   NUPDOWN=      -1.0000    fix difference up-down

 DOS related values:
   EMIN   =  10.00;   EMAX   =-10.00  energy-range for DOS
   EFERMI =   0.00
   ISMEAR =     0;   SIGMA  =   0.05  broadening in eV -4-tet -1-fermi 0-gaus

 Electronic relaxation 2 (details)
   IALGO  =     38    algorithm
   LDIAG  =      T    sub-space diagonalisation (order eigenvalues)
   LSUBROT=      F    optimize rotation matrix (better conditioning)
   TURBO    =      0    0=normal 1=particle mesh
   IRESTART =      0    0=no restart 2=restart with 2 vectors
   NREBOOT  =      0    no. of reboots
   NMIN     =      0    reboot dimension
   EREF     =   0.00    reference energy to select bands
   IMIX   =      4    mixing-type and parameters
     AMIX     =   0.40;   BMIX     =  1.00
     AMIX_MAG =   1.60;   BMIX_MAG =  1.00
     AMIN     =   0.10
     WC   =   100.;   INIMIX=   1;  MIXPRE=   1;  MAXMIX= -45

 Intra band minimization:
   WEIMIN = 0.0010     energy-eigenvalue tresh-hold
   EBREAK =  0.58E-08  absolut break condition
   DEPER  =   0.30     relativ break condition  

   TIME   =   0.40     timestep for ELM

  volume/ion in A,a.u.               =       9.46        63.84
  Fermi-wavevector in a.u.,A,eV,Ry     =   1.434950  2.711662 28.015495  2.059081
  Thomas-Fermi vector in A             =   2.554302
 
 Write flags
   LWAVE        =      F    write WAVECAR
   LDOWNSAMPLE  =      F    k-point downsampling of WAVECAR
   LCHARG       =      T    write CHGCAR
   LVTOT        =      F    write LOCPOT, total local potential
   LVHAR        =      F    write LOCPOT, Hartree potential only
   LELF         =      F    write electronic localiz. function (ELF)
   LORBIT       =      0    0 simple, 1 ext, 2 COOP (PROOUT), +10 PAW based schemes


 Dipole corrections
   LMONO  =      F    monopole corrections only (constant potential shift)
   LDIPOL =      F    correct potential (dipole corrections)
   IDIPOL =      0    1-x, 2-y, 3-z, 4-all directions 
   EPSILON=  1.0000000 bulk dielectric constant

 Exchange correlation treatment:
   GGA     =    PS    GGA type
   LEXCH   =    14    internal setting for exchange type
   VOSKOWN=      1    Vosko Wilk Nusair interpolation
   LHFCALC =     F    Hartree Fock is set to
   LHFONE  =     F    Hartree Fock one center treatment
   AEXX    =    0.0000 exact exchange contribution

 Linear response parameters
   LEPSILON=     F    determine dielectric tensor
   LRPA    =     F    only Hartree local field effects (RPA)
   LNABLA  =     F    use nabla operator in PAW spheres
   LVEL    =     F    velocity operator in full k-point grid
   LINTERFAST=   F  fast interpolation
   KINTER  =     0    interpolate to denser k-point grid
   CSHIFT  =0.1000    complex shift for real part using Kramers Kronig
   OMEGAMAX=  -1.0    maximum frequency
   DEG_THRESHOLD= 0.2000000E-02 threshold for treating states as degnerate
   RTIME   =   -0.100 relaxation time in fs
  (WPLASMAI=    0.000 imaginary part of plasma frequency in eV, 0.658/RTIME)
   DFIELD  = 0.0000000 0.0000000 0.0000000 field for delta impulse in time
 
 Orbital magnetization related:
   ORBITALMAG=     F  switch on orbital magnetization
   LCHIMAG   =     F  perturbation theory with respect to B field
   DQ        =  0.001000  dq finite difference perturbation B field
   LLRAUG    =     F  two centre corrections for induced B field



--------------------------------------------------------------------------------------------------------


 quasi-Newton-method for relaxation of ions
 charge density and potential will be updated during run
 spin polarized calculation
 Variant of blocked Davidson
 Davidson routine will perform the subspace rotation
 perform sub-space diagonalisation
    after iterative eigenvector-optimisation
 modified Broyden-mixing scheme, WC =      100.0
 initial mixing is a Kerker type mixing with AMIX =  0.4000 and BMIX =      1.0000
 Hartree-type preconditioning will be used
 using additional bands           88
 real space projection scheme for non local part
 use partial core corrections
 calculate Harris-corrections to forces 
   (improved forces if not selfconsistent)
 use gradient corrections 
 use of overlap-Matrix (Vanderbilt PP)
 Gauss-broadening in eV      SIGMA  =   0.05


--------------------------------------------------------------------------------------------------------


  energy-cutoff  :      500.00
  volume of cell :     1021.65
      direct lattice vectors                 reciprocal lattice vectors
     8.875166384  0.014170148 -0.006770572     0.112624549  0.000007223 -0.064734461
     0.023671322 14.923318132  0.042848312    -0.000107138  0.067009957 -0.000195342
     4.431773689  0.029562292  7.710371224     0.000099492 -0.000372383  0.129639683

  length of vectors
     8.875180279 14.923398419  8.893329880     0.129903193  0.067010327  0.129640256


 
 k-points in units of 2pi/SCALE and weight: Automatic mesh                          
   0.00000000  0.00000000  0.00000000       1.000
 
 k-points in reciprocal lattice and weights: Automatic mesh                          
   0.00000000  0.00000000  0.00000000       1.000
 
 position of ions in fractional coordinates (direct lattice) 
   0.00045782  0.99920292  0.00158982
   0.86286410  0.33280315  0.22371823
   0.08616732  0.66636164  0.11047673
   0.36747304  0.00021904  0.96838802
   0.22427941  0.33443527  0.22138766
   0.44496863  0.66706646  0.11132525
   0.66999207  0.99905894  0.36461998
   0.33454351  0.99986971  0.33277682
   0.22216232  0.33402834  0.58147996
   0.44376634  0.66663374  0.47083836
   0.57954535  0.33370731  0.86334908
   0.80132630  0.66567957  0.75143718
   0.96711571  0.99979605  0.66630099
   0.66179791  0.00172327  0.99492703
   0.54999883  0.33650741  0.21886900
   0.77053391  0.66262629  0.11543342
   0.55430438  0.33826218  0.55692479
   0.77623860  0.66969308  0.44495490
   0.99332772  0.99739666  0.33564531
   0.89058558  0.33536354  0.55702156
   0.11332774  0.66677700  0.44017584
   0.33581619  0.00028803  0.66346423
   0.21994463  0.33503724  0.89882067
   0.44761005  0.66337457  0.78009855
   0.67061080  0.00147399  0.66884166
   0.88911138  0.33103329  0.88880624
   0.11117889  0.66251579  0.77857138
   0.99917352  0.50056161  0.98270847
   0.87462160  0.82406737  0.23604841
   0.10644734  0.17076623  0.11333813
   0.33323792  0.50064929  0.98723292
   0.20625092  0.83070119  0.23195495
   0.45828092  0.16991888  0.10726397
   0.67916202  0.49770495  0.00404892
   0.57190827  0.82902877  0.21137044
   0.76892415  0.17237200  0.10226241
   0.66908997  0.50163498  0.33280903
   0.55754903  0.82881706  0.57359067
   0.77752181  0.17228043  0.46280625
   0.98553810  0.50224896  0.35140176
   0.88697051  0.82933471  0.53788373
   0.09709557  0.17286485  0.45048875
   0.33342853  0.50038521  0.34400627
   0.20907337  0.82595839  0.56816041
   0.45940797  0.17458710  0.44081908
   0.33360984  0.50023100  0.68215867
   0.23367211  0.82562450  0.87116662
   0.44600445  0.16963990  0.75917187
   0.66787960  0.49910245  0.64690126
   0.57111286  0.83292397  0.87326732
   0.77700036  0.16926653  0.77955520
   0.99808768  0.49906628  0.66777796
   0.88550830  0.82533561  0.89841082
   0.11107316  0.17389296  0.78674737
   0.00716643  0.75579800  0.00695296
   0.00015072  0.26018801  0.00555764
   0.86163767  0.08349635  0.20316130
   0.90015909  0.58080631  0.21914354
   0.09490277  0.41070719  0.13872522
   0.12022370  0.92756743  0.09454831
   0.31700727  0.74435105  0.02518916
   0.34890536  0.25540606  0.01227530
   0.24002230  0.07361421  0.21439375
   0.23475495  0.58858644  0.19491607
   0.43329820  0.41216981  0.09504884
   0.39940231  0.91571327  0.12849195
   0.65500813  0.74796265  0.98495232
   0.66032713  0.25884907  0.99977383
   0.54594945  0.07579284  0.24015115
   0.53169517  0.58806079  0.23603167
   0.78186021  0.41915079  0.11766815
   0.78664271  0.92541072  0.11615176
   0.66115913  0.73933551  0.32915005
   0.68242483  0.24405925  0.32755065
   0.55355123  0.08295490  0.55526387
   0.54992180  0.57822143  0.55058640
   0.78472844  0.40665015  0.43820747
   0.78150461  0.90796444  0.43137823
   0.00683718  0.74213387  0.32617261
   0.01354247  0.25319400  0.30704377
   0.89616447  0.08828225  0.55227808
   0.88350228  0.57867869  0.56747826
   0.13720991  0.41149839  0.43251191
   0.12451303  0.91579743  0.47109448
   0.35822718  0.74390691  0.32241326
   0.30891902  0.25464830  0.34932688
   0.21315450  0.07150691  0.54634237
   0.23149314  0.59285642  0.54438617
   0.43868193  0.40697315  0.44157799
   0.47541172  0.91672954  0.39780481
   0.33884913  0.75590991  0.65057038
   0.32860685  0.24537219  0.65954186
   0.20793631  0.08449330  0.93021816
   0.22382422  0.59196788  0.89444756
   0.44182456  0.40921489  0.78660310
   0.43844396  0.91340732  0.78224011
   0.66663070  0.74240558  0.67226298
   0.65884375  0.24596196  0.67884400
   0.55138544  0.08836521  0.90067980
   0.57125405  0.59006022  0.90193642
   0.76718390  0.41870311  0.78732563
   0.77704821  0.91500148  0.78133336
   0.98822552  0.75217984  0.67658768
   0.00832597  0.25993012  0.65858126
   0.93058177  0.08432975  0.86115953
   0.88142405  0.59406924  0.89011101
   0.11807221  0.42190329  0.76441199
   0.09480056  0.92780253  0.78585069
 
 position of ions in cartesian coordinates  (Angst):
   0.03476141 14.91147654  0.05506916
   8.65740891  4.98536782  1.73336857
   1.27013083  9.94881369  0.87978567
   7.55306610  0.03710372  7.46415251
   2.97957361  5.00060673  1.71979253
   4.45832929  9.96444130  0.88392898
   7.58585338 14.92954728  2.84962716
   4.46758911 14.93595195  2.60641050
   4.55662203  5.00514914  4.49623474
   6.04092926  9.96859468  3.65589812
   8.97762844  5.01375517  6.66711684
  10.45786128  9.96771711  5.81695742
  11.55987453 14.95367608  5.17371963
  10.28289879  0.06450700  7.66684983
   5.85927458  5.03607097  1.69825621
   7.36587669  9.90291398  0.91320998
   7.39571534  5.07231267  4.30483788
   8.87703867 10.01819619  3.45420710
  10.32706254 14.90846571  2.62396131
  10.38062719  5.03382336  4.30318300
   2.97234575  9.96514377  3.42172211
   5.92075470  0.02867045  5.11329418
   5.94334576  5.02955517  6.94310766
   7.44553685  9.92915395  6.04024332
   8.91597219  0.05127197  5.15254023
  11.83783554  4.97898909  6.86119048
   4.45286593  9.91152568  6.03070930
  13.23482173  7.51324970  7.59173035
   8.82803212 12.31719117  1.84940908
   1.45106906  2.55325769  0.88047539
   7.34458590  7.50525553  7.63112806
   2.87814687 12.40659786  1.82265648
   4.54671126  2.54541838  0.83122294
   6.05740116  7.43715283  0.04794618
   6.03215121 12.38621269  1.66139490
   7.28161390  2.58628107  0.79066094
   7.42509348  7.50537809  2.58304526
   7.50998364 12.39355787  4.45433548
   8.95576610  2.59569488  3.57052565
  10.31603659  7.51957447  2.72428588
  10.27542127 12.40489529  4.17681353
   2.86229547  2.59441049  3.48018507
   4.49563640  7.48230202  2.67159920
   4.39307083 12.34579854  4.41470305
   6.03506528  2.62496034  3.40324906
   5.99585681  7.48999983  5.27887190
   5.95423578 12.35012192  6.75081256
   7.32685722  2.56035300  5.85774602
   8.80627697  7.47685248  5.00471263
   8.95856120 12.46389792  6.76503784
  10.35482646  2.56007392  6.01265203
  11.82944858  7.48160896  5.16344249
  11.86012372 12.35585274  6.95644977
   4.47659535  2.61989194  6.07281327
   0.11230794 11.27932109  0.08594605
   0.03212686  3.88303488  0.05399906
   8.54951906  1.26425804  1.56419294
   8.97400472  8.68679111  1.70847002
   1.46679864  6.13455988  1.08657851
   1.50797880 13.84688250  0.76793328
   2.94274470 11.11342421  0.22396564
   3.15704027  3.81681281  0.10322855
   3.08212497  1.10830740  1.65458456
   2.96124577  8.79275137  1.52650577
   4.27658517  6.15989096  0.74758894
   4.13588534 13.67493855  1.02725322
  10.19609718 11.20048359  7.62196218
  10.29741180  3.90179956  7.71524782
   5.91148187  1.14591627  1.85120572
   5.77884222  8.79033009  1.84148933
   7.47053992  6.26967820  0.91993138
   7.51824895 13.82477913  0.92989945
   7.34411687 11.05243817  2.56507193
   7.51404147  3.66152704  2.53137423
   7.37562673  1.26222114  4.28109718
   7.33440906  8.65305142  4.26627806
   8.91625775  6.09264369  3.39085348
   8.86924685 13.57366876  3.35969980
   1.52377159 11.08483913  2.54666480
   1.48693361  3.78776343  2.37817869
  10.40327000  1.34648949  4.25598421
  10.36986305  8.66510150  4.39428164
   3.14429639  6.15565171  3.35153041
   3.21453612 13.68242739  3.67071067
   4.62579769 11.11616689  2.51537567
   4.29587324  3.81490192  2.70225961
   4.31474006  1.08629193  4.21412326
   4.48117013  8.86675856  4.22125502
   5.85998243  6.09266003  3.41919821
   6.00403921 13.69914324  3.10328426
   5.90841649 11.30471796  5.04623440
   5.84518901  3.68592123  5.09360151
   5.96998578  1.29136627  7.17453988
   5.96447902  8.86373854  6.92037213
   7.41700006  6.13635850  6.07954467
   7.37959579 13.66040565  6.06753108
   8.91334949 11.10847454  5.21069449
   8.86165313  3.69997268  5.24021755
   8.88733828  1.35314151  6.94462872
   9.08112034  8.84041444  6.97567999
  10.30804503  6.28258597  6.08331933
  10.38078407 13.68896707  6.05831546
  11.78695448 11.25902383  5.24228096
   2.99873036  3.89860702  5.08898719
  12.07752839  1.29712402  6.63717248
  11.78161806  8.90428789  6.88257344
   4.44559846  6.32046789  5.91117864
   4.34604547 13.87046720  6.09831346
 


--------------------------------------------------------------------------------------------------------


 use serial FFT for orbitals x direction half grid
 k-point  1 :   0.0000 0.0000 0.0000  plane waves:   12968

 maximum and minimum number of plane-waves per node :     12968    12968

 maximum number of plane-waves:     12968
 maximum index in each direction: 
   IXMAX=   16   IYMAX=   27   IZMAX=   16
   IXMIN=    0   IYMIN=  -27   IZMIN=  -14

 The following grids will avoid any aliasing or wrap around errors in the Hartre
 e energy
  - symmetry arguments have not been applied
  - exchange correlation energies might require even more grid points
  - we recommend to set PREC=Normal or Accurate and rely on VASP defaults
 NGX is ok and might be reduce to    70
 NGY is ok and might be reduce to   112
 NGZ is ok and might be reduce to    64

 serial   3D FFT for wavefunctions
 parallel 3D FFT for charge:
    minimum data exchange during FFTs selected (reduces bandwidth)


 total amount of memory used by VASP MPI-rank0   175431. kBytes
=======================================================================

   base      :      30000. kBytes
   nonlr-proj:      48696. kBytes
   fftplans  :      11817. kBytes
   grid      :      71572. kBytes
   one-center:       1679. kBytes
   wavefun   :      11667. kBytes
 
     INWAV:  cpu time    0.0000: real time    0.0000
 Broyden mixing: mesh for mixing (old mesh)
   NGX = 33   NGY = 55   NGZ = 33
  (NGX  =140   NGY  =224   NGZ  =140)
  gives a total of  59895 points

 initial charge density was supplied:
 charge density of overlapping atoms calculated
 number of electron     688.0000000 magnetization      35.0000000
 keeping initial charge density in first step


--------------------------------------------------------------------------------------------------------


 Maximum index for non-local projection operator         9157
 Maximum index for augmentation-charges         2185 (set IRDMAX)


--------------------------------------------------------------------------------------------------------


 First call to EWALD:  gamma=   0.176
 Maximum number of real-space cells 3x 2x 3
 Maximum number of reciprocal cells 2x 4x 2

    FEWALD:  cpu time    0.0048: real time    0.0048


--------------------------------------- Iteration      1(   1)  ---------------------------------------


    POTLOK:  cpu time    0.3571: real time    0.3602
    SETDIJ:  cpu time    0.0506: real time    0.0507
     EDDAV:  cpu time    5.9646: real time    6.2600
    --------------------------------------------
      LOOP:  cpu time    6.3726: real time    6.6712

 eigenvalue-minimisations  :  1744
 total energy-change (2. order) : 0.1159791E+05  (-0.3460661E+05)
 number of electron     688.0000000 magnetization      35.0000000
 augmentation part      688.0000000 magnetization      35.0000000

 Free energy of the ion-electron system (eV)
  ---------------------------------------------------
  alpha Z        PSCENC =      3287.03551270
  Ewald energy   TEWEN  =    -43846.04490729
  -Hartree energ DENC   =    -13742.26949909
  -exchange      EXHF   =         0.00000000
  -V(xc)+E(xc)   XCENC  =      2640.07437161
  PAW double counting   =     44975.79374593   -46189.75462776
  entropy T*S    EENTRO =        -0.00000000
  eigenvalues    EBANDS =      7089.36131151
  atomic energy  EATOM  =     57383.71668513
  Solvation  Ediel_sol  =         0.00000000
  ---------------------------------------------------
  free energy    TOTEN  =     11597.91259276 eV

  energy without entropy =    11597.91259276  energy(sigma->0) =    11597.91259276


--------------------------------------------------------------------------------------------------------




--------------------------------------- Iteration      1(   2)  ---------------------------------------


     EDDAV:  cpu time    5.8417: real time    5.8556
    --------------------------------------------
      LOOP:  cpu time    5.8417: real time    5.8555

 eigenvalue-minimisations  :  1792
 total energy-change (2. order) :-0.1007525E+05  (-0.9472825E+04)
 number of electron     688.0000000 magnetization      35.0000000
 augmentation part      688.0000000 magnetization      35.0000000

 Free energy of the ion-electron system (eV)
  ---------------------------------------------------
  alpha Z        PSCENC =      3287.03551270
  Ewald energy   TEWEN  =    -43846.04490729
  -Hartree energ DENC   =    -13742.26949909
  -exchange      EXHF   =         0.00000000
  -V(xc)+E(xc)   XCENC  =      2640.07437161
  PAW double counting   =     44975.79374593   -46189.75462776
  entropy T*S    EENTRO =        -0.01370195
  eigenvalues    EBANDS =     -2985.87521475
  atomic energy  EATOM  =     57383.71668513
  Solvation  Ediel_sol  =         0.00000000
  ---------------------------------------------------
  free energy    TOTEN  =      1522.66236455 eV

  energy without entropy =     1522.67606649  energy(sigma->0) =     1522.66921552


--------------------------------------------------------------------------------------------------------




--------------------------------------- Iteration      1(   3)  ---------------------------------------


     EDDAV:  cpu time    5.7589: real time    5.7725
    --------------------------------------------
      LOOP:  cpu time    5.7589: real time    5.7725

 eigenvalue-minimisations  :  1984
 total energy-change (2. order) :-0.2132758E+04  (-0.1934015E+04)
 number of electron     688.0000000 magnetization      35.0000000
 augmentation part      688.0000000 magnetization      35.0000000

 Free energy of the ion-electron system (eV)
  ---------------------------------------------------
  alpha Z        PSCENC =      3287.03551270
  Ewald energy   TEWEN  =    -43846.04490729
  -Hartree energ DENC   =    -13742.26949909
  -exchange      EXHF   =         0.00000000
  -V(xc)+E(xc)   XCENC  =      2640.07437161
  PAW double counting   =     44975.79374593   -46189.75462776
  entropy T*S    EENTRO =        -0.05941779
  eigenvalues    EBANDS =     -5118.58769580
  atomic energy  EATOM  =     57383.71668513
  Solvation  Ediel_sol  =         0.00000000
  ---------------------------------------------------
  free energy    TOTEN  =      -610.09583234 eV

  energy without entropy =     -610.03641456  energy(sigma->0) =     -610.06612345


--------------------------------------------------------------------------------------------------------




--------------------------------------- Iteration      1(   4)  ---------------------------------------


     EDDAV:  cpu time    6.1819: real time    6.1965
    --------------------------------------------
      LOOP:  cpu time    6.1819: real time    6.1965

 eigenvalue-minimisations  :  2176
 total energy-change (2. order) :-0.2942303E+03  (-0.2825554E+03)
 number of electron     688.0000000 magnetization      35.0000000
 augmentation part      688.0000000 magnetization      35.0000000

 Free energy of the ion-electron system (eV)
  ---------------------------------------------------
  alpha Z        PSCENC =      3287.03551270
  Ewald energy   TEWEN  =    -43846.04490729
  -Hartree energ DENC   =    -13742.26949909
  -exchange      EXHF   =         0.00000000
  -V(xc)+E(xc)   XCENC  =      2640.07437161
  PAW double counting   =     44975.79374593   -46189.75462776
  entropy T*S    EENTRO =        -0.06355762
  eigenvalues    EBANDS =     -5412.81390024
  atomic energy  EATOM  =     57383.71668513
  Solvation  Ediel_sol  =         0.00000000
  ---------------------------------------------------
  free energy    TOTEN  =      -904.32617661 eV

  energy without entropy =     -904.26261900  energy(sigma->0) =     -904.29439780


--------------------------------------------------------------------------------------------------------




--------------------------------------- Iteration      1(   5)  ---------------------------------------


     EDDAV:  cpu time    8.2263: real time    8.2458
    CHARGE:  cpu time    0.3415: real time    0.3423
    MIXING:  cpu time    0.0055: real time    0.0055
    --------------------------------------------
      LOOP:  cpu time    8.5730: real time    8.5932

 eigenvalue-minimisations  :  3088
 total energy-change (2. order) :-0.2655029E+02  (-0.2606714E+02)
 number of electron     687.9999973 magnetization      31.9432887
 augmentation part      186.0466078 magnetization      29.4849741

 Broyden mixing:
  rms(total) = 0.13374E+02    rms(broyden)= 0.13372E+02
  rms(prec ) = 0.14259E+02
  weight for this iteration     100.00

 Free energy of the ion-electron system (eV)
  ---------------------------------------------------
  alpha Z        PSCENC =      3287.03551270
  Ewald energy   TEWEN  =    -43846.04490729
  -Hartree energ DENC   =    -13742.26949909
  -exchange      EXHF   =         0.00000000
  -V(xc)+E(xc)   XCENC  =      2640.07437161
  PAW double counting   =     44975.79374593   -46189.75462776
  entropy T*S    EENTRO =        -0.06693883
  eigenvalues    EBANDS =     -5439.36081333
  atomic energy  EATOM  =     57383.71668513
  Solvation  Ediel_sol  =         0.00000000
  ---------------------------------------------------
  free energy    TOTEN  =      -930.87647092 eV

  energy without entropy =     -930.80953209  energy(sigma->0) =     -930.84300151


--------------------------------------------------------------------------------------------------------




--------------------------------------- Iteration      1(   6)  ---------------------------------------


    POTLOK:  cpu time    0.2609: real time    0.2615
    SETDIJ:  cpu time    0.0373: real time    0.0374
     EDDAV:  cpu time    7.1495: real time    7.1665
    CHARGE:  cpu time    0.3198: real time    0.3206
    MIXING:  cpu time    0.0055: real time    0.0055
    --------------------------------------------
      LOOP:  cpu time    7.7731: real time    7.7915

 eigenvalue-minimisations  :  2544
 total energy-change (2. order) : 0.4674057E+02  (-0.1184049E+03)
 number of electron     687.9999976 magnetization      29.5286137
 augmentation part      205.9039547 magnetization      23.6577926

 Broyden mixing:
  rms(total) = 0.13843E+02    rms(broyden)= 0.13842E+02
  rms(prec ) = 0.14673E+02
  weight for this iteration     100.00

 eigenvalues of (default mixing * dielectric matrix)
  average eigenvalue GAMMA=   0.3925
  0.3925

 Free energy of the ion-electron system (eV)
  ---------------------------------------------------
  alpha Z        PSCENC =      3287.03551270
  Ewald energy   TEWEN  =    -43846.04490729
  -Hartree energ DENC   =    -13675.20769422
  -exchange      EXHF   =         0.00000000
  -V(xc)+E(xc)   XCENC  =      2667.32683714
  PAW double counting   =     56394.25489228   -57514.91389388
  entropy T*S    EENTRO =        -0.05095274
  eigenvalues    EBANDS =     -5580.25238242
  atomic energy  EATOM  =     57383.71668513
  Solvation  Ediel_sol  =         0.00000000
  ---------------------------------------------------
  free energy    TOTEN  =      -884.13590329 eV

  energy without entropy =     -884.08495055  energy(sigma->0) =     -884.11042692


--------------------------------------------------------------------------------------------------------




--------------------------------------- Iteration      1(   7)  ---------------------------------------


    POTLOK:  cpu time    0.2608: real time    0.2614
    SETDIJ:  cpu time    0.0373: real time    0.0373
     EDDAV:  cpu time    6.2228: real time    6.2374
    CHARGE:  cpu time    0.4514: real time    0.4524
    MIXING:  cpu time    0.0070: real time    0.0070
    --------------------------------------------
      LOOP:  cpu time    6.9792: real time    6.9957

 eigenvalue-minimisations  :  2144
 total energy-change (2. order) : 0.7266196E+02  (-0.5684957E+02)
 number of electron     687.9999976 magnetization      26.8827952
 augmentation part      194.3626892 magnetization      22.2242437

 Broyden mixing:
  rms(total) = 0.73923E+01    rms(broyden)= 0.73917E+01
  rms(prec ) = 0.77739E+01
  weight for this iteration     100.00

 eigenvalues of (default mixing * dielectric matrix)
  average eigenvalue GAMMA=   0.6319
  0.8631  0.4008

 Free energy of the ion-electron system (eV)
  ---------------------------------------------------
  alpha Z        PSCENC =      3287.03551270
  Ewald energy   TEWEN  =    -43846.04490729
  -Hartree energ DENC   =    -13859.24819339
  -exchange      EXHF   =         0.00000000
  -V(xc)+E(xc)   XCENC  =      2664.44776649
  PAW double counting   =     61164.05566265   -62418.89463159
  entropy T*S    EENTRO =        -0.00494108
  eigenvalues    EBANDS =     -5186.53689894
  atomic energy  EATOM  =     57383.71668513
  Solvation  Ediel_sol  =         0.00000000
  ---------------------------------------------------
  free energy    TOTEN  =      -811.47394531 eV

  energy without entropy =     -811.46900423  energy(sigma->0) =     -811.47147477


--------------------------------------------------------------------------------------------------------




--------------------------------------- Iteration      1(   8)  ---------------------------------------


    POTLOK:  cpu time    0.3162: real time    0.3169
    SETDIJ:  cpu time    0.0510: real time    0.0511
     EDDAV:  cpu time    6.7255: real time    6.7414
    CHARGE:  cpu time    0.3250: real time    0.3258
    MIXING:  cpu time    0.0059: real time    0.0059
    --------------------------------------------
      LOOP:  cpu time    7.4236: real time    7.4412

 eigenvalue-minimisations  :  2416
 total energy-change (2. order) :-0.6837241E+02  (-0.2503592E+02)
 number of electron     687.9999983 magnetization      25.2441665
 augmentation part      179.6173633 magnetization      20.8885913

 Broyden mixing:
  rms(total) = 0.13664E+02    rms(broyden)= 0.13663E+02
  rms(prec ) = 0.17332E+02
  weight for this iteration     100.00

 eigenvalues of (default mixing * dielectric matrix)
  average eigenvalue GAMMA=   0.5944
  1.1697  0.3700  0.2436

 Free energy of the ion-electron system (eV)
  ---------------------------------------------------
  alpha Z        PSCENC =      3287.03551270
  Ewald energy   TEWEN  =    -43846.04490729
  -Hartree energ DENC   =    -13848.39198012
  -exchange      EXHF   =         0.00000000
  -V(xc)+E(xc)   XCENC  =      2661.84581518
  PAW double counting   =     67353.39670220   -68665.03530065
  entropy T*S    EENTRO =        -0.07472445
  eigenvalues    EBANDS =     -5206.29415437
  atomic energy  EATOM  =     57383.71668513
  Solvation  Ediel_sol  =         0.00000000
  ---------------------------------------------------
  free energy    TOTEN  =      -879.84635167 eV

  energy without entropy =     -879.77162722  energy(sigma->0) =     -879.80898945


--------------------------------------------------------------------------------------------------------




--------------------------------------- Iteration      1(   9)  ---------------------------------------


    POTLOK:  cpu time    0.2596: real time    0.2602
    SETDIJ:  cpu time    0.0374: real time    0.0374
     EDDAV:  cpu time    6.7047: real time    6.7205
    CHARGE:  cpu time    0.3234: real time    0.3242
    MIXING:  cpu time    0.0062: real time    0.0062
    --------------------------------------------
      LOOP:  cpu time    7.3313: real time    7.3486

 eigenvalue-minimisations  :  2384
 total energy-change (2. order) : 0.4548540E+02  (-0.1553074E+02)
 number of electron     687.9999970 magnetization      22.8736531
 augmentation part      189.2706614 magnetization      16.9210737

 Broyden mixing:
  rms(total) = 0.68913E+01    rms(broyden)= 0.68904E+01
  rms(prec ) = 0.81519E+01
  weight for this iteration     100.00

 eigenvalues of (default mixing * dielectric matrix)
  average eigenvalue GAMMA=   0.6542
  1.6154  0.4326  0.4326  0.1363

 Free energy of the ion-electron system (eV)
  ---------------------------------------------------
  alpha Z        PSCENC =      3287.03551270
  Ewald energy   TEWEN  =    -43846.04490729
  -Hartree energ DENC   =    -13756.04040325
  -exchange      EXHF   =         0.00000000
  -V(xc)+E(xc)   XCENC  =      2656.15333035
  PAW double counting   =     69946.48121276   -71244.53807061
  entropy T*S    EENTRO =        -0.05477251
  eigenvalues    EBANDS =     -5261.06954383
  atomic energy  EATOM  =     57383.71668513
  Solvation  Ediel_sol  =         0.00000000
  ---------------------------------------------------
  free energy    TOTEN  =      -834.36095656 eV

  energy without entropy =     -834.30618405  energy(sigma->0) =     -834.33357030


--------------------------------------------------------------------------------------------------------




--------------------------------------- Iteration      1(  10)  ---------------------------------------


    POTLOK:  cpu time    0.3525: real time    0.3534
    SETDIJ:  cpu time    0.0611: real time    0.0613
     EDDAV:  cpu time    7.2394: real time    7.2566
    CHARGE:  cpu time    0.3187: real time    0.3194
    MIXING:  cpu time    0.0063: real time    0.0064
    --------------------------------------------
      LOOP:  cpu time    7.9781: real time    7.9970

 eigenvalue-minimisations  :  2416
 total energy-change (2. order) :-0.4703121E+01  (-0.1676002E+02)
 number of electron     687.9999976 magnetization      21.0469412
 augmentation part      196.9490772 magnetization      16.2228182

 Broyden mixing:
  rms(total) = 0.53490E+01    rms(broyden)= 0.53486E+01
  rms(prec ) = 0.61605E+01
  weight for this iteration     100.00

 eigenvalues of (default mixing * dielectric matrix)
  average eigenvalue GAMMA=   0.6235
  1.7737  0.4913  0.4913  0.1805  0.1805

 Free energy of the ion-electron system (eV)
  ---------------------------------------------------
  alpha Z        PSCENC =      3287.03551270
  Ewald energy   TEWEN  =    -43846.04490729
  -Hartree energ DENC   =    -13639.23965506
  -exchange      EXHF   =         0.00000000
  -V(xc)+E(xc)   XCENC  =      2652.06697600
  PAW double counting   =     74600.91686859   -75885.02598515
  entropy T*S    EENTRO =        -0.01917929
  eigenvalues    EBANDS =     -5392.47039355
  atomic energy  EATOM  =     57383.71668513
  Solvation  Ediel_sol  =         0.00000000
  ---------------------------------------------------
  free energy    TOTEN  =      -839.06407791 eV

  energy without entropy =     -839.04489862  energy(sigma->0) =     -839.05448827


--------------------------------------------------------------------------------------------------------




--------------------------------------- Iteration      1(  11)  ---------------------------------------


    POTLOK:  cpu time    0.2606: real time    0.2613
    SETDIJ:  cpu time    0.0376: real time    0.0376
     EDDAV:  cpu time    6.6813: real time    6.6970
    CHARGE:  cpu time    0.3179: real time    0.3186
    MIXING:  cpu time    0.0067: real time    0.0067
    --------------------------------------------
      LOOP:  cpu time    7.3040: real time    7.3212

 eigenvalue-minimisations  :  2240
 total energy-change (2. order) :-0.4340657E+01  (-0.5281289E+01)
 number of electron     687.9999979 magnetization      19.9294315
 augmentation part      196.5457336 magnetization      18.3313787

 Broyden mixing:
  rms(total) = 0.78498E+01    rms(broyden)= 0.78494E+01
  rms(prec ) = 0.98797E+01
  weight for this iteration     100.00

 eigenvalues of (default mixing * dielectric matrix)
  average eigenvalue GAMMA=   0.5750
  1.8806  0.4916  0.4916  0.2195  0.2195  0.1470

 Free energy of the ion-electron system (eV)
  ---------------------------------------------------
  alpha Z        PSCENC =      3287.03551270
  Ewald energy   TEWEN  =    -43846.04490729
  -Hartree energ DENC   =    -13664.23316464
  -exchange      EXHF   =         0.00000000
  -V(xc)+E(xc)   XCENC  =      2654.41905839
  PAW double counting   =     77408.42575817   -78711.87783626
  entropy T*S    EENTRO =        -0.02224986
  eigenvalues    EBANDS =     -5354.82359142
  atomic energy  EATOM  =     57383.71668513
  Solvation  Ediel_sol  =         0.00000000
  ---------------------------------------------------
  free energy    TOTEN  =      -843.40473507 eV

  energy without entropy =     -843.38248522  energy(sigma->0) =     -843.39361015


--------------------------------------------------------------------------------------------------------




--------------------------------------- Iteration      1(  12)  ---------------------------------------


    POTLOK:  cpu time    0.2604: real time    0.2610
    SETDIJ:  cpu time    0.0376: real time    0.0377
     EDDAV:  cpu time    6.6049: real time    6.6205
    CHARGE:  cpu time    0.3215: real time    0.3222
    MIXING:  cpu time    0.0070: real time    0.0070
    --------------------------------------------
      LOOP:  cpu time    7.2313: real time    7.2484

 eigenvalue-minimisations  :  2192
 total energy-change (2. order) : 0.2036211E+02  (-0.1105110E+02)
 number of electron     687.9999976 magnetization      19.3139883
 augmentation part      196.2164042 magnetization      15.8239679

 Broyden mixing:
  rms(total) = 0.44228E+01    rms(broyden)= 0.44221E+01
  rms(prec ) = 0.53186E+01
  weight for this iteration     100.00

 eigenvalues of (default mixing * dielectric matrix)
  average eigenvalue GAMMA=   0.5446
  1.9382  0.4452  0.4452  0.3637  0.3637  0.1523  0.1037

 Free energy of the ion-electron system (eV)
  ---------------------------------------------------
  alpha Z        PSCENC =      3287.03551270
  Ewald energy   TEWEN  =    -43846.04490729
  -Hartree energ DENC   =    -13678.16320730
  -exchange      EXHF   =         0.00000000
  -V(xc)+E(xc)   XCENC  =      2654.81670305
  PAW double counting   =     78420.88361784   -79733.42338300
  entropy T*S    EENTRO =        -0.03274382
  eigenvalues    EBANDS =     -5311.83090505
  atomic energy  EATOM  =     57383.71668513
  Solvation  Ediel_sol  =         0.00000000
  ---------------------------------------------------
  free energy    TOTEN  =      -823.04262774 eV

  energy without entropy =     -823.00988391  energy(sigma->0) =     -823.02625583


--------------------------------------------------------------------------------------------------------




--------------------------------------- Iteration      1(  13)  ---------------------------------------


    POTLOK:  cpu time    0.2578: real time    0.2584
    SETDIJ:  cpu time    0.0361: real time    0.0362
     EDDAV:  cpu time    6.6039: real time    6.6195
    CHARGE:  cpu time    0.3240: real time    0.3248
    MIXING:  cpu time    0.0072: real time    0.0072
    --------------------------------------------
      LOOP:  cpu time    7.2290: real time    7.2461

 eigenvalue-minimisations  :  2320
 total energy-change (2. order) : 0.8937388E+01  (-0.3405436E+01)
 number of electron     687.9999977 magnetization      19.0581126
 augmentation part      195.8863970 magnetization      15.4867619

 Broyden mixing:
  rms(total) = 0.45117E+01    rms(broyden)= 0.45110E+01
  rms(prec ) = 0.55650E+01
  weight for this iteration     100.00

 eigenvalues of (default mixing * dielectric matrix)
  average eigenvalue GAMMA=   0.5047
  1.9305  0.4769  0.4769  0.3923  0.3923  0.1504  0.1090  0.1090

 Free energy of the ion-electron system (eV)
  ---------------------------------------------------
  alpha Z        PSCENC =      3287.03551270
  Ewald energy   TEWEN  =    -43846.04490729
  -Hartree energ DENC   =    -13689.44769733
  -exchange      EXHF   =         0.00000000
  -V(xc)+E(xc)   XCENC  =      2655.03546816
  PAW double counting   =     78654.23813576   -79971.55763490
  entropy T*S    EENTRO =        -0.05075400
  eigenvalues    EBANDS =     -5287.03004845
  atomic energy  EATOM  =     57383.71668513
  Solvation  Ediel_sol  =         0.00000000
  ---------------------------------------------------
  free energy    TOTEN  =      -814.10524022 eV

  energy without entropy =     -814.05448622  energy(sigma->0) =     -814.07986322


--------------------------------------------------------------------------------------------------------




--------------------------------------- Iteration      1(  14)  ---------------------------------------


    POTLOK:  cpu time    0.2616: real time    0.2623
    SETDIJ:  cpu time    0.0452: real time    0.0453
     EDDAV:  cpu time    6.8630: real time    6.8792
    CHARGE:  cpu time    0.3611: real time    0.3619
    MIXING:  cpu time    0.0114: real time    0.0115
    --------------------------------------------
      LOOP:  cpu time    7.5424: real time    7.5602

 eigenvalue-minimisations  :  2464
 total energy-change (2. order) : 0.6191238E+01  (-0.2488319E+01)
 number of electron     687.9999975 magnetization      18.8983807
 augmentation part      195.6552943 magnetization      14.5256658

 Broyden mixing:
  rms(total) = 0.32482E+01    rms(broyden)= 0.32476E+01
  rms(prec ) = 0.39719E+01
  weight for this iteration     100.00

 eigenvalues of (default mixing * dielectric matrix)
  average eigenvalue GAMMA=   0.4923
  1.9247  0.5679  0.5679  0.3937  0.3937  0.2095  0.1690  0.1111  0.0930

 Free energy of the ion-electron system (eV)
  ---------------------------------------------------
  alpha Z        PSCENC =      3287.03551270
  Ewald energy   TEWEN  =    -43846.04490729
  -Hartree energ DENC   =    -13697.13128886
  -exchange      EXHF   =         0.00000000
  -V(xc)+E(xc)   XCENC  =      2655.13824122
  PAW double counting   =     78549.25127329   -79868.02771196
  entropy T*S    EENTRO =        -0.06560974
  eigenvalues    EBANDS =     -5271.78619711
  atomic energy  EATOM  =     57383.71668513
  Solvation  Ediel_sol  =         0.00000000
  ---------------------------------------------------
  free energy    TOTEN  =      -807.91400261 eV

  energy without entropy =     -807.84839287  energy(sigma->0) =     -807.88119774


--------------------------------------------------------------------------------------------------------




--------------------------------------- Iteration      1(  15)  ---------------------------------------


    POTLOK:  cpu time    0.3750: real time    0.3759
    SETDIJ:  cpu time    0.0550: real time    0.0551
     EDDAV:  cpu time    6.6809: real time    6.6967
    CHARGE:  cpu time    0.3347: real time    0.3355
    MIXING:  cpu time    0.0081: real time    0.0081
    --------------------------------------------
      LOOP:  cpu time    7.4537: real time    7.4713

 eigenvalue-minimisations  :  2384
 total energy-change (2. order) : 0.1886430E+01  (-0.1904716E+01)
 number of electron     687.9999977 magnetization      18.8181109
 augmentation part      195.1484083 magnetization      14.4249927

 Broyden mixing:
  rms(total) = 0.32338E+01    rms(broyden)= 0.32332E+01
  rms(prec ) = 0.38705E+01
  weight for this iteration     100.00

 eigenvalues of (default mixing * dielectric matrix)
  average eigenvalue GAMMA=   0.4491
  1.9307  0.5231  0.5231  0.3980  0.3980  0.2349  0.1781  0.1094  0.1094  0.0859

 Free energy of the ion-electron system (eV)
  ---------------------------------------------------
  alpha Z        PSCENC =      3287.03551270
  Ewald energy   TEWEN  =    -43846.04490729
  -Hartree energ DENC   =    -13707.79154146
  -exchange      EXHF   =         0.00000000
  -V(xc)+E(xc)   XCENC  =      2655.47736429
  PAW double counting   =     78460.06253938   -79780.69173015
  entropy T*S    EENTRO =        -0.04117809
  eigenvalues    EBANDS =     -5257.75031721
  atomic energy  EATOM  =     57383.71668513
  Solvation  Ediel_sol  =         0.00000000
  ---------------------------------------------------
  free energy    TOTEN  =      -806.02757269 eV

  energy without entropy =     -805.98639460  energy(sigma->0) =     -806.00698365


--------------------------------------------------------------------------------------------------------




--------------------------------------- Iteration      1(  16)  ---------------------------------------


    POTLOK:  cpu time    0.2732: real time    0.2738
    SETDIJ:  cpu time    0.0374: real time    0.0375
     EDDAV:  cpu time    6.6929: real time    6.7087
    CHARGE:  cpu time    0.3122: real time    0.3130
    MIXING:  cpu time    0.0081: real time    0.0081
    --------------------------------------------
      LOOP:  cpu time    7.3238: real time    7.3411

 eigenvalue-minimisations  :  2336
 total energy-change (2. order) : 0.4900828E+00  (-0.1435477E+01)
 number of electron     687.9999974 magnetization      18.6604346
 augmentation part      194.7770509 magnetization      15.1238687

 Broyden mixing:
  rms(total) = 0.35514E+01    rms(broyden)= 0.35507E+01
  rms(prec ) = 0.43012E+01
  weight for this iteration     100.00

 eigenvalues of (default mixing * dielectric matrix)
  average eigenvalue GAMMA=   0.4230
  1.9354  0.4418  0.4418  0.3765  0.3765  0.3212  0.3212  0.1491  0.1045  0.1045
  0.0802

 Free energy of the ion-electron system (eV)
  ---------------------------------------------------
  alpha Z        PSCENC =      3287.03551270
  Ewald energy   TEWEN  =    -43846.04490729
  -Hartree energ DENC   =    -13716.12632728
  -exchange      EXHF   =         0.00000000
  -V(xc)+E(xc)   XCENC  =      2656.04840295
  PAW double counting   =     78529.93869360   -79851.95845080
  entropy T*S    EENTRO =        -0.02703892
  eigenvalues    EBANDS =     -5248.12005999
  atomic energy  EATOM  =     57383.71668513
  Solvation  Ediel_sol  =         0.00000000
  ---------------------------------------------------
  free energy    TOTEN  =      -805.53748989 eV

  energy without entropy =     -805.51045097  energy(sigma->0) =     -805.52397043


--------------------------------------------------------------------------------------------------------




--------------------------------------- Iteration      1(  17)  ---------------------------------------


    POTLOK:  cpu time    0.2606: real time    0.2612
    SETDIJ:  cpu time    0.0375: real time    0.0376
     EDDAV:  cpu time    7.2020: real time    7.2190
    CHARGE:  cpu time    0.3108: real time    0.3115
    MIXING:  cpu time    0.0084: real time    0.0084
    --------------------------------------------
      LOOP:  cpu time    7.8193: real time    7.8378

 eigenvalue-minimisations  :  2384
 total energy-change (2. order) : 0.8075658E+00  (-0.1183852E+01)
 number of electron     687.9999977 magnetization      18.6926034
 augmentation part      194.7457686 magnetization      13.8434834

 Broyden mixing:
  rms(total) = 0.28244E+01    rms(broyden)= 0.28238E+01
  rms(prec ) = 0.35027E+01
  weight for this iteration     100.00

 eigenvalues of (default mixing * dielectric matrix)
  average eigenvalue GAMMA=   0.4177
  1.9309  0.4267  0.4267  0.4750  0.4750  0.3504  0.3504  0.1507  0.1507  0.1072
  0.1072  0.0616

 Free energy of the ion-electron system (eV)
  ---------------------------------------------------
  alpha Z        PSCENC =      3287.03551270
  Ewald energy   TEWEN  =    -43846.04490729
  -Hartree energ DENC   =    -13718.76322012
  -exchange      EXHF   =         0.00000000
  -V(xc)+E(xc)   XCENC  =      2656.14046218
  PAW double counting   =     78554.18946043   -79876.05159391
  entropy T*S    EENTRO =        -0.01887188
  eigenvalues    EBANDS =     -5244.93345136
  atomic energy  EATOM  =     57383.71668513
  Solvation  Ediel_sol  =         0.00000000
  ---------------------------------------------------
  free energy    TOTEN  =      -804.72992411 eV

  energy without entropy =     -804.71105223  energy(sigma->0) =     -804.72048817


--------------------------------------------------------------------------------------------------------




--------------------------------------- Iteration      1(  18)  ---------------------------------------


    POTLOK:  cpu time    0.2602: real time    0.2608
    SETDIJ:  cpu time    0.0372: real time    0.0373
     EDDAV:  cpu time    7.1389: real time    7.1557
    CHARGE:  cpu time    0.3104: real time    0.3111
    MIXING:  cpu time    0.0086: real time    0.0086
    --------------------------------------------
      LOOP:  cpu time    7.7553: real time    7.7736

 eigenvalue-minimisations  :  2480
 total energy-change (2. order) : 0.6765381E+00  (-0.6855321E-01)
 number of electron     687.9999976 magnetization      18.6220333
 augmentation part      194.6681474 magnetization      13.8127461

 Broyden mixing:
  rms(total) = 0.31783E+01    rms(broyden)= 0.31780E+01
  rms(prec ) = 0.38142E+01
  weight for this iteration     100.00

 eigenvalues of (default mixing * dielectric matrix)
  average eigenvalue GAMMA=   0.4128
  1.9490  0.5393  0.5393  0.4823  0.4823  0.3224  0.2487  0.1880  0.1880  0.1554
  0.1029  0.1029  0.0656

 Free energy of the ion-electron system (eV)
  ---------------------------------------------------
  alpha Z        PSCENC =      3287.03551270
  Ewald energy   TEWEN  =    -43846.04490729
  -Hartree energ DENC   =    -13720.29580029
  -exchange      EXHF   =         0.00000000
  -V(xc)+E(xc)   XCENC  =      2656.30252081
  PAW double counting   =     78526.26869814   -79846.81332124
  entropy T*S    EENTRO =        -0.01284688
  eigenvalues    EBANDS =     -5244.20992712
  atomic energy  EATOM  =     57383.71668513
  Solvation  Ediel_sol  =         0.00000000
  ---------------------------------------------------
  free energy    TOTEN  =      -804.05338604 eV

  energy without entropy =     -804.04053916  energy(sigma->0) =     -804.04696260


--------------------------------------------------------------------------------------------------------




--------------------------------------- Iteration      1(  19)  ---------------------------------------


    POTLOK:  cpu time    0.2597: real time    0.2603
    SETDIJ:  cpu time    0.0373: real time    0.0374
     EDDAV:  cpu time    6.4959: real time    6.5112
    CHARGE:  cpu time    0.3113: real time    0.3120
    MIXING:  cpu time    0.0090: real time    0.0090
    --------------------------------------------
      LOOP:  cpu time    7.1132: real time    7.1300

 eigenvalue-minimisations  :  2320
 total energy-change (2. order) :-0.4549051E+00  (-0.1584077E+00)
 number of electron     687.9999976 magnetization      18.6692711
 augmentation part      194.4569435 magnetization      13.9856780

 Broyden mixing:
  rms(total) = 0.26797E+01    rms(broyden)= 0.26794E+01
  rms(prec ) = 0.33628E+01
  weight for this iteration     100.00

 eigenvalues of (default mixing * dielectric matrix)
  average eigenvalue GAMMA=   0.4233
  1.9694  0.6436  0.6436  0.5253  0.5253  0.3033  0.3033  0.2113  0.2113  0.1581
  0.1581  0.1045  0.1045  0.0644

 Free energy of the ion-electron system (eV)
  ---------------------------------------------------
  alpha Z        PSCENC =      3287.03551270
  Ewald energy   TEWEN  =    -43846.04490729
  -Hartree energ DENC   =    -13725.86132223
  -exchange      EXHF   =         0.00000000
  -V(xc)+E(xc)   XCENC  =      2656.64787559
  PAW double counting   =     78590.63525932   -79911.55155085
  entropy T*S    EENTRO =        -0.02909811
  eigenvalues    EBANDS =     -5239.05674546
  atomic energy  EATOM  =     57383.71668513
  Solvation  Ediel_sol  =         0.00000000
  ---------------------------------------------------
  free energy    TOTEN  =      -804.50829118 eV

  energy without entropy =     -804.47919307  energy(sigma->0) =     -804.49374213


--------------------------------------------------------------------------------------------------------




--------------------------------------- Iteration      1(  20)  ---------------------------------------


    POTLOK:  cpu time    0.2606: real time    0.2612
    SETDIJ:  cpu time    0.0375: real time    0.0375
     EDDAV:  cpu time    7.2118: real time    7.2288
    CHARGE:  cpu time    0.3111: real time    0.3118
    MIXING:  cpu time    0.0092: real time    0.0093
    --------------------------------------------
      LOOP:  cpu time    7.8301: real time    7.8486

 eigenvalue-minimisations  :  2384
 total energy-change (2. order) : 0.2804512E+00  (-0.2173672E+00)
 number of electron     687.9999976 magnetization      18.6579431
 augmentation part      194.4386721 magnetization      14.0863704

 Broyden mixing:
  rms(total) = 0.26128E+01    rms(broyden)= 0.26124E+01
  rms(prec ) = 0.32190E+01
  weight for this iteration     100.00

 eigenvalues of (default mixing * dielectric matrix)
  average eigenvalue GAMMA=   0.4042
  1.9661  0.6589  0.6589  0.5228  0.5228  0.2996  0.2996  0.2431  0.2431  0.1441
  0.1240  0.1240  0.0954  0.0954  0.0647

 Free energy of the ion-electron system (eV)
  ---------------------------------------------------
  alpha Z        PSCENC =      3287.03551270
  Ewald energy   TEWEN  =    -43846.04490729
  -Hartree energ DENC   =    -13727.33562473
  -exchange      EXHF   =         0.00000000
  -V(xc)+E(xc)   XCENC  =      2656.95055418
  PAW double counting   =     78628.00110424   -79947.07112088
  entropy T*S    EENTRO =        -0.01392014
  eigenvalues    EBANDS =     -5239.46612324
  atomic energy  EATOM  =     57383.71668513
  Solvation  Ediel_sol  =         0.00000000
  ---------------------------------------------------
  free energy    TOTEN  =      -804.22784003 eV

  energy without entropy =     -804.21391989  energy(sigma->0) =     -804.22087996


--------------------------------------------------------------------------------------------------------




--------------------------------------- Iteration      1(  21)  ---------------------------------------


    POTLOK:  cpu time    0.2605: real time    0.2612
    SETDIJ:  cpu time    0.0376: real time    0.0377
     EDDAV:  cpu time    6.8797: real time    6.8959
    CHARGE:  cpu time    0.3163: real time    0.3170
    MIXING:  cpu time    0.0095: real time    0.0095
    --------------------------------------------
      LOOP:  cpu time    7.5036: real time    7.5213

 eigenvalue-minimisations  :  2384
 total energy-change (2. order) : 0.4803760E+00  (-0.2613894E-01)
 number of electron     687.9999976 magnetization      18.5810308
 augmentation part      194.3627746 magnetization      14.0507164

 Broyden mixing:
  rms(total) = 0.26066E+01    rms(broyden)= 0.26064E+01
  rms(prec ) = 0.32392E+01
  weight for this iteration     100.00

 eigenvalues of (default mixing * dielectric matrix)
  average eigenvalue GAMMA=   0.4039
  1.9386  0.7539  0.7539  0.5521  0.5521  0.3301  0.3301  0.2393  0.2393  0.1462
  0.1089  0.1089  0.1204  0.1204  0.1043  0.0645

 Free energy of the ion-electron system (eV)
  ---------------------------------------------------
  alpha Z        PSCENC =      3287.03551270
  Ewald energy   TEWEN  =    -43846.04490729
  -Hartree energ DENC   =    -13728.53968196
  -exchange      EXHF   =         0.00000000
  -V(xc)+E(xc)   XCENC  =      2657.00194548
[...]
     10.29064     14.93424      2.63745        -0.245365     -0.129547      0.232171
     10.37694      5.08995      4.28126         0.079359      0.092100     -0.023155
      2.98117      9.95349      3.43238        -0.008915     -0.025835     -0.040778
      5.91445      0.04340      5.09861        -0.027703     -0.055918      0.013045
      5.92075      5.07859      6.97035        -0.035705      0.171780      0.030384
      7.45302      9.90938      6.04166         0.059874     -0.157628     -0.090920
      8.90274      0.16120      5.13116         0.036310      0.379575      0.005372
     11.80452      5.02358      6.85267        -0.011031      0.022170      0.005274
      4.44691      9.92128      6.04126        -0.031126     -0.011484      0.002127
     13.20001      7.54919      7.59376         0.013013      0.004300      0.026166
      8.81535     12.29839      1.83950        -0.053580     -0.096364     -0.059396
      1.46507      2.55077      0.87861         0.037942      0.033228     -0.007017
      7.32891      7.53603      7.65667         0.007463      0.027822      0.018434
      2.87859     12.39925      1.82998        -0.026134     -0.021445     -0.053575
      4.52805      2.55791      0.84145        -0.010584     -0.030923      0.067079
      6.04559      7.44539      0.04436        -0.022416      0.015528      0.007564
      6.03472     12.38070      1.67857        -0.008969     -0.012328     -0.024359
      7.26244      2.61150      0.79094        -0.041554      0.011305      0.032655
      7.41550      7.52035      2.57588        -0.022516      0.019959      0.007738
      7.50738     12.40339      4.47152        -0.013797      0.092310     -0.006269
      8.92920      2.62910      3.56090         0.005501      0.004003      0.029714
     10.30509      7.52836      2.70399         0.013517     -0.014119     -0.046489
     10.27553     12.40912      4.17514        -0.004853     -0.004630     -0.018446
      2.86889      2.60621      3.48535         0.051667     -0.000613      0.015784
      4.49423      7.50009      2.68629        -0.011371      0.018806      0.029017
      4.37572     12.32842      4.44614        -0.037498     -0.030030      0.036822
      6.01623      2.65281      3.37949        -0.005626     -0.026296     -0.042386
      5.98394      7.50855      5.29944         0.026207      0.026013      0.027231
      5.96267     12.35173      6.78719         0.048391      0.017992     -0.009219
      7.29782      2.59416      5.86873        -0.013528     -0.042087      0.033656
      8.78916      7.49230      5.00853        -0.025159     -0.012546     -0.014545
      8.93244     12.47747      6.77362        -0.013834      0.053021     -0.045376
     10.31371      2.60329      6.00935        -0.000744     -0.035711      0.019887
     11.79647      7.50255      5.15683         0.018931      0.001332     -0.007063
     11.84536     12.38374      6.96060         0.018137      0.020223      0.014451
      4.45597      2.65733      6.08814         0.039231     -0.000336      0.023699
      0.16203     11.27803      0.09786         0.112528      0.143235     -0.084872
      0.03881      3.89212      0.06322        -0.000181      0.068524      0.015929
      8.52067      1.29302      1.54769         0.021440      0.026757     -0.043815
      8.95259      8.70575      1.70163        -0.081994      0.100531      0.022179
      1.46119      6.13738      1.11347        -0.018020      0.042282      0.061177
      1.53930     13.86271      0.80753         0.028015      0.060322      0.015142
      2.95620     11.10342      0.23727         0.012764     -0.002764     -0.010988
      3.14977      3.83640      0.10081        -0.049788      0.071770     -0.007300
      3.04288      1.06614      1.66585        -0.022959     -0.082686      0.036995
      2.96595      8.78871      1.52994        -0.001676     -0.001251     -0.004937
      4.27564      6.16633      0.73827        -0.016192      0.029479     -0.021074
      4.17661     13.66051      1.05683         0.086935      0.000327      0.000236
     10.19403     11.19329      7.63328         0.064834     -0.058223      0.005531
     10.24779      3.91791      7.72584         0.001554     -0.015944      0.010624
      5.87548      1.13277      1.85627        -0.016897     -0.029511      0.069536
      5.77691      8.79132      1.87468        -0.046027     -0.049193      0.068889
      7.46318      6.28739      0.92035        -0.038015     -0.009177      0.010167
      7.50729     13.87443      0.91664        -0.001304      0.078623     -0.070050
      7.34074     11.06148      2.58166         0.028200     -0.123947      0.010641
      7.51887      3.67675      2.52876         0.035125     -0.017860      0.029245
      7.37141      1.25496      4.27721        -0.051890     -0.099567     -0.031530
      7.30184      8.63215      4.28287        -0.156039     -0.103876      0.082850
      8.89536      6.12177      3.39096        -0.020458      0.016799      0.003544
      8.88106     13.54543      3.29777         0.016748     -0.172945     -0.119509
      1.55717     11.08764      2.55106         0.138929      0.021836     -0.156271
      1.48368      3.80173      2.38116         0.017986      0.022442      0.010974
     10.39033      1.37393      4.19705         0.112304      0.110261     -0.024908
     10.33698      8.67888      4.39740        -0.064376      0.119898     -0.026871
      3.14201      6.16396      3.36707         0.010648      0.033432      0.007230
      3.21274     13.67871      3.70454         0.014010      0.005146     -0.033812
      4.63188     11.10583      2.52610        -0.001380     -0.014035     -0.020219
      4.28663      3.82632      2.71930        -0.000407     -0.007169      0.023933
      4.30645      1.07308      4.21929         0.065052     -0.068367      0.032964
      4.47293      8.88646      4.23465        -0.017014     -0.006632      0.044159
      5.84606      6.08735      3.41546         0.007433     -0.042352     -0.008206
      6.03032     13.68466      3.13332         0.096697     -0.053071     -0.026129
      5.90210     11.31079      5.06044        -0.020915      0.020526     -0.019031
      5.81888      3.69465      5.07757         0.004737     -0.097878     -0.073938
      5.93731      1.31888      7.15488         0.001025      0.057621      0.003975
      5.94371      8.88582      6.94719        -0.023575      0.010516     -0.006690
      7.39982      6.17511      6.09667         0.003489      0.039875     -0.015325
      7.34644     13.68248      6.11127        -0.072757      0.012838      0.077840
      8.90285     11.13014      5.22788        -0.015841     -0.090044     -0.102014
      8.81507      3.74675      5.24569        -0.056111      0.076984     -0.001375
      8.82670      1.41334      6.99085        -0.069567      0.030543      0.039958
      9.06369      8.86263      6.98316         0.022103     -0.013862      0.034854
     10.29228      6.30386      6.09526         0.027100     -0.045179     -0.030066
     10.37237     13.70514      6.06159         0.045065     -0.074937     -0.079580
     11.76067     11.26459      5.26329         0.031911     -0.030147      0.017963
      2.98706      3.90797      5.09902         0.015034      0.032608      0.029894
     12.01006      1.34827      6.62073        -0.030562      0.029703     -0.032235
     11.75945      8.91194      6.88941         0.033466     -0.085681      0.004168
      4.45621      6.35521      5.90880         0.072686     -0.053683      0.035521
      4.35280     13.89965      6.14241         0.032572      0.053065     -0.017946
 -----------------------------------------------------------------------------------
    total drift:                               -0.023343     -0.054602      0.017050


--------------------------------------------------------------------------------------------------------



  FREE ENERGIE OF THE ION-ELECTRON SYSTEM (eV)
  ---------------------------------------------------
  free  energy   TOTEN  =      -798.0831023983 eV

  energy  without entropy=     -797.9928291106  energy(sigma->0) =     -798.03796575
 
 d Force = 0.7308964E-02[ 0.691E-02, 0.771E-02]  d Energy = 0.1008090E-01-0.277E-02
 d Force =-0.5246348E+00[-0.530E+00,-0.519E+00]  d Ewald  =-0.4006713E+01 0.348E+01


--------------------------------------------------------------------------------------------------------


    POTLOK:  cpu time    0.3161: real time    0.3169


--------------------------------------------------------------------------------------------------------


 Quasi-Newton relaxation of ions (Broydens 2nd method)
  g(Force)  = 0.561E-01   g(Stress)= 0.571E-02

 retain information from N=  3 steps
 eigenvalues of (default step * inverse Hessian matrix)
  average eigenvalue of G=   2.5081
 eigenvalue spectrum of G is  0.7880  3.3682  3.3682


--------------------------------------------------------------------------------------------------------


     LOOP+:  cpu time  144.0376: real time  144.4661
    4ORBIT:  cpu time    0.0000: real time    0.0000

volume of typ            1:    12.8 %

volume of typ            2:     8.7 %

volume of typ            3:    20.6 %

volume of typ            4:     8.6 %
 
total charge     
 
# of ion       s       p       d       tot
------------------------------------------
    1        0.285   6.177   1.939   8.402
    2        0.284   6.164   1.954   8.402
    3        0.283   6.164   1.956   8.403
    4        0.271   6.144   2.006   8.422
    5        0.282   6.175   1.945   8.403
    6        0.284   6.176   1.934   8.394
    7        0.270   6.140   2.014   8.424
    8        0.286   6.179   1.934   8.399
    9        0.283   6.163   1.965   8.412
   10        0.282   6.162   1.967   8.411
   11        0.282   6.162   1.964   8.408
   12        0.282   6.163   1.960   8.405
   13        0.271   6.146   2.006   8.423
   14        0.183   0.180   8.134   8.497
   15        0.181   0.195   8.048   8.424
   16        0.183   0.197   8.046   8.426
   17        0.185   0.202   7.983   8.369
   18        0.181   0.197   8.114   8.491
   19        0.176   0.173   8.045   8.394
   20        0.180   0.192   8.035   8.406
   21        0.181   0.192   8.009   8.381
   22        0.178   0.174   8.050   8.402
   23        0.178   0.190   8.052   8.421
   24        0.176   0.189   8.074   8.439
   25        0.180   0.183   8.278   8.642
   26        0.185   0.204   7.997   8.386
   27        0.186   0.203   7.971   8.360
   28        2.069   0.238   0.088   2.395
   29        2.091   0.298   0.115   2.503
   30        2.084   0.275   0.108   2.467
   31        2.078   0.264   0.101   2.443
   32        2.081   0.271   0.105   2.458
   33        2.082   0.278   0.108   2.468
   34        2.075   0.254   0.097   2.426
   35        2.078   0.265   0.102   2.446
   36        2.079   0.263   0.100   2.441
   37        2.072   0.249   0.094   2.415
   38        2.075   0.255   0.095   2.425
   39        2.076   0.258   0.098   2.433
   40        2.073   0.249   0.094   2.417
   41        2.071   0.246   0.092   2.409
   42        2.081   0.271   0.105   2.457
   43        2.081   0.270   0.104   2.455
   44        2.089   0.286   0.112   2.487
   45        2.076   0.258   0.097   2.431
   46        2.079   0.264   0.101   2.444
   47        2.079   0.264   0.100   2.443
   48        2.074   0.253   0.097   2.424
   49        2.074   0.251   0.095   2.419
   50        2.080   0.270   0.104   2.454
   51        2.070   0.244   0.090   2.404
   52        2.074   0.252   0.095   2.420
   53        2.073   0.248   0.093   2.414
   54        2.082   0.272   0.104   2.458
   55        1.255   2.829   0.005   4.089
   56        1.244   2.831   0.005   4.081
   57        1.254   2.847   0.006   4.107
   58        1.253   2.822   0.006   4.081
   59        1.251   2.844   0.005   4.100
   60        1.253   2.836   0.006   4.095
   61        1.249   2.849   0.005   4.103
   62        1.249   2.846   0.005   4.100
   63        1.250   2.835   0.005   4.090
   64        1.249   2.844   0.005   4.098
   65        1.249   2.847   0.006   4.101
   66        1.252   2.848   0.005   4.106
   67        1.246   2.848   0.004   4.098
   68        1.245   2.834   0.005   4.084
   69        1.250   2.838   0.005   4.093
   70        1.247   2.850   0.005   4.102
   71        1.252   2.831   0.005   4.088
   72        1.249   2.838   0.005   4.092
   73        1.246   2.835   0.005   4.087
   74        1.256   2.830   0.005   4.091
   75        1.251   2.825   0.007   4.082
   76        1.252   2.840   0.005   4.098
   77        1.245   2.833   0.005   4.083
   78        1.252   2.831   0.006   4.089
   79        1.244   2.847   0.005   4.096
   80        1.246   2.853   0.004   4.103
   81        1.251   2.829   0.006   4.086
   82        1.252   2.829   0.005   4.086
   83        1.247   2.850   0.005   4.102
   84        1.250   2.852   0.005   4.107
   85        1.249   2.846   0.005   4.100
   86        1.247   2.844   0.005   4.096
   87        1.251   2.838   0.006   4.095
   88        1.248   2.827   0.005   4.080
   89        1.247   2.828   0.006   4.080
   90        1.253   2.850   0.005   4.109
   91        1.252   2.835   0.005   4.092
   92        1.253   2.835   0.005   4.093
   93        1.249   2.853   0.005   4.107
   94        1.244   2.832   0.005   4.081
   95        1.246   2.831   0.005   4.082
   96        1.252   2.826   0.005   4.083
   97        1.245   2.832   0.005   4.083
   98        1.252   2.831   0.005   4.088
   99        1.254   2.825   0.007   4.085
  100        1.250   2.848   0.005   4.103
  101        1.253   2.823   0.006   4.082
  102        1.254   2.819   0.007   4.079
  103        1.253   2.826   0.005   4.085
  104        1.247   2.829   0.005   4.081
  105        1.250   2.850   0.005   4.104
  106        1.245   2.833   0.005   4.084
  107        1.252   2.830   0.005   4.087
  108        1.249   2.841   0.005   4.095
--------------------------------------------------
tot         129.76  243.06  141.36  514.18
 
magnetization (x)
 
# of ion       s       p       d       tot
------------------------------------------
    1        0.000   0.000   0.015   0.016
    2       -0.001  -0.001  -0.032  -0.034
    3       -0.001  -0.001  -0.016  -0.018
    4        0.000   0.000   0.017   0.017
    5       -0.001  -0.001  -0.029  -0.031
    6       -0.001  -0.001  -0.020  -0.022
    7        0.000   0.001   0.014   0.015
    8        0.001   0.000   0.017   0.018
    9       -0.001  -0.001  -0.034  -0.037
   10       -0.001  -0.001  -0.018  -0.019
   11       -0.001  -0.001  -0.045  -0.048
   12       -0.001  -0.001  -0.015  -0.016
   13        0.000   0.000   0.009   0.010
   14        0.000  -0.002  -0.691  -0.693
   15        0.005   0.001   1.046   1.052
   16        0.005   0.001   1.056   1.063
   17        0.001   0.002   1.238   1.241
   18       -0.003  -0.002  -1.077  -1.082
   19        0.000  -0.001  -0.778  -0.779
   20        0.007   0.001   1.058   1.066
   21        0.008   0.001   1.098   1.107
   22        0.000  -0.001  -0.858  -0.859
   23        0.005   0.001   1.046   1.052
   24        0.005   0.001   0.991   0.998
   25        0.001   0.001   0.342   0.344
   26        0.002   0.002   1.241   1.244
   27        0.001   0.002   1.275   1.279
   28       -0.000  -0.000  -0.000  -0.000
   29        0.001   0.002   0.001   0.003
   30        0.001   0.003   0.001   0.005
   31        0.001   0.004   0.002   0.007
   32        0.000   0.000   0.000   0.001
   33        0.001   0.002   0.001   0.004
   34        0.000   0.002   0.001   0.003
   35        0.000   0.000  -0.000   0.000
   36        0.001   0.002   0.001   0.003
   37        0.001   0.003   0.001   0.005
   38        0.000   0.002   0.001   0.003
   39       -0.001  -0.001  -0.000  -0.002
   40        0.000   0.003   0.001   0.004
   41        0.001   0.003   0.001   0.004
   42        0.001   0.002   0.001   0.003
   43        0.001   0.005   0.002   0.007
   44        0.000   0.000   0.000   0.000
   45       -0.000  -0.000  -0.000  -0.001
   46        0.000   0.001   0.000   0.001
   47       -0.000  -0.001  -0.000  -0.001
   48       -0.000  -0.000  -0.000  -0.000
   49        0.001   0.003   0.001   0.004
   50       -0.001  -0.001  -0.000  -0.002
   51        0.001   0.002   0.000   0.003
   52       -0.000  -0.000  -0.000  -0.001
   53       -0.000  -0.000  -0.000  -0.001
   54        0.001   0.003   0.001   0.005
   55        0.001   0.037   0.000   0.039
   56        0.006   0.081   0.000   0.088
   57        0.000   0.004   0.000   0.005
   58        0.000   0.002  -0.000   0.003
   59        0.002   0.023  -0.000   0.025
   60       -0.003  -0.021  -0.000  -0.024
   61        0.002   0.018  -0.000   0.020
   62        0.003   0.029  -0.000   0.032
   63       -0.003  -0.018  -0.000  -0.021
   64        0.002   0.024  -0.000   0.026
   65        0.002   0.026  -0.000   0.028
   66        0.000   0.002   0.000   0.003
   67        0.003   0.027   0.000   0.030
   68        0.005   0.075   0.000   0.080
   69       -0.002  -0.017  -0.000  -0.019
   70        0.002   0.025  -0.000   0.026
   71        0.004   0.058   0.000   0.063
   72       -0.002  -0.016  -0.000  -0.019
   73       -0.000  -0.007   0.000  -0.007
   74        0.001   0.035   0.000   0.036
   75       -0.002  -0.013  -0.000  -0.015
   76        0.001   0.008  -0.000   0.009
   77        0.006   0.075   0.000   0.081
   78       -0.003  -0.025  -0.000  -0.028
   79        0.001   0.002   0.000   0.003
   80        0.002   0.023  -0.000   0.025
   81       -0.002  -0.013  -0.000  -0.015
   82        0.000  -0.004  -0.000  -0.004
   83        0.003   0.026  -0.000   0.028
   84        0.001   0.001   0.000   0.002
   85        0.003   0.024   0.000   0.027
   86        0.003   0.029  -0.000   0.032
   87       -0.003  -0.022  -0.000  -0.025
   88        0.005   0.075   0.000   0.081
   89        0.007   0.085   0.000   0.091
   90        0.000   0.003   0.000   0.004
   91        0.003   0.042   0.000   0.044
   92        0.002   0.046   0.000   0.048
   93        0.000   0.003   0.000   0.003
   94        0.007   0.078   0.000   0.085
   95        0.005   0.074   0.000   0.079
   96       -0.002  -0.015  -0.000  -0.017
   97       -0.000  -0.011   0.000  -0.012
   98        0.004   0.052   0.000   0.056
   99       -0.002  -0.022  -0.000  -0.024
  100        0.002   0.022  -0.000   0.024
  101        0.005   0.060   0.000   0.065
  102       -0.001  -0.012  -0.000  -0.013
  103        0.004   0.061   0.000   0.065
  104        0.005   0.071   0.000   0.076
  105        0.000   0.002   0.000   0.002
  106        0.007   0.082   0.000   0.089
  107        0.004   0.050   0.000   0.054
  108       -0.003  -0.022  -0.000  -0.026
--------------------------------------------------
tot           0.13    1.26    6.86    8.25
 

 total amount of memory used by VASP MPI-rank0   175431. kBytes
=======================================================================

   base      :      30000. kBytes
   nonlr-proj:      48696. kBytes
   fftplans  :      11817. kBytes
   grid      :      71572. kBytes
   one-center:       1679. kBytes
   wavefun   :      11667. kBytes
 
  
  
 General timing and accounting informations for this job:
 ========================================================
  
                  Total CPU time used (sec):     6462.955
                            User time (sec):     6435.033
                          System time (sec):       27.921
                         Elapsed time (sec):     6488.963
  
                   Maximum memory used (kb):      252692.
                   Average memory used (kb):           0.
  
                          Minor page faults:        41701
                          Major page faults:           43
                 Voluntary context switches:         1415
