 vasp.5.4.4.18Apr17-6-g9f103f2a35 (build May 12 2020 05:39:39) gamma-only       
  
 MD_VERSION_INFO: Compiled 2020-05-12T12:39:39-UTC in devlin.sd.materialsdesign.
 com:/home/medea2/data/build/wwolf/vasp-gpu5.4.4/13047/x86_64/src/src/build/gam 
 from svn 13047
 
 This VASP executable licensed from Materials Design, Inc.
 
 executed on                        Lin64 date 2023.04.04  22:15:48
 running on   16 total cores
 distrk:  each k-point on   16 cores,    1 groups
 distr:  one band on NCORES_PER_BAND=   1 cores,   16 groups


--------------------------------------------------------------------------------------------------------


 INCAR:
 POTCAR:    PAW_PBE Ta_pv 07Sep2000               
 POTCAR:    PAW_PBE Ni 02Aug2007                  
 POTCAR:    PAW_PBE Li_sv 10Sep2004               
 POTCAR:    PAW_PBE O 08Apr2002                   

 ----------------------------------------------------------------------------- 
|                                                                             |
|           W    W    AA    RRRRR   N    N  II  N    N   GGGG   !!!           |
|           W    W   A  A   R    R  NN   N  II  NN   N  G    G  !!!           |
|           W    W  A    A  R    R  N N  N  II  N N  N  G       !!!           |
|           W WW W  AAAAAA  RRRRR   N  N N  II  N  N N  G  GGG   !            |
|           WW  WW  A    A  R   R   N   NN  II  N   NN  G    G                |
|           W    W  A    A  R    R  N    N  II  N    N   GGGG   !!!           |
|                                                                             |
|      For optimal performance we recommend to set                            |
|        NCORE= 4 - approx SQRT( number of cores)                             |
|      NCORE specifies how many cores store one orbital (NPAR=cpu/NCORE).     |
|      This setting can  greatly improve the performance of VASP for DFT.     |
|      The default,   NCORE=1            might be grossly inefficient         |
|      on modern multi-core architectures or massively parallel machines.     |
|      Do your own testing !!!!                                               |
|      Unfortunately you need to use the default for GW and RPA calculations. |
|      (for HF NCORE is supported but not extensively tested yet)             |
|                                                                             |
 ----------------------------------------------------------------------------- 

 POTCAR:    PAW_PBE Ta_pv 07Sep2000               
  local pseudopotential read in
  partial core-charges read in
  partial kinetic energy density read in
  atomic valenz-charges read in
  non local Contribution for L=           1  read in
    real space projection operators read in
  non local Contribution for L=           1  read in
    real space projection operators read in
  non local Contribution for L=           2  read in
    real space projection operators read in
  non local Contribution for L=           2  read in
    real space projection operators read in
  non local Contribution for L=           0  read in
    real space projection operators read in
  non local Contribution for L=           0  read in
    real space projection operators read in
    PAW grid and wavefunctions read in
 
   number of l-projection  operators is LMAX  =           6
   number of lm-projection operators is LMMAX =          18
 
 POTCAR:    PAW_PBE Ni 02Aug2007                  
  local pseudopotential read in
  partial core-charges read in
  partial kinetic energy density read in
  atomic valenz-charges read in
  non local Contribution for L=           2  read in
    real space projection operators read in
  non local Contribution for L=           2  read in
    real space projection operators read in
  non local Contribution for L=           0  read in
    real space projection operators read in
  non local Contribution for L=           0  read in
    real space projection operators read in
  non local Contribution for L=           1  read in
    real space projection operators read in
  non local Contribution for L=           1  read in
    real space projection operators read in
    PAW grid and wavefunctions read in
 
   number of l-projection  operators is LMAX  =           6
   number of lm-projection operators is LMMAX =          18
 
 POTCAR:    PAW_PBE Li_sv 10Sep2004               
  local pseudopotential read in
  atomic valenz-charges read in
  non local Contribution for L=           0  read in
    real space projection operators read in
  non local Contribution for L=           0  read in
    real space projection operators read in
  non local Contribution for L=           1  read in
    real space projection operators read in
    PAW grid and wavefunctions read in
 
   number of l-projection  operators is LMAX  =           3
   number of lm-projection operators is LMMAX =           5
 
 POTCAR:    PAW_PBE O 08Apr2002                   
  local pseudopotential read in
  partial core-charges read in
  partial kinetic energy density read in
  kinetic energy density of atom read in
  atomic valenz-charges read in
  non local Contribution for L=           0  read in
    real space projection operators read in
  non local Contribution for L=           0  read in
    real space projection operators read in
  non local Contribution for L=           1  read in
    real space projection operators read in
  non local Contribution for L=           1  read in
    real space projection operators read in
    PAW grid and wavefunctions read in
 
   number of l-projection  operators is LMAX  =           4
   number of lm-projection operators is LMMAX =           8
 
 Optimization of the real space projectors (new method)

 maximal supplied QI-value         = 15.12
 optimisation between [QCUT,QGAM] = [ 11.34, 22.83] = [ 36.00,145.93] Ry 
 Optimized for a Real-space Cutoff    1.61 Angstroem

   l    n(q)    QCUT    max X(q) W(low)/X(q) W(high)/X(q)  e(spline) 
   1     11    11.338     4.092    0.40E-05    0.64E-05    0.47E-07
   1     11    11.338     4.834    0.13E-04    0.44E-04    0.21E-06
   2     10    11.338    62.294    0.15E-03    0.31E-03    0.77E-06
   2     10    11.338    50.966    0.15E-03    0.31E-03    0.77E-06
   0     11    11.338   103.792    0.33E-04    0.19E-04    0.90E-07
   0     11    11.338    56.335    0.26E-04    0.17E-04    0.79E-07
 Optimization of the real space projectors (new method)

 maximal supplied QI-value         = 16.25
 optimisation between [QCUT,QGAM] = [ 11.38, 22.75] = [ 36.24,144.96] Ry 
 Optimized for a Real-space Cutoff    1.47 Angstroem

   l    n(q)    QCUT    max X(q) W(low)/X(q) W(high)/X(q)  e(spline) 
   2      9    11.376    60.317    0.17E-03    0.16E-04    0.16E-06
   2      9    11.376    55.921    0.17E-03    0.16E-04    0.17E-06
   0     10    11.376    51.690    0.45E-04    0.60E-04    0.21E-06
   0     10    11.376    30.015    0.37E-04    0.55E-04    0.19E-06
   1     10    11.376    18.849    0.83E-04    0.11E-03    0.92E-07
   1     10    11.376    14.624    0.69E-04    0.92E-04    0.82E-07
 Optimization of the real space projectors (new method)

 maximal supplied QI-value         = 22.11
 optimisation between [QCUT,QGAM] = [ 11.28, 22.77] = [ 35.61,145.23] Ry 
 Optimized for a Real-space Cutoff    1.10 Angstroem

   l    n(q)    QCUT    max X(q) W(low)/X(q) W(high)/X(q)  e(spline) 
   0      7    11.276    10.506    0.54E-04    0.58E-04    0.16E-07
   0      7    11.276     8.367    0.11E-03    0.14E-03    0.35E-07
   1      7    11.276     8.983    0.23E-03    0.43E-03    0.86E-07
 Optimization of the real space projectors (new method)

 maximal supplied QI-value         = 24.76
 optimisation between [QCUT,QGAM] = [ 11.39, 22.77] = [ 36.31,145.25] Ry 
 Optimized for a Real-space Cutoff    1.10 Angstroem

   l    n(q)    QCUT    max X(q) W(low)/X(q) W(high)/X(q)  e(spline) 
   0      7    11.387    20.381    0.22E-03    0.48E-03    0.18E-06
   0      7    11.387    15.268    0.22E-03    0.52E-03    0.19E-06
   1      7    11.387     5.964    0.22E-03    0.73E-03    0.24E-06
   1      7    11.387     5.382    0.19E-03    0.60E-03    0.21E-06

 ----------------------------------------------------------------------------- 
|                                                                             |
|  ADVICE TO THIS USER RUNNING 'VASP/VAMP'   (HEAR YOUR MASTER'S VOICE ...):  |
|                                                                             |
|      You enforced a specific xc-type in the INCAR file,                     |
|      a different type was found on the POTCAR file                          |
|          I HOPE YOU KNOW, WHAT YOU ARE  DOING                               |
|                                                                             |
 ----------------------------------------------------------------------------- 

  PAW_PBE Ta_pv 07Sep2000               :
 energy of atom  1       EATOM=-1047.1984
 kinetic energy error for atom=    0.0019 (will be added to EATOM!!)
  PAW_PBE Ni 02Aug2007                  :
 energy of atom  2       EATOM=-1077.6739
 kinetic energy error for atom=    0.0030 (will be added to EATOM!!)
  PAW_PBE Li_sv 10Sep2004               :
 energy of atom  3       EATOM= -202.7858
 kinetic energy error for atom=    0.0143 (will be added to EATOM!!)
  PAW_PBE O 08Apr2002                   :
 energy of atom  4       EATOM= -432.3788
 kinetic energy error for atom=    0.0224 (will be added to EATOM!!)
 
 
 POSCAR: ce871_1                                 
  positions in direct lattice
  No initial velocities read in
 exchange correlation table for  LEXCH =       14
   RHO(1)=    0.500       N(1)  =     2000
   RHO(2)=  100.500       N(2)  =     4000
 


--------------------------------------------------------------------------------------------------------


 ion  position               nearest neighbor table
   1  0.002  0.002  0.995-  93 2.14 105 2.15  57 2.15  60 2.16  72 2.17 108 2.19  18 2.81  22 2.82
                             4 2.83   7 2.83  10 2.92  13 2.92  30 3.06  54 3.10
   2  0.881  0.332  0.238-  71 2.10  56 2.13  74 2.13  80 2.15  77 2.18  59 2.18  11 2.72  14 2.75
                             8 2.84   5 2.85  39 2.97  36 3.03  19 3.04  40 3.04  26 3.05  37 3.05
   3  0.106  0.664  0.122-  94 2.05  61 2.10  55 2.11  64 2.14  58 2.14  79 2.23  15 2.75  12 2.75
                             6 2.84   9 2.84  24 2.98  27 2.99  40 3.00  47 3.03  29 3.04  31 3.06
   4  0.338  1.000  0.988-  66 2.09  63 2.11  99 2.13  60 2.14  93 2.17  96 2.17  18 2.75  20 2.82
                             1 2.83   7 2.86  23 3.01  13 3.04  50 3.08  32 3.09  30 3.10
   5  0.215  0.332  0.238-  65 2.10  86 2.13  80 2.13  62 2.14  83 2.18  59 2.18  16 2.73  14 2.75
                             8 2.84   2 2.85  19 3.03  25 3.04  42 3.04  40 3.05  43 3.06  30 3.07
   6  0.438  0.664  0.125-  61 2.11  64 2.11  70 2.13 100 2.15  67 2.18  85 2.19  15 2.73  17 2.75
                             9 2.84   3 2.84  43 2.99  21 3.02  31 3.03  24 3.04
   7  0.674  0.000  0.988-  66 2.10  69 2.11  99 2.12  72 2.14 105 2.16 102 2.17  22 2.75  20 2.81
                             1 2.83   4 2.86  23 3.01  10 3.04  33 3.09  35 3.09
   8  0.549  0.331  0.235-  68 2.05  65 2.10  71 2.10  74 2.14  86 2.16  89 2.24  16 2.75  11 2.75
                             5 2.84   2 2.84  26 2.99  34 3.00  25 3.00  36 3.01  33 3.04  37 3.05
   9  0.771  0.664  0.126-  58 2.11  55 2.12  70 2.12 106 2.15  67 2.17  73 2.18  12 2.72  17 2.75
                             6 2.84   3 2.84  37 2.99  21 3.02  28 3.03  27 3.03  29 3.04
  10  0.676  0.000  0.333-  90 2.10  69 2.10  72 2.10  75 2.10  57 2.14  78 2.14  13 2.67   1 2.92
                            20 2.92  23 2.93  45 3.03  35 3.03   7 3.04  18 3.04  29 3.06  39 3.06
  11  0.563  0.336  0.541-  77 2.11  98 2.12  89 2.12  95 2.15  92 2.17  74 2.18   2 2.72   8 2.75
                            16 2.84  14 2.84  37 2.99  19 3.02  49 3.03  25 3.03  39 3.04
  12  0.785  0.668  0.429-  76 2.10  97 2.13  73 2.13  79 2.15  58 2.18  82 2.18   9 2.72   3 2.75
                            17 2.84  15 2.85  29 2.97  38 3.03  21 3.04  40 3.04  24 3.05  37 3.05
  13  0.990  0.000  0.333-  60 2.09  81 2.09  63 2.10  84 2.10  78 2.15  57 2.15  10 2.67   1 2.92
                            20 2.92  23 2.92   4 3.04  22 3.04  39 3.05  29 3.05  32 3.05  42 3.05
  14  0.895  0.336  0.545- 101 2.05 104 2.10  98 2.11  83 2.14  77 2.14  80 2.23   5 2.75   2 2.75
                            16 2.84  11 2.84  26 2.98  25 2.99  40 3.00  51 3.03  39 3.04  52 3.06
  15  0.119  0.668  0.429-  88 2.10  85 2.13  79 2.13 103 2.14  64 2.18  82 2.18   6 2.73   3 2.75
                            17 2.84  12 2.85  21 3.03  27 3.04  32 3.04  40 3.05  43 3.06  41 3.07
  16  0.230  0.336  0.541- 104 2.11  83 2.11  89 2.13 107 2.15  92 2.18  86 2.19   5 2.73   8 2.75
                            11 2.84  14 2.84  43 2.99  19 3.02  52 3.03  26 3.04
  17  0.451  0.669  0.432-  91 2.05  88 2.10  76 2.10  73 2.14  85 2.16  70 2.24   6 2.75   9 2.75
                            15 2.84  12 2.84  24 2.99  46 3.00  27 3.00  38 3.01  44 3.04  37 3.05
  18  0.328  1.000  0.679-  87 2.10  90 2.11 108 2.12  75 2.14  96 2.16  93 2.17   4 2.75   1 2.81
                            20 2.83  22 2.86  23 3.01  10 3.04  44 3.09  45 3.09
  19  0.223  0.336  0.889-  95 2.03 107 2.03  56 2.04  62 2.04  59 2.04  92 2.06  25 2.86  26 2.89
                            11 3.02  16 3.02   5 3.03  48 3.03   2 3.04  54 3.06  31 3.07  28 3.07
  20  0.664  0.998  0.672- 102 2.14  96 2.15  78 2.15  81 2.16  75 2.17  99 2.19   7 2.81   4 2.82
                            22 2.83  18 2.83  10 2.92  13 2.92  41 3.06  50 3.10
  21  0.779  0.664  0.778- 106 2.03 100 2.03  97 2.04 103 2.04  82 2.04  67 2.06  27 2.86  24 2.89
                             9 3.02   6 3.02  15 3.03  53 3.03  12 3.04  50 3.06  52 3.07  49 3.07
  22  0.992  0.000  0.679-  87 2.09  84 2.11 108 2.13  81 2.14 102 2.17 105 2.17   7 2.75   1 2.82
                            20 2.83  18 2.86  23 3.01  13 3.04  54 3.08  42 3.09  41 3.10
  23  0.333  0.000  0.333-  69 2.06  90 2.06  84 2.06  63 2.06  66 2.16  87 2.16  13 2.92  10 2.93
                             4 3.01  22 3.01   7 3.01  18 3.01
  24  0.440  0.665  0.778-  94 2.04  76 2.07  91 2.07  97 2.08  61 2.09 100 2.11  27 2.78  47 2.81
                            21 2.89   3 2.98  17 2.99   6 3.04  12 3.05
  25  0.559  0.334  0.889- 101 2.05  68 2.06  65 2.06  98 2.09  62 2.10  95 2.10  26 2.78  51 2.83
                            19 2.86  14 2.99   8 3.00  11 3.03   5 3.04
  26  0.885  0.335  0.888- 101 2.04  71 2.07  68 2.07  56 2.08 104 2.09 107 2.11  25 2.78  51 2.81
                            19 2.89  14 2.98   8 2.99  16 3.04   2 3.05
  27  0.114  0.666  0.778-  94 2.05  91 2.06  88 2.06  55 2.09 103 2.10 106 2.10  24 2.78  47 2.83
                            21 2.86   3 2.99  17 3.00   9 3.03  15 3.04
  28  0.997  0.502  0.996-  58 2.03 106 2.08  94 2.13  59 2.15  71 2.16 107 2.19   9 3.03   3 3.06
                            19 3.07
  29  0.890  0.831  0.223-  79 1.98  73 1.99  60 2.10  72 2.13  78 2.16  55 2.17  12 2.97   3 3.04
                             9 3.04  13 3.05  10 3.06
  30  0.110  0.167  0.113-  80 2.00  57 2.00  93 2.06  62 2.12  63 2.14  56 2.16   1 3.06   5 3.07
                             2 3.08  13 3.08   4 3.10
  31  0.341  0.502  0.996-  64 2.03 100 2.08  94 2.13  59 2.14  65 2.16  95 2.19   6 3.03   3 3.06
                            19 3.07
  32  0.225  0.838  0.227-  85 1.99  79 2.06  60 2.07  66 2.09  84 2.17  61 2.27  15 3.04  13 3.05
                             4 3.09
  33  0.447  0.167  0.113-  86 2.02  99 2.09  68 2.11  69 2.14  63 2.18  62 2.19   8 3.04   5 3.08
                             7 3.09
  34  0.666  0.487  0.001-  71 2.03  65 2.03  70 2.11 101 2.15 100 2.24 106 2.24   8 3.00
  35  0.543  0.840  0.231-  85 2.00  66 2.07  72 2.07  73 2.10  90 2.13  10 3.03  17 3.06   7 3.09

  36  0.781  0.172  0.104-  74 2.04 105 2.04  68 2.05  57 2.07  56 2.12  69 2.22   8 3.01   2 3.03

  37  0.664  0.500  0.333-  89 2.00  70 2.00  58 2.02  77 2.02  71 2.20  76 2.20   9 2.99  11 2.99
                             8 3.05  17 3.05   2 3.05  12 3.05
  38  0.552  0.828  0.563-  73 2.04  96 2.04  91 2.05  78 2.07  97 2.12  90 2.22  17 3.01  12 3.03

  39  0.780  0.169  0.444-  80 1.98  74 1.99  81 2.10  75 2.13  57 2.16  98 2.17   2 2.97  14 3.04
                            11 3.04  13 3.05  10 3.06
  40  0.000  0.500  0.333-  77 2.02  58 2.02  64 2.03  83 2.03  59 2.21  82 2.21   3 3.00  14 3.00
                            12 3.04   2 3.04   5 3.05  15 3.05
  41  0.890  0.833  0.553-  79 2.00  78 2.00 102 2.06 103 2.12  84 2.14  97 2.16  20 3.06  15 3.07
                            12 3.08  13 3.08  22 3.10
  42  0.118  0.162  0.440-  86 1.99  80 2.06  81 2.07  87 2.09  63 2.17 104 2.27   5 3.04  13 3.05
                            22 3.09
  43  0.336  0.500  0.333-  70 2.00  89 2.00  83 2.02  64 2.02  65 2.21  88 2.21   6 2.99  16 2.99
                            17 3.05   8 3.05  15 3.06   5 3.06
  44  0.226  0.833  0.554-  85 2.02 108 2.09  91 2.11  90 2.14  84 2.18 103 2.19  17 3.04  15 3.08
                            18 3.09
  45  0.441  0.160  0.436-  86 2.00  87 2.07  75 2.07  74 2.10  69 2.13  10 3.03   8 3.06  18 3.09

  46  0.333  0.513  0.666-  76 2.03  88 2.03  89 2.11  94 2.15 107 2.24  95 2.24  17 3.00
  47  0.231  0.817  0.875-  61 2.04  91 2.05  55 2.06  96 2.11 108 2.18  24 2.81  27 2.83   3 3.03

  48  0.451  0.173  0.781-  99 2.05  98 2.05  92 2.09  93 2.12  62 2.15  75 2.26  19 3.03
  49  0.659  0.498  0.671-  77 2.03  95 2.08 101 2.13  82 2.15  76 2.16 100 2.19  11 3.03  14 3.06
                            21 3.07
  50  0.548  0.828  0.888-  96 2.00  61 2.06 102 2.08  67 2.10  66 2.17  97 2.19  21 3.06   4 3.08
                            20 3.10
  51  0.773  0.183  0.792- 104 2.04  68 2.05  98 2.06 105 2.11  99 2.18  26 2.81  25 2.83  14 3.03

  52  0.004  0.498  0.670-  83 2.03 107 2.08 101 2.13  82 2.14  88 2.16 106 2.19  16 3.03  14 3.06
                            21 3.07
  53  0.898  0.827  0.886- 108 2.05  55 2.05  67 2.09 102 2.12 103 2.15  72 2.26  21 3.03
  54  0.103  0.172  0.778- 105 2.00 104 2.06  93 2.08  92 2.10  87 2.17  56 2.19  19 3.06  22 3.08
                             1 3.10
  55  0.000  0.745  1.000-  53 2.05  47 2.06  27 2.09   3 2.11   9 2.12  29 2.17
  56  0.001  0.259  0.004-  19 2.04  26 2.08  36 2.12   2 2.13  30 2.16  54 2.19
  57  0.893  0.090  0.211-  30 2.00  36 2.07  10 2.14  13 2.15   1 2.15  39 2.16
  58  0.889  0.573  0.219-  37 2.02  40 2.02  28 2.03   9 2.11   3 2.14  12 2.18
  59  0.116  0.415  0.102-  19 2.04  31 2.14  28 2.15   2 2.18   5 2.18  40 2.21
  60  0.109  0.917  0.119-  32 2.07  13 2.09  29 2.10   4 2.14   1 2.16
  61  0.334  0.744  0.999-  47 2.04  50 2.06  24 2.09   3 2.10   6 2.11  32 2.27
  62  0.326  0.256  0.005-  19 2.04  25 2.10  30 2.12   5 2.14  48 2.15  33 2.19
  63  0.223  0.076  0.216-  23 2.06  13 2.10   4 2.11  30 2.14  42 2.17  33 2.18
  64  0.226  0.573  0.219-  43 2.02  40 2.03  31 2.03   6 2.11   3 2.14  15 2.18
  65  0.445  0.410  0.109-  34 2.03  25 2.06   8 2.10   5 2.10  31 2.16  43 2.21
  66  0.448  0.919  0.104-  35 2.07  32 2.09   4 2.09   7 2.10  23 2.16  50 2.17
  67  0.673  0.747  0.989-  21 2.06  53 2.09  50 2.10   9 2.17   6 2.18
  68  0.659  0.257  0.013-   8 2.05  51 2.05  36 2.05  25 2.06  26 2.07  33 2.11
  69  0.560  0.076  0.216-  23 2.06  10 2.10   7 2.11  45 2.13  33 2.14  36 2.22
  70  0.559  0.572  0.215-  37 2.00  43 2.00  34 2.11   9 2.12   6 2.13  17 2.24
  71  0.778  0.410  0.110-  34 2.03  26 2.07   8 2.10   2 2.10  28 2.16  37 2.20
  72  0.772  0.917  0.118-  35 2.07  10 2.10  29 2.13   7 2.14   1 2.17  53 2.26
  73  0.667  0.760  0.334-  29 1.99  38 2.04  35 2.10  12 2.13  17 2.14   9 2.18
  74  0.668  0.240  0.332-  39 1.99  36 2.04  45 2.10   2 2.13   8 2.14  11 2.18
  75  0.557  0.083  0.549-  45 2.07  10 2.10  39 2.13  18 2.14  20 2.17  48 2.26
  76  0.555  0.590  0.557-  46 2.03  24 2.07  17 2.10  12 2.10  49 2.16  37 2.20
  77  0.774  0.427  0.448-  37 2.02  40 2.02  49 2.03  11 2.11  14 2.14   2 2.18
  78  0.771  0.910  0.455-  41 2.00  38 2.07  10 2.14  13 2.15  20 2.15  29 2.16
  79  0.999  0.761  0.337-  29 1.98  41 2.00  32 2.06  15 2.13  12 2.15   3 2.23
  80  0.003  0.239  0.330-  39 1.98  30 2.00  42 2.06   5 2.13   2 2.15  14 2.23
  81  0.894  0.083  0.548-  42 2.07  13 2.09  39 2.10  22 2.14  20 2.16
  82  0.885  0.585  0.565-  21 2.04  52 2.14  49 2.15  12 2.18  15 2.18  40 2.21
  83  0.112  0.427  0.448-  43 2.02  40 2.03  52 2.03  16 2.11  14 2.14   5 2.18
  84  0.106  0.924  0.451-  23 2.06  13 2.10  22 2.11  41 2.14  32 2.17  44 2.18
  85  0.331  0.761  0.334-  32 1.99  35 2.00  44 2.02  15 2.13  17 2.16   6 2.19
  86  0.332  0.239  0.333-  42 1.99  45 2.00  33 2.02   5 2.13   8 2.16  16 2.19
  87  0.218  0.081  0.563-  45 2.07  42 2.09  22 2.09  18 2.10  23 2.16  54 2.17
  88  0.221  0.590  0.557-  46 2.03  27 2.06  17 2.10  15 2.10  52 2.16  43 2.21
  89  0.441  0.428  0.451-  37 2.00  43 2.00  46 2.11  11 2.12  16 2.13   8 2.24
  90  0.443  0.924  0.450-  23 2.06  10 2.10  18 2.11  35 2.13  44 2.14  38 2.22
  91  0.339  0.743  0.653-  17 2.05  47 2.05  38 2.05  27 2.06  24 2.07  44 2.11
  92  0.328  0.253  0.677-  19 2.06  48 2.09  54 2.10  11 2.17  16 2.18
  93  0.219  0.093  0.890-  30 2.06  54 2.08  48 2.12   1 2.14   4 2.17  18 2.17
  94  0.217  0.590  0.900-  24 2.04   3 2.05  27 2.05  28 2.13  31 2.13  46 2.15
  95  0.443  0.413  0.774-  19 2.03  49 2.08  25 2.10  11 2.15  31 2.19  46 2.24
  96  0.446  0.906  0.776-  50 2.00  38 2.04  47 2.11  20 2.15  18 2.16   4 2.17
  97  0.672  0.741  0.663-  21 2.04  24 2.08  38 2.12  12 2.13  41 2.16  50 2.19
  98  0.667  0.255  0.667-  48 2.05  51 2.06  25 2.09  14 2.11  11 2.12  39 2.17
  99  0.555  0.089  0.890-  48 2.05  33 2.09   7 2.12   4 2.13  51 2.18  20 2.19
 100  0.558  0.587  0.892-  21 2.03  31 2.08  24 2.11   6 2.15  49 2.19  34 2.24
 101  0.783  0.410  0.766-  26 2.04  14 2.05  25 2.05  49 2.13  52 2.13  34 2.15
 102  0.776  0.907  0.776-  41 2.06  50 2.08  53 2.12  20 2.14  22 2.17   7 2.17
 103  0.998  0.744  0.662-  21 2.04  27 2.10  41 2.12  15 2.14  53 2.15  44 2.19
 104  1.000  0.256  0.667-  51 2.04  54 2.06  26 2.09  14 2.10  16 2.11  42 2.27
 105  0.889  0.094  0.890-  54 2.00  36 2.04  51 2.11   1 2.15   7 2.16  22 2.17
 106  0.884  0.587  0.893-  21 2.03  28 2.08  27 2.10   9 2.15  52 2.19  34 2.24
 107  0.117  0.413  0.774-  19 2.03  52 2.08  26 2.11  16 2.15  28 2.19  46 2.24
 108  0.111  0.911  0.777-  53 2.05  44 2.09  18 2.12  22 2.13  47 2.18   1 2.19
 
  LATTYP: Found a base centered monoclinic cell.
 ALAT       =    15.3384697288
 B/A-ratio  =     0.5559105306
 C/A-ratio  =     1.4202779385
 COS(beta)  =    -0.6165854405
  
  Lattice vectors:
  
 A1 = (   4.2634084729,   0.0061423253,   7.6692324047)
 A2 = (  -4.2634083732,   0.0061423253,   7.6692324047)
 A3 = (  -0.0000000998, -15.4524530796, -15.3558826963)


Analysis of symmetry for initial positions (statically):
=====================================================================
 Subroutine PRICEL returns:
 Original cell was already a primitive cell.
 

 Routine SETGRP: Setting up the symmetry group for a 
 base centered monoclinic supercell.


 Subroutine GETGRP returns: Found  2 space group operations
 (whereof  1 operations were pure point group operations)
 out of a pool of  4 trial point group operations.


The static configuration has the point symmetry C_1 .
 The point group associated with its full space group is C_2 .


Analysis of symmetry for dynamics (positions and initial velocities):
=====================================================================
 Subroutine PRICEL returns:
 Original cell was already a primitive cell.
 

 Routine SETGRP: Setting up the symmetry group for a 
 base centered monoclinic supercell.


 Subroutine GETGRP returns: Found  2 space group operations
 (whereof  1 operations were pure point group operations)
 out of a pool of  4 trial point group operations.


The dynamic configuration has the point symmetry C_1 .
 The point group associated with its full space group is C_2 .


Analysis of structural, dynamic, and magnetic symmetry:
=====================================================================
 Subroutine PRICEL returns:
 Original cell was already a primitive cell.
 

 Routine SETGRP: Setting up the symmetry group for a 
 base centered monoclinic supercell.


 Subroutine GETGRP returns: Found  2 space group operations
 (whereof  1 operations were pure point group operations)
 out of a pool of  4 trial point group operations.


The magnetic configuration has the point symmetry C_1 .
 The point group associated with its full space group is C_2 .


 Subroutine INISYM returns: Found  2 space group operations
 (whereof  1 operations are pure point group operations),
 and found     1 'primitive' translations

 
 
 KPOINTS: Automatic mesh                          

Automatic generation of k-mesh.
Space group operators:
 irot       det(A)        alpha          n_x          n_y          n_z        tau_x        tau_y        tau_z
    1     1.000000     0.000000     1.000000     0.000000     0.000000     0.000000     0.000000     0.000000
    2     1.000000   179.999999     1.000000     0.000000    -0.000000    -0.333333     0.000000     0.666667
 
 Subroutine IBZKPT returns following result:
 ===========================================
 
 Found      1 irreducible k-points:
 
 Following reciprocal coordinates:
            Coordinates               Weight
  0.000000  0.000000  0.000000      1.000000
 
 Following cartesian coordinates:
            Coordinates               Weight
  0.000000  0.000000  0.000000      1.000000
 


--------------------------------------------------------------------------------------------------------




 Dimension of arrays:
   k-points           NKPTS =      1   k-points in BZ     NKDIM =      1   number of bands    NBANDS=    432
   number of dos      NEDOS =    301   number of ions     NIONS =    108
   non local maximal  LDIM  =      6   non local SUM 2l+1 LMDIM =     18
   total plane-waves  NPLWV = 491520
   max r-space proj   IRMAX =   8577   max aug-charges    IRDMAX=  27545
   dimension x,y,z NGX =    64 NGY =  120 NGZ =   64
   dimension x,y,z NGXF=   128 NGYF=  240 NGZF=  128
   support grid    NGXF=   128 NGYF=  240 NGZF=  128
   ions per type =              22   5  27  54
   NGX,Y,Z   is equivalent  to a cutoff of  12.48, 12.92, 12.13 a.u.
   NGXF,Y,Z  is equivalent  to a cutoff of  24.96, 25.84, 24.25 a.u.

 SYSTEM =  unknown system                          
 POSCAR =  ce871_1                                 

 Startparameter for this run:
   NWRITE =      1    write-flag & timer
   PREC   = accura    normal or accurate (medium, high low for compatibility)
   ISTART =      0    job   : 0-new  1-cont  2-samecut
   ICHARG =      2    charge: 1-file 2-atom 10-const
   ISPIN  =      2    spin polarized calculation?
   LNONCOLLINEAR =      F non collinear calculations
   LSORBIT =      F    spin-orbit coupling
   INIWAV =      1    electr: 0-lowe 1-rand  2-diag
   LASPH  =      F    aspherical Exc in radial PAW
   METAGGA=      F    non-selfconsistent MetaGGA calc.

 Electronic Relaxation 1
   ENCUT  =  500.0 eV  36.75 Ry    6.06 a.u.  15.55 28.15 16.00*2*pi/ulx,y,z
   ENINI  =  500.0     initial cutoff
   ENAUG  =  628.9 eV  augmentation charge cutoff
   NELM   =     80;   NELMIN=  2; NELMDL= -5     # of ELM steps 
   EDIFF  = 0.1E-04   stopping-criterion for ELM
   LREAL  =      T    real-space projection
   NLSPLINE    = F    spline interpolate recip. space projectors
   LCOMPAT=      F    compatible to vasp.4.4
   GGA_COMPAT  = T    GGA compatible to vasp.4.4-vasp.4.6
   LMAXPAW     = -100 max onsite density
   LMAXMIX     =    2 max onsite mixed and CHGCAR
   VOSKOWN=      1    Vosko Wilk Nusair interpolation
   ROPT   =   -0.00025  -0.00025  -0.00025  -0.00025
 Ionic relaxation
   EDIFFG = -.2E-01   stopping-criterion for IOM
   NSW    =     20    number of steps for IOM
   NBLOCK =      1;   KBLOCK =     20    inner block; outer block 
   IBRION =      1    ionic relax: 0-MD 1-quasi-New 2-CG
   NFREE  =      0    steps in history (QN), initial steepest desc. (CG)
   ISIF   =      3    stress and relaxation
   IWAVPR =     11    prediction:  0-non 1-charg 2-wave 3-comb
   ISYM   =      2    0-nonsym 1-usesym 2-fastsym
   LCORR  =      T    Harris-Foulkes like correction to forces

   POTIM  = 0.5000    time-step for ionic-motion
   TEIN   =    0.0    initial temperature
   TEBEG  =    0.0;   TEEND  =   0.0 temperature during run
   SMASS  =  -3.00    Nose mass-parameter (am)
   estimated Nose-frequenzy (Omega)   =  0.10E-29 period in steps =****** mass=  -0.166E-26a.u.
   SCALEE = 1.0000    scale energy and forces
   NPACO  =    256;   APACO  = 16.0  distance and # of slots for P.C.
   PSTRESS=    0.0 pullay stress

  Mass of Ions in am
   POMASS = 180.95 58.69  7.01 16.00
  Ionic Valenz
   ZVAL   =  11.00 10.00  3.00  6.00
  Atomic Wigner-Seitz radii
   RWIGS  =   1.34  1.15  1.23  0.73
  virtual crystal weights 
   VCA    =   1.00  1.00  1.00  1.00
   NELECT =     697.0000    total number of electrons
   NUPDOWN=      -1.0000    fix difference up-down

 DOS related values:
   EMIN   =  10.00;   EMAX   =-10.00  energy-range for DOS
   EFERMI =   0.00
   ISMEAR =     0;   SIGMA  =   0.05  broadening in eV -4-tet -1-fermi 0-gaus

 Electronic relaxation 2 (details)
   IALGO  =     38    algorithm
   LDIAG  =      T    sub-space diagonalisation (order eigenvalues)
   LSUBROT=      F    optimize rotation matrix (better conditioning)
   TURBO    =      0    0=normal 1=particle mesh
   IRESTART =      0    0=no restart 2=restart with 2 vectors
   NREBOOT  =      0    no. of reboots
   NMIN     =      0    reboot dimension
   EREF     =   0.00    reference energy to select bands
   IMIX   =      4    mixing-type and parameters
     AMIX     =   0.40;   BMIX     =  1.00
     AMIX_MAG =   1.60;   BMIX_MAG =  1.00
     AMIN     =   0.10
     WC   =   100.;   INIMIX=   1;  MIXPRE=   1;  MAXMIX= -45

 Intra band minimization:
   WEIMIN = 0.0010     energy-eigenvalue tresh-hold
   EBREAK =  0.58E-08  absolut break condition
   DEPER  =   0.30     relativ break condition  

   TIME   =   0.40     timestep for ELM

  volume/ion in A,a.u.               =       9.35        63.09
  Fermi-wavevector in a.u.,A,eV,Ry     =   1.446846  2.734142 28.481932  2.093363
  Thomas-Fermi vector in A             =   2.564868
 
 Write flags
   LWAVE        =      F    write WAVECAR
   LDOWNSAMPLE  =      F    k-point downsampling of WAVECAR
   LCHARG       =      T    write CHGCAR
   LVTOT        =      F    write LOCPOT, total local potential
   LVHAR        =      F    write LOCPOT, Hartree potential only
   LELF         =      F    write electronic localiz. function (ELF)
   LORBIT       =      0    0 simple, 1 ext, 2 COOP (PROOUT), +10 PAW based schemes


 Dipole corrections
   LMONO  =      F    monopole corrections only (constant potential shift)
   LDIPOL =      F    correct potential (dipole corrections)
   IDIPOL =      0    1-x, 2-y, 3-z, 4-all directions 
   EPSILON=  1.0000000 bulk dielectric constant

 Exchange correlation treatment:
   GGA     =    PS    GGA type
   LEXCH   =    14    internal setting for exchange type
   VOSKOWN=      1    Vosko Wilk Nusair interpolation
   LHFCALC =     F    Hartree Fock is set to
   LHFONE  =     F    Hartree Fock one center treatment
   AEXX    =    0.0000 exact exchange contribution

 Linear response parameters
   LEPSILON=     F    determine dielectric tensor
   LRPA    =     F    only Hartree local field effects (RPA)
   LNABLA  =     F    use nabla operator in PAW spheres
   LVEL    =     F    velocity operator in full k-point grid
   LINTERFAST=   F  fast interpolation
   KINTER  =     0    interpolate to denser k-point grid
   CSHIFT  =0.1000    complex shift for real part using Kramers Kronig
   OMEGAMAX=  -1.0    maximum frequency
   DEG_THRESHOLD= 0.2000000E-02 threshold for treating states as degnerate
   RTIME   =   -0.100 relaxation time in fs
  (WPLASMAI=    0.000 imaginary part of plasma frequency in eV, 0.658/RTIME)
   DFIELD  = 0.0000000 0.0000000 0.0000000 field for delta impulse in time
 
 Orbital magnetization related:
   ORBITALMAG=     F  switch on orbital magnetization
   LCHIMAG   =     F  perturbation theory with respect to B field
   DQ        =  0.001000  dq finite difference perturbation B field
   LLRAUG    =     F  two centre corrections for induced B field



--------------------------------------------------------------------------------------------------------


 quasi-Newton-method for relaxation of ions
 charge density and potential will be updated during run
 spin polarized calculation
 Variant of blocked Davidson
 Davidson routine will perform the subspace rotation
 perform sub-space diagonalisation
    after iterative eigenvector-optimisation
 modified Broyden-mixing scheme, WC =      100.0
 initial mixing is a Kerker type mixing with AMIX =  0.4000 and BMIX =      1.0000
 Hartree-type preconditioning will be used
 using additional bands           83
 real space projection scheme for non local part
 use partial core corrections
 calculate Harris-corrections to forces 
   (improved forces if not selfconsistent)
 use gradient corrections 
 use of overlap-Matrix (Vanderbilt PP)
 Gauss-broadening in eV      SIGMA  =   0.05


--------------------------------------------------------------------------------------------------------


  energy-cutoff  :      500.00
  volume of cell :     1009.70
      direct lattice vectors                 reciprocal lattice vectors
     8.526816846  0.000000000  0.000000000     0.117277059  0.000073546 -0.065195633
     0.000000000 15.440168429  0.017417887     0.000000000  0.064766191 -0.000051872
     4.263408473  0.006142325  7.669232405     0.000000000 -0.000147093  0.130391264

  length of vectors
     8.526816846 15.440178253  8.774611969     0.134180417  0.064766212  0.130391346


 
 k-points in units of 2pi/SCALE and weight: Automatic mesh                          
   0.00000000  0.00000000  0.00000000       1.000
 
 k-points in reciprocal lattice and weights: Automatic mesh                          
   0.00000000  0.00000000  0.00000000       1.000
 
 position of ions in fractional coordinates (direct lattice) 
   0.00233150  0.00191603  0.99466201
   0.88080942  0.33244795  0.23799866
   0.10599393  0.66399285  0.12195089
   0.33752353  0.99957710  0.98816048
   0.21487568  0.33182254  0.23792533
   0.43753848  0.66433641  0.12546113
   0.67357215  0.00002784  0.98785608
   0.54936195  0.33135968  0.23459869
   0.77058159  0.66409962  0.12561352
   0.67625536  0.00000000  0.33333333
   0.56286177  0.33590038  0.54105315
   0.78547476  0.66755205  0.42866800
   0.98991404  0.00000000  0.33333333
   0.89461148  0.33600715  0.54471578
   0.11946768  0.66817746  0.42874133
   0.22966627  0.33566359  0.54120554
   0.45062730  0.66864032  0.43206797
   0.32809489  0.99997216  0.67881059
   0.22327620  0.33575287  0.88891421
   0.66366017  0.99808397  0.67200466
   0.77885708  0.66424713  0.77775246
   0.99235068  0.00042290  0.67850619
   0.33294406  0.00000000  0.33333333
   0.43992214  0.66542149  0.77827663
   0.55855040  0.33374062  0.88864595
   0.88486544  0.33457851  0.88839004
   0.11386303  0.66625938  0.77802072
   0.99661773  0.50198134  0.99610618
   0.89038095  0.83072794  0.22277402
   0.11021366  0.16697334  0.11342993
   0.34075452  0.50201003  0.99640320
   0.22452592  0.83806212  0.22696536
   0.44683334  0.16708444  0.11273062
   0.66619969  0.48714316  0.00056302
   0.54345123  0.84023197  0.23104173
   0.78085080  0.17241216  0.10404861
   0.66366708  0.50000000  0.33333333
   0.55156607  0.82758784  0.56261806
   0.77982164  0.16927206  0.44389264
   0.00023462  0.50000000  0.33333333
   0.89031026  0.83302666  0.55323674
   0.11815796  0.16193788  0.43970130
   0.33631108  0.50000000  0.33333333
   0.22623062  0.83291556  0.55393605
   0.44115963  0.15976803  0.43562493
   0.33342937  0.51285684  0.66610365
   0.23120891  0.81705145  0.87506044
   0.45078356  0.17282854  0.78091227
   0.65939057  0.49801866  0.67056049
   0.54837704  0.82824187  0.88823711
   0.77293602  0.18294855  0.79160623
   0.00382439  0.49798997  0.67026347
   0.89836249  0.82717146  0.88575440
   0.10328082  0.17175813  0.77842956
   0.00043593  0.74458354  0.99951699
   0.00139281  0.25887818  0.00354440
   0.89346805  0.09019683  0.21128390
   0.88909709  0.57278676  0.21860625
   0.11621046  0.41524981  0.10175459
   0.10893686  0.91694427  0.11860901
   0.33386729  0.74394841  0.99941936
   0.32648452  0.25638016  0.00487403
   0.22337281  0.07578094  0.21593908
   0.22606369  0.57302731  0.21889195
   0.44529885  0.40981314  0.10920038
   0.44763441  0.91909768  0.10413741
   0.67257132  0.74678917  0.98919555
   0.65928489  0.25719289  0.01344070
   0.55969996  0.07591878  0.21634376
   0.55909959  0.57188910  0.21537895
   0.77806271  0.41039532  0.11007459
   0.77179203  0.91652140  0.11815014
   0.66733642  0.75974824  0.33427487
   0.66827796  0.24025176  0.33239179
   0.55660884  0.08347860  0.54851653
   0.55480396  0.58960468  0.55659208
   0.77437001  0.42721324  0.44806041
   0.77141863  0.90980317  0.45538276
   0.99931658  0.76082565  0.33684366
   0.00282690  0.23917435  0.32982300
   0.89421252  0.08305573  0.54805766
   0.88463170  0.58475019  0.56491208
   0.11162232  0.42697269  0.44777471
   0.10597856  0.92421906  0.45072758
   0.33091626  0.76065884  0.33414933
   0.33173226  0.23934116  0.33251733
   0.21843848  0.08090232  0.56252926
   0.22116588  0.59018686  0.55746629
   0.44114521  0.42811090  0.45128771
   0.44271039  0.92408122  0.45032290
   0.33939225  0.74280711  0.65322597
   0.32843353  0.25321083  0.67747112
   0.21913135  0.09327085  0.89028099
   0.21654320  0.58969114  0.90024024
   0.44334673  0.41296561  0.77411090
   0.44641217  0.90638680  0.77636287
   0.67160387  0.74112182  0.66312227
   0.66661959  0.25541646  0.66714968
   0.55489480  0.08925157  0.88978713
   0.55751567  0.58732071  0.89248511
   0.78345011  0.41030886  0.76642643
   0.77607901  0.90672915  0.77638568
   0.99802522  0.74361984  0.66179264
   0.99995332  0.25605159  0.66724731
   0.88944171  0.09361320  0.89030380
   0.88412430  0.58703439  0.89255577
   0.11666745  0.41267929  0.77418156
   0.11134861  0.91074843  0.77687954
 
 position of ions in cartesian coordinates  (Angst):
   4.26053071  0.03569336  7.62832749
   8.52518610  5.13451421  1.83105758
   1.42371729 10.25291050  0.94683507
   7.09093308 15.43970838  7.59584290
   2.84657844  5.12485732  1.83048430
   4.26570253 10.25823669  0.97376190
   9.95506034  0.00649759  7.57609834
   5.68449877  5.11769025  1.80496346
   7.10614983 10.25458155  0.97492649
   7.18744174  0.00204744  2.55641078
   7.10614981  5.18968177  4.15531303
   8.52518620 10.30974911  3.29918186
   9.86195186  0.00204744  2.55641078
   9.95053411  5.19135281  4.18340445
   2.84657845 10.31940599  3.29975514
   4.26570250  5.18602663  4.15647762
   5.68449870 10.32657306  3.32527598
   5.69165186 15.44390805  5.22337358
   5.69363964  5.18954086  6.82313777
   8.52393908 15.41471227  5.17114443
   9.95704810 10.26086477  5.97633415
  11.35434153  0.01069725  5.20362903
   4.26008916  0.00204744  2.55641078
   7.06924669 10.27900031  5.98037459
   8.55131763  5.15846974  6.82104537
  11.33265516  5.17140533  6.81909733
   4.28790933 10.29193590  5.97842655
  12.74478438  7.75679485  7.64811325
   8.54189193 12.82794766  1.72297526
   1.42336982  2.57879322  0.87282882
   7.15362523  7.75723965  7.65039166
   2.88213744 12.94121438  1.75524736
   4.29068273  2.58050432  0.86746758
   5.68296312  7.52157590  0.01280294
   5.61893437 12.97474227  1.78654779
   7.10177348  2.66271189  0.80097603
   7.08010378  7.72213166  2.56511972
   7.10177346 12.78155142  4.32926349
   8.54189194  2.61631565  3.40726418
   1.42313671  7.72213166  2.56511972
   9.95018673 12.86547010  4.25741070
   2.88213753  2.50304893  3.37499207
   4.28879913  7.72213166  2.56511972
   4.29068271 12.86375899  4.26277193
   5.61893438  2.46952104  3.34369165
   5.68296311  7.92268741  5.11743658
   5.70221612 12.62078691  6.72527319
   7.17309684  2.67329838  5.99200799
   8.48137590  7.69361079  5.15135867
   8.46282820 12.79364981  6.82652305
   9.96562458  2.82961873  6.07419873
   2.89021683  7.69316599  5.14908026
  11.43650523 12.77710725  6.80746393
   4.19941982  2.65675582  5.97294887
   4.26506630 11.50263463  7.67849716
   0.02698746  3.99714447  0.03169194
   8.51922799  1.39395202  1.62195637
   8.51317578  8.84526680  1.68651887
   1.42472669  6.41215202  0.78761237
   1.43456331 14.15850250  0.92561129
   7.10775820 11.49282751  7.67773735
   2.80465369  3.95858279  0.04184567
   2.82529554  1.17139685  1.65740693
   2.86082947  8.84898269  1.68871416
   4.26254756  6.32825465  0.84462117
   4.26087694 14.19166263  0.81466274
   9.95223715 11.53662653  7.59937806
   5.67890470  3.97118410  0.10755961
   5.69482087  1.17352760  1.66051292
   5.68558824  8.83138695  1.66175232
   7.10369116  6.33724898  0.85133583
   7.08465159 14.15197050  0.92208475
   7.11540574 11.73269401  2.57686487
   7.11540574  3.71156930  2.55337456
   7.08465166  1.29229281  4.20815477
   7.10369114  9.10701434  4.27890368
   8.51317579  6.59899651  3.44372057
   8.51922809 14.05031129  3.50828307
   9.95709156 11.74934518  2.59658429
   1.43027463  3.69491813  2.53365515
   9.96138005  1.28576081  4.20462822
   9.95154343  9.03211130  4.34262714
   2.86082957  6.59528063  3.44152528
   2.82529555 14.27286647  3.47283251
   4.24627743 11.74675306  2.57591794
   4.24627743  3.69751025  2.55432150
   4.26087692  1.25260068  4.31557678
   4.26254746  9.11600866  4.28561834
   5.68558825  6.61287636  3.46848712
   5.69482088 14.27073571  3.46972652
   5.67890469 11.47307922  5.02267991
   5.68882867  3.91377911  5.20009386
   5.66412440  1.44558603  6.82939640
   5.68451607  9.11046009  6.91442279
   7.08068734  6.38101341  5.94402939
   7.11642685 13.99953353  5.96989462
   8.55380430 11.44711884  5.09854758
   8.52847475  3.94777101  5.12097476
   8.52501232  1.38352464  6.82553886
   8.55886259  9.07381262  6.85490561
   9.94792453  6.33994555  5.88504913
   9.92753286 14.00481961  5.97007552
  11.33147061 11.48568052  5.08839385
  11.37116665  3.95757813  5.12173457
  11.37983532  1.45087211  6.82957730
  11.34409581  9.06939222  6.85544253
   4.29545420  6.37659302  5.94456631
   4.26160402 14.06688100  5.97393306
 


--------------------------------------------------------------------------------------------------------


 use serial FFT for orbitals x direction half grid
 k-point  1 :   0.0000 0.0000 0.0000  plane waves:   12787

 maximum and minimum number of plane-waves per node :     12787    12787

 maximum number of plane-waves:     12787
 maximum index in each direction: 
   IXMAX=   15   IYMAX=   28   IZMAX=   15
   IXMIN=    0   IYMIN=  -28   IZMIN=  -13

 The following grids will avoid any aliasing or wrap around errors in the Hartre
 e energy
  - symmetry arguments have not been applied
  - exchange correlation energies might require even more grid points
  - we recommend to set PREC=Normal or Accurate and rely on VASP defaults
 NGX is ok and might be reduce to    64
 NGY is ok and might be reduce to   120
 NGZ is ok and might be reduce to    60

 serial   3D FFT for wavefunctions
 parallel 3D FFT for charge:
    minimum data exchange during FFTs selected (reduces bandwidth)


 total amount of memory used by VASP MPI-rank0   163933. kBytes
=======================================================================

   base      :      30000. kBytes
   nonlr-proj:      46889. kBytes
   fftplans  :      10383. kBytes
   grid      :      63467. kBytes
   one-center:       1679. kBytes
   wavefun   :      11515. kBytes
 
     INWAV:  cpu time    0.0000: real time    0.0000
 Broyden mixing: mesh for mixing (old mesh)
   NGX = 31   NGY = 57   NGZ = 31
  (NGX  =128   NGY  =240   NGZ  =128)
  gives a total of  54777 points

 initial charge density was supplied:
 charge density of overlapping atoms calculated
 number of electron     697.0000000 magnetization      12.5000000
 keeping initial charge density in first step


--------------------------------------------------------------------------------------------------------


 Maximum index for non-local projection operator         8286
 Maximum index for augmentation-charges         1722 (set IRDMAX)


--------------------------------------------------------------------------------------------------------


 First call to EWALD:  gamma=   0.177
 Maximum number of real-space cells 4x 2x 3
 Maximum number of reciprocal cells 2x 4x 2

    FEWALD:  cpu time    0.0047: real time    0.0047


--------------------------------------- Iteration      1(   1)  ---------------------------------------


    POTLOK:  cpu time    0.2582: real time    0.2899
    SETDIJ:  cpu time    0.0358: real time    0.0359
     EDDAV:  cpu time    4.5497: real time    4.5781
    --------------------------------------------
      LOOP:  cpu time    4.8441: real time    4.9044

 eigenvalue-minimisations  :  1728
 total energy-change (2. order) : 0.1091834E+05  (-0.3792212E+05)
 number of electron     697.0000000 magnetization      12.5000000
 augmentation part      697.0000000 magnetization      12.5000000

 Free energy of the ion-electron system (eV)
  ---------------------------------------------------
  alpha Z        PSCENC =      4347.43136726
  Ewald energy   TEWEN  =    -45830.24194902
  -Hartree energ DENC   =    -11701.91035057
  -exchange      EXHF   =         0.00000000
  -V(xc)+E(xc)   XCENC  =      2576.17420085
  PAW double counting   =     43705.32444516   -44171.67351699
  entropy T*S    EENTRO =        -0.01250760
  eigenvalues    EBANDS =      4872.13602548
  atomic energy  EATOM  =     57121.10803460
  Solvation  Ediel_sol  =         0.00000000
  ---------------------------------------------------
  free energy    TOTEN  =     10918.33574918 eV

  energy without entropy =    10918.34825677  energy(sigma->0) =    10918.34200298


--------------------------------------------------------------------------------------------------------




--------------------------------------- Iteration      1(   2)  ---------------------------------------


     EDDAV:  cpu time    4.8306: real time    4.8424
    --------------------------------------------
      LOOP:  cpu time    4.8304: real time    4.8423

 eigenvalue-minimisations  :  1872
 total energy-change (2. order) :-0.1005630E+05  (-0.9435878E+04)
 number of electron     697.0000000 magnetization      12.5000000
 augmentation part      697.0000000 magnetization      12.5000000

 Free energy of the ion-electron system (eV)
  ---------------------------------------------------
  alpha Z        PSCENC =      4347.43136726
  Ewald energy   TEWEN  =    -45830.24194902
  -Hartree energ DENC   =    -11701.91035057
  -exchange      EXHF   =         0.00000000
  -V(xc)+E(xc)   XCENC  =      2576.17420085
  PAW double counting   =     43705.32444516   -44171.67351699
  entropy T*S    EENTRO =        -0.02871930
  eigenvalues    EBANDS =     -5184.14701366
  atomic energy  EATOM  =     57121.10803460
  Solvation  Ediel_sol  =         0.00000000
  ---------------------------------------------------
  free energy    TOTEN  =       862.03649833 eV

  energy without entropy =      862.06521763  energy(sigma->0) =      862.05085798


--------------------------------------------------------------------------------------------------------




--------------------------------------- Iteration      1(   3)  ---------------------------------------


     EDDAV:  cpu time    5.0536: real time    5.0660
    --------------------------------------------
      LOOP:  cpu time    5.0536: real time    5.0661

 eigenvalue-minimisations  :  1984
 total energy-change (2. order) :-0.1686597E+04  (-0.1596456E+04)
 number of electron     697.0000000 magnetization      12.5000000
 augmentation part      697.0000000 magnetization      12.5000000

 Free energy of the ion-electron system (eV)
  ---------------------------------------------------
  alpha Z        PSCENC =      4347.43136726
  Ewald energy   TEWEN  =    -45830.24194902
  -Hartree energ DENC   =    -11701.91035057
  -exchange      EXHF   =         0.00000000
  -V(xc)+E(xc)   XCENC  =      2576.17420085
  PAW double counting   =     43705.32444516   -44171.67351699
  entropy T*S    EENTRO =        -0.04210062
  eigenvalues    EBANDS =     -6870.73102918
  atomic energy  EATOM  =     57121.10803460
  Solvation  Ediel_sol  =         0.00000000
  ---------------------------------------------------
  free energy    TOTEN  =      -824.56089851 eV

  energy without entropy =     -824.51879789  energy(sigma->0) =     -824.53984820


--------------------------------------------------------------------------------------------------------




--------------------------------------- Iteration      1(   4)  ---------------------------------------


     EDDAV:  cpu time    5.5224: real time    5.5361
    --------------------------------------------
      LOOP:  cpu time    5.5224: real time    5.5361

 eigenvalue-minimisations  :  2224
 total energy-change (2. order) :-0.1555377E+03  (-0.1509851E+03)
 number of electron     697.0000000 magnetization      12.5000000
 augmentation part      697.0000000 magnetization      12.5000000

 Free energy of the ion-electron system (eV)
  ---------------------------------------------------
  alpha Z        PSCENC =      4347.43136726
  Ewald energy   TEWEN  =    -45830.24194902
  -Hartree energ DENC   =    -11701.91035057
  -exchange      EXHF   =         0.00000000
  -V(xc)+E(xc)   XCENC  =      2576.17420085
  PAW double counting   =     43705.32444516   -44171.67351699
  entropy T*S    EENTRO =        -0.03676785
  eigenvalues    EBANDS =     -7026.27406277
  atomic energy  EATOM  =     57121.10803460
  Solvation  Ediel_sol  =         0.00000000
  ---------------------------------------------------
  free energy    TOTEN  =      -980.09859933 eV

  energy without entropy =     -980.06183148  energy(sigma->0) =     -980.08021540


--------------------------------------------------------------------------------------------------------




--------------------------------------- Iteration      1(   5)  ---------------------------------------


     EDDAV:  cpu time    7.5396: real time    7.5583
    CHARGE:  cpu time    0.3428: real time    0.3437
    MIXING:  cpu time    0.0052: real time    0.0052
    --------------------------------------------
      LOOP:  cpu time    7.8873: real time    7.9069

 eigenvalue-minimisations  :  3248
 total energy-change (2. order) :-0.1800329E+02  (-0.1788253E+02)
 number of electron     696.9999973 magnetization      13.2742584
 augmentation part      164.6943453 magnetization       9.4807153

 Broyden mixing:
  rms(total) = 0.13611E+02    rms(broyden)= 0.13610E+02
  rms(prec ) = 0.14369E+02
  weight for this iteration     100.00

 Free energy of the ion-electron system (eV)
  ---------------------------------------------------
  alpha Z        PSCENC =      4347.43136726
  Ewald energy   TEWEN  =    -45830.24194902
  -Hartree energ DENC   =    -11701.91035057
  -exchange      EXHF   =         0.00000000
  -V(xc)+E(xc)   XCENC  =      2576.17420085
  PAW double counting   =     43705.32444516   -44171.67351699
  entropy T*S    EENTRO =        -0.04294911
  eigenvalues    EBANDS =     -7044.27117322
  atomic energy  EATOM  =     57121.10803460
  Solvation  Ediel_sol  =         0.00000000
  ---------------------------------------------------
  free energy    TOTEN  =      -998.10189104 eV

  energy without entropy =     -998.05894193  energy(sigma->0) =     -998.08041648


--------------------------------------------------------------------------------------------------------




--------------------------------------- Iteration      1(   6)  ---------------------------------------


    POTLOK:  cpu time    0.2285: real time    0.2291
    SETDIJ:  cpu time    0.0368: real time    0.0369
     EDDAV:  cpu time    6.0166: real time    6.0315
    CHARGE:  cpu time    0.3400: real time    0.3408
    MIXING:  cpu time    0.0050: real time    0.0051
    --------------------------------------------
      LOOP:  cpu time    6.6270: real time    6.6434

 eigenvalue-minimisations  :  2448
 total energy-change (2. order) : 0.2339720E+02  (-0.9701265E+02)
 number of electron     696.9999997 magnetization      11.8249744
 augmentation part      174.3032666 magnetization      12.7424557

 Broyden mixing:
  rms(total) = 0.14827E+02    rms(broyden)= 0.14827E+02
  rms(prec ) = 0.15314E+02
  weight for this iteration     100.00

 eigenvalues of (default mixing * dielectric matrix)
  average eigenvalue GAMMA=   0.3682
  0.3682

 Free energy of the ion-electron system (eV)
  ---------------------------------------------------
  alpha Z        PSCENC =      4347.43136726
  Ewald energy   TEWEN  =    -45830.24194902
  -Hartree energ DENC   =    -11815.83024447
  -exchange      EXHF   =         0.00000000
  -V(xc)+E(xc)   XCENC  =      2615.24706755
  PAW double counting   =     58349.35530725   -58788.58163223
  entropy T*S    EENTRO =        -0.02704224
  eigenvalues    EBANDS =     -6973.16559648
  atomic energy  EATOM  =     57121.10803460
  Solvation  Ediel_sol  =         0.00000000
  ---------------------------------------------------
  free energy    TOTEN  =      -974.70468778 eV

  energy without entropy =     -974.67764554  energy(sigma->0) =     -974.69116666


--------------------------------------------------------------------------------------------------------




--------------------------------------- Iteration      1(   7)  ---------------------------------------


    POTLOK:  cpu time    0.2283: real time    0.2289
    SETDIJ:  cpu time    0.0368: real time    0.0369
     EDDAV:  cpu time    5.9458: real time    5.9605
    CHARGE:  cpu time    0.3363: real time    0.3371
    MIXING:  cpu time    0.0051: real time    0.0051
    --------------------------------------------
      LOOP:  cpu time    6.5524: real time    6.5685

 eigenvalue-minimisations  :  2464
 total energy-change (2. order) : 0.9074295E+02  (-0.2794460E+02)
 number of electron     696.9999995 magnetization      10.1322445
 augmentation part      169.7993486 magnetization       7.6975970

 Broyden mixing:
  rms(total) = 0.58907E+01    rms(broyden)= 0.58906E+01
  rms(prec ) = 0.62287E+01
  weight for this iteration     100.00

 eigenvalues of (default mixing * dielectric matrix)
  average eigenvalue GAMMA=   0.7920
  1.0032  0.5809

 Free energy of the ion-electron system (eV)
  ---------------------------------------------------
  alpha Z        PSCENC =      4347.43136726
  Ewald energy   TEWEN  =    -45830.24194902
  -Hartree energ DENC   =    -11894.12783149
  -exchange      EXHF   =         0.00000000
  -V(xc)+E(xc)   XCENC  =      2608.37394237
  PAW double counting   =     63654.40685173   -64174.96617710
  entropy T*S    EENTRO =        -0.03897463
  eigenvalues    EBANDS =     -6715.90699898
  atomic energy  EATOM  =     57121.10803460
  Solvation  Ediel_sol  =         0.00000000
  ---------------------------------------------------
  free energy    TOTEN  =      -883.96173525 eV

  energy without entropy =     -883.92276062  energy(sigma->0) =     -883.94224794


--------------------------------------------------------------------------------------------------------




--------------------------------------- Iteration      1(   8)  ---------------------------------------


    POTLOK:  cpu time    0.2260: real time    0.2266
    SETDIJ:  cpu time    0.0369: real time    0.0370
     EDDAV:  cpu time    5.9085: real time    5.9230
    CHARGE:  cpu time    0.3371: real time    0.3379
    MIXING:  cpu time    0.0056: real time    0.0056
    --------------------------------------------
      LOOP:  cpu time    6.5141: real time    6.5301

 eigenvalue-minimisations  :  2448
 total energy-change (2. order) :-0.1381944E+03  (-0.3566676E+02)
 number of electron     696.9999977 magnetization       9.3108500
 augmentation part      143.2717928 magnetization       6.8437707

 Broyden mixing:
  rms(total) = 0.14825E+02    rms(broyden)= 0.14825E+02
  rms(prec ) = 0.18528E+02
  weight for this iteration     100.00

 eigenvalues of (default mixing * dielectric matrix)
  average eigenvalue GAMMA=   0.6482
  1.2666  0.4796  0.1983

 Free energy of the ion-electron system (eV)
  ---------------------------------------------------
  alpha Z        PSCENC =      4347.43136726
  Ewald energy   TEWEN  =    -45830.24194902
  -Hartree energ DENC   =    -11881.54311881
  -exchange      EXHF   =         0.00000000
  -V(xc)+E(xc)   XCENC  =      2600.24167974
  PAW double counting   =     72828.37316548   -73412.75056858
  entropy T*S    EENTRO =        -0.07165499
  eigenvalues    EBANDS =     -6794.70305754
  atomic energy  EATOM  =     57121.10803460
  Solvation  Ediel_sol  =         0.00000000
  ---------------------------------------------------
  free energy    TOTEN  =     -1022.15610186 eV

  energy without entropy =    -1022.08444687  energy(sigma->0) =    -1022.12027437


--------------------------------------------------------------------------------------------------------




--------------------------------------- Iteration      1(   9)  ---------------------------------------


    POTLOK:  cpu time    0.2273: real time    0.2279
    SETDIJ:  cpu time    0.0366: real time    0.0366
     EDDAV:  cpu time    5.7272: real time    5.7413
    CHARGE:  cpu time    0.3347: real time    0.3355
    MIXING:  cpu time    0.0055: real time    0.0055
    --------------------------------------------
      LOOP:  cpu time    6.3313: real time    6.3469

 eigenvalue-minimisations  :  2352
 total energy-change (2. order) : 0.1368553E+03  (-0.4860875E+01)
 number of electron     696.9999984 magnetization       8.2291483
 augmentation part      168.4507949 magnetization       9.1197877

 Broyden mixing:
  rms(total) = 0.53326E+01    rms(broyden)= 0.53322E+01
  rms(prec ) = 0.66165E+01
  weight for this iteration     100.00

 eigenvalues of (default mixing * dielectric matrix)
  average eigenvalue GAMMA=   0.6207
  1.4439  0.4861  0.3712  0.1815

 Free energy of the ion-electron system (eV)
  ---------------------------------------------------
  alpha Z        PSCENC =      4347.43136726
  Ewald energy   TEWEN  =    -45830.24194902
  -Hartree energ DENC   =    -11718.49835227
  -exchange      EXHF   =         0.00000000
  -V(xc)+E(xc)   XCENC  =      2592.89917571
  PAW double counting   =     76035.31806021   -76586.39954076
  entropy T*S    EENTRO =        -0.00174264
  eigenvalues    EBANDS =     -6846.91583337
  atomic energy  EATOM  =     57121.10803460
  Solvation  Ediel_sol  =         0.00000000
  ---------------------------------------------------
  free energy    TOTEN  =      -885.30078028 eV

  energy without entropy =     -885.29903764  energy(sigma->0) =     -885.29990896


--------------------------------------------------------------------------------------------------------




--------------------------------------- Iteration      1(  10)  ---------------------------------------


    POTLOK:  cpu time    0.2269: real time    0.2275
    SETDIJ:  cpu time    0.0367: real time    0.0368
     EDDAV:  cpu time    5.6964: real time    5.7104
    CHARGE:  cpu time    0.3428: real time    0.3437
    MIXING:  cpu time    0.0060: real time    0.0060
    --------------------------------------------
      LOOP:  cpu time    6.3089: real time    6.3244

 eigenvalue-minimisations  :  2336
 total energy-change (2. order) :-0.1133102E+02  (-0.4073157E+02)
 number of electron     696.9999989 magnetization       5.7822242
 augmentation part      163.2537635 magnetization       4.5172250

 Broyden mixing:
  rms(total) = 0.52776E+01    rms(broyden)= 0.52760E+01
  rms(prec ) = 0.64296E+01
  weight for this iteration     100.00

 eigenvalues of (default mixing * dielectric matrix)
  average eigenvalue GAMMA=   0.7095
  2.0493  0.5644  0.5644  0.2352  0.1341

 Free energy of the ion-electron system (eV)
  ---------------------------------------------------
  alpha Z        PSCENC =      4347.43136726
  Ewald energy   TEWEN  =    -45830.24194902
  -Hartree energ DENC   =    -11723.76666569
  -exchange      EXHF   =         0.00000000
  -V(xc)+E(xc)   XCENC  =      2593.90020886
  PAW double counting   =     78314.34226922   -78871.45727494
  entropy T*S    EENTRO =        -0.05436424
  eigenvalues    EBANDS =     -6847.89342555
  atomic energy  EATOM  =     57121.10803460
  Solvation  Ediel_sol  =         0.00000000
  ---------------------------------------------------
  free energy    TOTEN  =      -896.63179950 eV

  energy without entropy =     -896.57743526  energy(sigma->0) =     -896.60461738


--------------------------------------------------------------------------------------------------------




--------------------------------------- Iteration      1(  11)  ---------------------------------------


    POTLOK:  cpu time    0.2281: real time    0.2286
    SETDIJ:  cpu time    0.0367: real time    0.0368
     EDDAV:  cpu time    5.8584: real time    5.8728
    CHARGE:  cpu time    0.3394: real time    0.3402
    MIXING:  cpu time    0.0061: real time    0.0061
    --------------------------------------------
      LOOP:  cpu time    6.4687: real time    6.4846

 eigenvalue-minimisations  :  2432
 total energy-change (2. order) : 0.4319727E+01  (-0.5663201E+01)
 number of electron     696.9999990 magnetization       5.3439185
 augmentation part      167.3956874 magnetization       4.4150260

 Broyden mixing:
  rms(total) = 0.41712E+01    rms(broyden)= 0.41704E+01
  rms(prec ) = 0.48382E+01
  weight for this iteration     100.00

 eigenvalues of (default mixing * dielectric matrix)
  average eigenvalue GAMMA=   0.6415
  2.1035  0.5708  0.5708  0.2321  0.2321  0.1398

 Free energy of the ion-electron system (eV)
  ---------------------------------------------------
  alpha Z        PSCENC =      4347.43136726
  Ewald energy   TEWEN  =    -45830.24194902
  -Hartree energ DENC   =    -11709.99549955
  -exchange      EXHF   =         0.00000000
  -V(xc)+E(xc)   XCENC  =      2594.79449744
  PAW double counting   =     83875.98489347   -84440.96906893
  entropy T*S    EENTRO =        -0.02587602
  eigenvalues    EBANDS =     -6850.39847176
  atomic energy  EATOM  =     57121.10803460
  Solvation  Ediel_sol  =         0.00000000
  ---------------------------------------------------
  free energy    TOTEN  =      -892.31207250 eV

  energy without entropy =     -892.28619648  energy(sigma->0) =     -892.29913449


--------------------------------------------------------------------------------------------------------




--------------------------------------- Iteration      1(  12)  ---------------------------------------


    POTLOK:  cpu time    0.2270: real time    0.2276
    SETDIJ:  cpu time    0.0369: real time    0.0369
     EDDAV:  cpu time    5.9172: real time    5.9318
    CHARGE:  cpu time    0.3348: real time    0.3356
    MIXING:  cpu time    0.0063: real time    0.0063
    --------------------------------------------
      LOOP:  cpu time    6.5221: real time    6.5382

 eigenvalue-minimisations  :  2464
 total energy-change (2. order) :-0.2219513E+01  (-0.9020820E+01)
 number of electron     696.9999989 magnetization       4.7815598
 augmentation part      167.1539683 magnetization       4.2003839

 Broyden mixing:
  rms(total) = 0.42592E+01    rms(broyden)= 0.42577E+01
  rms(prec ) = 0.49957E+01
  weight for this iteration     100.00

 eigenvalues of (default mixing * dielectric matrix)
  average eigenvalue GAMMA=   0.6172
  2.1295  0.6412  0.6412  0.3338  0.3338  0.1410  0.1002

 Free energy of the ion-electron system (eV)
  ---------------------------------------------------
  alpha Z        PSCENC =      4347.43136726
  Ewald energy   TEWEN  =    -45830.24194902
  -Hartree energ DENC   =    -11711.00939190
  -exchange      EXHF   =         0.00000000
  -V(xc)+E(xc)   XCENC  =      2594.80484194
  PAW double counting   =     84507.86782561   -85072.51181475
  entropy T*S    EENTRO =        -0.04148263
  eigenvalues    EBANDS =     -6851.93901665
  atomic energy  EATOM  =     57121.10803460
  Solvation  Ediel_sol  =         0.00000000
  ---------------------------------------------------
  free energy    TOTEN  =      -894.53158554 eV

  energy without entropy =     -894.49010291  energy(sigma->0) =     -894.51084422


--------------------------------------------------------------------------------------------------------




--------------------------------------- Iteration      1(  13)  ---------------------------------------


    POTLOK:  cpu time    0.2266: real time    0.2272
    SETDIJ:  cpu time    0.0368: real time    0.0368
     EDDAV:  cpu time    5.7044: real time    5.7185
    CHARGE:  cpu time    0.3434: real time    0.3442
    MIXING:  cpu time    0.0066: real time    0.0066
    --------------------------------------------
      LOOP:  cpu time    6.3178: real time    6.3333

 eigenvalue-minimisations  :  2352
 total energy-change (2. order) : 0.1080991E+02  (-0.1059837E+01)
 number of electron     696.9999993 magnetization       4.1392053
 augmentation part      169.5922073 magnetization       3.7050471

 Broyden mixing:
  rms(total) = 0.23322E+01    rms(broyden)= 0.23316E+01
  rms(prec ) = 0.28842E+01
  weight for this iteration     100.00

 eigenvalues of (default mixing * dielectric matrix)
  average eigenvalue GAMMA=   0.5690
  2.1283  0.6253  0.6253  0.3763  0.3763  0.1688  0.1426  0.1091

 Free energy of the ion-electron system (eV)
  ---------------------------------------------------
  alpha Z        PSCENC =      4347.43136726
  Ewald energy   TEWEN  =    -45830.24194902
  -Hartree energ DENC   =    -11715.90355078
  -exchange      EXHF   =         0.00000000
  -V(xc)+E(xc)   XCENC  =      2594.76730219
  PAW double counting   =     84919.01621030   -85485.09746858
  entropy T*S    EENTRO =        -0.05445808
  eigenvalues    EBANDS =     -6834.74716444
  atomic energy  EATOM  =     57121.10803460
  Solvation  Ediel_sol  =         0.00000000
  ---------------------------------------------------
  free energy    TOTEN  =      -883.72167654 eV

  energy without entropy =     -883.66721846  energy(sigma->0) =     -883.69444750


--------------------------------------------------------------------------------------------------------




--------------------------------------- Iteration      1(  14)  ---------------------------------------


    POTLOK:  cpu time    0.2253: real time    0.2258
    SETDIJ:  cpu time    0.0368: real time    0.0369
     EDDAV:  cpu time    5.7696: real time    5.7839
    CHARGE:  cpu time    0.3325: real time    0.3333
    MIXING:  cpu time    0.0066: real time    0.0066
    --------------------------------------------
      LOOP:  cpu time    6.3708: real time    6.3865

 eigenvalue-minimisations  :  2400
 total energy-change (2. order) : 0.2745984E+01  (-0.1285122E+01)
 number of electron     696.9999990 magnetization       3.7659967
 augmentation part      167.2861345 magnetization       4.6102975

 Broyden mixing:
  rms(total) = 0.23425E+01    rms(broyden)= 0.23421E+01
  rms(prec ) = 0.27823E+01
  weight for this iteration     100.00

 eigenvalues of (default mixing * dielectric matrix)
  average eigenvalue GAMMA=   0.5688
  2.1464  0.6676  0.6676  0.3587  0.3587  0.4059  0.2686  0.1426  0.1029

 Free energy of the ion-electron system (eV)
  ---------------------------------------------------
  alpha Z        PSCENC =      4347.43136726
  Ewald energy   TEWEN  =    -45830.24194902
  -Hartree energ DENC   =    -11729.51130679
  -exchange      EXHF   =         0.00000000
  -V(xc)+E(xc)   XCENC  =      2595.25032315
  PAW double counting   =     85168.78765328   -85736.45152947
  entropy T*S    EENTRO =        -0.05654487
  eigenvalues    EBANDS =     -6817.29174058
  atomic energy  EATOM  =     57121.10803460
  Solvation  Ediel_sol  =         0.00000000
  ---------------------------------------------------
  free energy    TOTEN  =      -880.97569242 eV

  energy without entropy =     -880.91914755  energy(sigma->0) =     -880.94741999


--------------------------------------------------------------------------------------------------------




--------------------------------------- Iteration      1(  15)  ---------------------------------------


    POTLOK:  cpu time    0.2247: real time    0.2252
    SETDIJ:  cpu time    0.0369: real time    0.0370
     EDDAV:  cpu time    5.8713: real time    5.8858
    CHARGE:  cpu time    0.3346: real time    0.3354
    MIXING:  cpu time    0.0071: real time    0.0071
    --------------------------------------------
      LOOP:  cpu time    6.4746: real time    6.4905

 eigenvalue-minimisations  :  2480
 total energy-change (2. order) : 0.9787966E+00  (-0.2719535E+00)
 number of electron     696.9999990 magnetization       3.9280277
 augmentation part      167.5009171 magnetization       5.8663405

 Broyden mixing:
  rms(total) = 0.22016E+01    rms(broyden)= 0.22013E+01
  rms(prec ) = 0.25145E+01
  weight for this iteration     100.00

 eigenvalues of (default mixing * dielectric matrix)
  average eigenvalue GAMMA=   0.5310
  2.1396  0.6716  0.6716  0.4013  0.4013  0.3646  0.2693  0.1423  0.1026  0.1453

 Free energy of the ion-electron system (eV)
  ---------------------------------------------------
  alpha Z        PSCENC =      4347.43136726
  Ewald energy   TEWEN  =    -45830.24194902
  -Hartree energ DENC   =    -11731.41976412
  -exchange      EXHF   =         0.00000000
  -V(xc)+E(xc)   XCENC  =      2595.42057633
  PAW double counting   =     85276.77310458   -85844.49041301
  entropy T*S    EENTRO =        -0.03039036
  eigenvalues    EBANDS =     -6814.54746213
  atomic energy  EATOM  =     57121.10803460
  Solvation  Ediel_sol  =         0.00000000
  ---------------------------------------------------
  free energy    TOTEN  =      -879.99689587 eV

  energy without entropy =     -879.96650550  energy(sigma->0) =     -879.98170069


--------------------------------------------------------------------------------------------------------




--------------------------------------- Iteration      1(  16)  ---------------------------------------


    POTLOK:  cpu time    0.2374: real time    0.2379
    SETDIJ:  cpu time    0.0353: real time    0.0354
     EDDAV:  cpu time    5.8387: real time    5.8531
    CHARGE:  cpu time    0.3328: real time    0.3336
    MIXING:  cpu time    0.0073: real time    0.0073
    --------------------------------------------
      LOOP:  cpu time    6.4515: real time    6.4673

 eigenvalue-minimisations  :  2464
 total energy-change (2. order) : 0.5725887E+00  (-0.3704071E-01)
 number of electron     696.9999991 magnetization       4.6966251
 augmentation part      167.5723147 magnetization       6.4952935

 Broyden mixing:
  rms(total) = 0.22585E+01    rms(broyden)= 0.22585E+01
  rms(prec ) = 0.25541E+01
  weight for this iteration     100.00

 eigenvalues of (default mixing * dielectric matrix)
  average eigenvalue GAMMA=   0.5556
  2.1430  0.4556  0.6681  0.6681  0.5057  0.5057  0.3819  0.3126  0.2263  0.1421
  0.1025

 Free energy of the ion-electron system (eV)
  ---------------------------------------------------
  alpha Z        PSCENC =      4347.43136726
  Ewald energy   TEWEN  =    -45830.24194902
  -Hartree energ DENC   =    -11731.52979457
  -exchange      EXHF   =         0.00000000
  -V(xc)+E(xc)   XCENC  =      2595.27468928
  PAW double counting   =     85303.13523019   -85870.55220039
  entropy T*S    EENTRO =        -0.04011467
  eigenvalues    EBANDS =     -6814.00956987
  atomic energy  EATOM  =     57121.10803460
  Solvation  Ediel_sol  =         0.00000000
  ---------------------------------------------------
  free energy    TOTEN  =      -879.42430719 eV

  energy without entropy =     -879.38419252  energy(sigma->0) =     -879.40424985


--------------------------------------------------------------------------------------------------------




--------------------------------------- Iteration      1(  17)  ---------------------------------------


    POTLOK:  cpu time    0.2256: real time    0.2262
    SETDIJ:  cpu time    0.0364: real time    0.0365
     EDDAV:  cpu time    5.8704: real time    5.8848
    CHARGE:  cpu time    0.3326: real time    0.3334
    MIXING:  cpu time    0.0074: real time    0.0074
    --------------------------------------------
      LOOP:  cpu time    6.4724: real time    6.4883

 eigenvalue-minimisations  :  2480
 total energy-change (2. order) : 0.4288584E+00  (-0.4093144E+00)
 number of electron     696.9999990 magnetization       4.7057484
 augmentation part      167.9893628 magnetization       4.1796336

 Broyden mixing:
  rms(total) = 0.22380E+01    rms(broyden)= 0.22373E+01
  rms(prec ) = 0.26643E+01
  weight for this iteration     100.00

 eigenvalues of (default mixing * dielectric matrix)
  average eigenvalue GAMMA=   0.5367
  2.1371  0.5182  0.6690  0.6690  0.5003  0.5003  0.3060  0.3060  0.2946  0.2946
  0.1422  0.1025

 Free energy of the ion-electron system (eV)
  ---------------------------------------------------
  alpha Z        PSCENC =      4347.43136726
  Ewald energy   TEWEN  =    -45830.24194902
  -Hartree energ DENC   =    -11732.45932244
  -exchange      EXHF   =         0.00000000
  -V(xc)+E(xc)   XCENC  =      2595.23805340
  PAW double counting   =     85363.61283737   -85931.53251017
  entropy T*S    EENTRO =        -0.07628407
  eigenvalues    EBANDS =     -6812.07567575
  atomic energy  EATOM  =     57121.10803460
  Solvation  Ediel_sol  =         0.00000000
  ---------------------------------------------------
  free energy    TOTEN  =      -878.99544881 eV

  energy without entropy =     -878.91916474  energy(sigma->0) =     -878.95730677


--------------------------------------------------------------------------------------------------------




--------------------------------------- Iteration      1(  18)  ---------------------------------------


    POTLOK:  cpu time    0.2268: real time    0.2274
    SETDIJ:  cpu time    0.0368: real time    0.0368
     EDDAV:  cpu time    5.6224: real time    5.6364
    CHARGE:  cpu time    0.3391: real time    0.3399
    MIXING:  cpu time    0.0077: real time    0.0077
    --------------------------------------------
      LOOP:  cpu time    6.2328: real time    6.2482

 eigenvalue-minimisations  :  2352
 total energy-change (2. order) : 0.4637155E+00  (-0.4834621E+00)
 number of electron     696.9999991 magnetization       4.8051228
 augmentation part      167.9183700 magnetization       3.9367136

 Broyden mixing:
  rms(total) = 0.18233E+01    rms(broyden)= 0.18226E+01
  rms(prec ) = 0.21739E+01
  weight for this iteration     100.00

 eigenvalues of (default mixing * dielectric matrix)
  average eigenvalue GAMMA=   0.5419
  2.1497  0.5424  0.6520  0.6520  0.5758  0.5758  0.3346  0.3741  0.3741  0.3162
  0.2533  0.1422  0.1025

 Free energy of the ion-electron system (eV)
  ---------------------------------------------------
  alpha Z        PSCENC =      4347.43136726
  Ewald energy   TEWEN  =    -45830.24194902
  -Hartree energ DENC   =    -11733.39653041
  -exchange      EXHF   =         0.00000000
  -V(xc)+E(xc)   XCENC  =      2595.27120671
  PAW double counting   =     85367.83508142   -85935.99407263
  entropy T*S    EENTRO =        -0.05506043
  eigenvalues    EBANDS =     -6810.48981080
  atomic energy  EATOM  =     57121.10803460
  Solvation  Ediel_sol  =         0.00000000
  ---------------------------------------------------
  free energy    TOTEN  =      -878.53173329 eV

  energy without entropy =     -878.47667287  energy(sigma->0) =     -878.50420308


--------------------------------------------------------------------------------------------------------




--------------------------------------- Iteration      1(  19)  ---------------------------------------


    POTLOK:  cpu time    0.2261: real time    0.2267
    SETDIJ:  cpu time    0.0366: real time    0.0366
     EDDAV:  cpu time    5.7166: real time    5.7307
    CHARGE:  cpu time    0.3315: real time    0.3323
    MIXING:  cpu time    0.0081: real time    0.0081
    --------------------------------------------
      LOOP:  cpu time    6.3189: real time    6.3344

 eigenvalue-minimisations  :  2400
 total energy-change (2. order) :-0.8409847E-01  (-0.1857245E+00)
 number of electron     696.9999990 magnetization       4.9146015
 augmentation part      167.9099012 magnetization       3.9088515

 Broyden mixing:
  rms(total) = 0.18418E+01    rms(broyden)= 0.18416E+01
  rms(prec ) = 0.21954E+01
  weight for this iteration     100.00

 eigenvalues of (default mixing * dielectric matrix)
  average eigenvalue GAMMA=   0.5335
  2.1606  0.6145  0.6056  0.6056  0.6347  0.6347  0.4330  0.4330  0.2626  0.2626
  0.3293  0.2481  0.1422  0.1025

 Free energy of the ion-electron system (eV)
  ---------------------------------------------------
  alpha Z        PSCENC =      4347.43136726
  Ewald energy   TEWEN  =    -45830.24194902
  -Hartree energ DENC   =    -11733.16363047
  -exchange      EXHF   =         0.00000000
  -V(xc)+E(xc)   XCENC  =      2595.25609977
  PAW double counting   =     85376.17173211   -85944.34053182
  entropy T*S    EENTRO =        -0.05430706
  eigenvalues    EBANDS =     -6810.78264713
  atomic energy  EATOM  =     57121.10803460
  Solvation  Ediel_sol  =         0.00000000
  ---------------------------------------------------
  free energy    TOTEN  =      -878.61583176 eV

  energy without entropy =     -878.56152470  energy(sigma->0) =     -878.58867823


--------------------------------------------------------------------------------------------------------




--------------------------------------- Iteration      1(  20)  ---------------------------------------


    POTLOK:  cpu time    0.2263: real time    0.2269
    SETDIJ:  cpu time    0.0366: real time    0.0367
     EDDAV:  cpu time    5.8758: real time    5.8903
    CHARGE:  cpu time    0.3316: real time    0.3324
    MIXING:  cpu time    0.0082: real time    0.0082
    --------------------------------------------
      LOOP:  cpu time    6.4785: real time    6.4945

 eigenvalue-minimisations  :  2480
 total energy-change (2. order) :-0.1240289E+00  (-0.1205163E-01)
 number of electron     696.9999990 magnetization       4.9679212
 augmentation part      167.7879353 magnetization       3.9889911

 Broyden mixing:
  rms(total) = 0.19027E+01    rms(broyden)= 0.19027E+01
  rms(prec ) = 0.22581E+01
  weight for this iteration     100.00

 eigenvalues of (default mixing * dielectric matrix)
  average eigenvalue GAMMA=   0.5404
  2.1647  0.6694  0.6024  0.6024  0.6513  0.6513  0.4025  0.4025  0.4071  0.4071
  0.3281  0.3281  0.2441  0.1422  0.1025

 Free energy of the ion-electron system (eV)
  ---------------------------------------------------
  alpha Z        PSCENC =      4347.43136726
  Ewald energy   TEWEN  =    -45830.24194902
  -Hartree energ DENC   =    -11733.10063698
  -exchange      EXHF   =         0.00000000
  -V(xc)+E(xc)   XCENC  =      2595.21507230
  PAW double counting   =     85401.69948678   -85970.00582063
  entropy T*S    EENTRO =        -0.05913325
  eigenvalues    EBANDS =     -6810.78628175
  atomic energy  EATOM  =     57121.10803460
  Solvation  Ediel_sol  =         0.00000000
  ---------------------------------------------------
[...]
      5.69727      5.22043      6.82693        -0.005447      0.004092      0.004913
      8.51947     15.48774      5.18802        -0.002161     -0.001642      0.004483
      9.95955     10.31287      5.97739        -0.005447     -0.004092     -0.004913
     11.35044      0.01398      5.20091        -0.000831      0.000369      0.002475
      4.25563      0.00492      2.55392        -0.003607     -0.000000      0.000000
      7.07258     10.32665      5.98107         0.005122     -0.004638     -0.005237
      8.53710      5.19512      6.82449         0.004716      0.003517      0.006311
     11.33486      5.20665      6.82325         0.005122      0.004638      0.005237
      4.27481     10.33818      5.97983         0.004716     -0.003517     -0.006311
     12.74114      7.79755      7.65573         0.001080      0.007537      0.004985
      8.54016     12.87921      1.71754         0.000801     -0.002639     -0.014501
      1.42113      2.60138      0.87297        -0.002202      0.001985      0.003446
      7.15289      7.80246      7.65624         0.000467      0.003761      0.003916
      2.87697     12.99330      1.76276        -0.002882      0.000386     -0.004010
      4.28414      2.60210      0.87270        -0.003110      0.004037      0.004549
      5.68272      7.56113      0.01943        -0.001770     -0.008621      0.003552
      5.62006     13.03424      1.81132        -0.000245      0.009977      0.014387
      7.11186      2.68361      0.80551         0.009535      0.004896      0.003086
      7.08084      7.75927      2.57129        -0.000050     -0.000000      0.000000
      7.11186     12.83494      4.33707         0.009535     -0.004896     -0.003086
      8.54016      2.63934      3.42504         0.000801      0.002639      0.014501
      1.42482      7.75927      2.57129         0.001028      0.000000     -0.000000
      9.94569     12.91717      4.26960        -0.002202     -0.001985     -0.003446
      2.87697      2.52524      3.37982        -0.002882     -0.000386      0.004010
      4.28676      7.75927      2.57129         0.001350      0.000000     -0.000000
      4.28414     12.91644      4.26988        -0.003110     -0.004037     -0.004549
      5.62006      2.48431      3.33125        -0.000245     -0.009977     -0.014387
      5.68272      7.95742      5.12315        -0.001770      0.008621     -0.003552
      5.70217     12.66776      6.70593         0.002279     -0.019702     -0.026703
      7.16599      2.70028      5.99611        -0.000963      0.007154      0.011259
      8.47886      7.73575      5.14860         0.001080     -0.007537     -0.004985
      8.46410     12.85094      6.83619         0.001418      0.001059      0.002559
      9.96445      2.86554      6.09839         0.002279      0.019702      0.026703
      2.89061      7.73084      5.14809         0.000467     -0.003761     -0.003916
     11.42827     12.83302      6.80822        -0.000963     -0.007154     -0.011259
      4.20181      2.68236      5.96814         0.001418     -0.001059     -0.002559
      4.26239     11.56117      7.67774         0.000796     -0.003973     -0.008647
      0.03185      4.01519      0.04185         0.002232      0.002058      0.011610
      8.51631      1.39411      1.62069        -0.001067     -0.003441     -0.004713
      8.51282      8.89223      1.69374         0.000247     -0.002137     -0.002266
      1.42631      6.44143      0.79988        -0.000945     -0.000107      0.003107
      1.43294     14.23200      0.94191        -0.002564      0.006243      0.005206
      7.10657     11.54984      7.67483         0.001500     -0.006858     -0.010385
      2.80329      3.97177      0.05460        -0.001748      0.009672      0.007088
      2.82258      1.17370      1.65550        -0.002409     -0.000802     -0.003769
      2.86016      8.89660      1.69315         0.000119     -0.003286     -0.000398
      4.25981      6.35652      0.85612         0.000767      0.001363      0.005564
      4.25850     14.26533      0.83185        -0.002084      0.002347      0.003835
      9.95225     11.59659      7.59940        -0.000996     -0.010281     -0.012387
      5.67674      3.99862      0.11432         0.000181      0.002871      0.011633
      5.69155      1.17723      1.66019        -0.002704     -0.001213     -0.001746
      5.68414      8.87495      1.66833         0.001225     -0.000926     -0.001801
      7.10513      6.36483      0.86180         0.000788      0.000560      0.004480
      7.08087     14.22318      0.93820        -0.001445      0.005936      0.004502
      7.11386     11.78541      2.58595         0.000591      0.000359     -0.010118
      7.11386      3.73314      2.55662         0.000591     -0.000359      0.010118
      7.08087      1.29537      4.20438        -0.001445     -0.005936     -0.004502
      7.10513      9.15372      4.28077         0.000788     -0.000560     -0.004480
      8.51282      6.62632      3.44884         0.000247      0.002137      0.002266
      8.51631     14.12443      3.52189        -0.001067      0.003441      0.004713
      9.95491     11.80625      2.60156         0.000262     -0.001939     -0.008086
      1.43034      3.71230      2.54102         0.000262      0.001939      0.008086
      9.95751      1.28654      4.20066        -0.002564     -0.006243     -0.005206
      9.95087      9.07712      4.34270        -0.000945      0.000107     -0.003107
      2.86016      6.62195      3.44943         0.000119      0.003286      0.000398
      2.82258     14.34484      3.48708        -0.002409      0.000802      0.003769
      4.24758     11.80017      2.58280        -0.000832     -0.001332     -0.007806
      4.24758      3.71838      2.55977        -0.000832      0.001332      0.007806
      4.25850      1.25322      4.31073        -0.002084     -0.002347     -0.003835
      4.25981      9.16203      4.28646         0.000767     -0.001363     -0.005564
      5.68414      6.64360      3.47425         0.001225      0.000926      0.001801
      5.69155     14.34132      3.48239        -0.002704      0.001213      0.001746
      5.67674     11.51992      5.02826         0.000181     -0.002871     -0.011633
      5.68997      3.93671      5.20493        -0.000996      0.010281      0.012387
      5.66113      1.45409      6.82137        -0.000887     -0.000352     -0.003988
      5.68019      9.16629      6.91436         0.003262     -0.003048     -0.000116
      7.07658      6.41954      5.94278         0.003111     -0.006272      0.003720
      7.11294     14.07108      5.98159        -0.002301     -0.001881      0.001841
      8.55642     11.50336      5.10073         0.002232     -0.002058     -0.011610
      8.52467      3.97213      5.12659         0.000796      0.003973      0.008647
      8.52107      1.39573      6.82068        -0.002641      0.004399     -0.001642
      8.55801      9.12571      6.85573         0.003800     -0.008383      0.002133
      9.94248      6.36701      5.88997         0.003262      0.003048      0.000116
      9.92342     14.07921      5.98295        -0.000887      0.000352      0.003988
     11.32786     11.54678      5.08797        -0.001748     -0.009672     -0.007088
     11.36885      3.98346      5.12950         0.001500      0.006858      0.010385
     11.37522      1.46223      6.82273        -0.002301      0.001881     -0.001841
     11.33887      9.11376      6.86155         0.003111      0.006272     -0.003720
      4.29573      6.40759      5.94860         0.003800      0.008383     -0.002133
      4.25879     14.13757      5.98365        -0.002641     -0.004399      0.001642
 -----------------------------------------------------------------------------------
    total drift:                                0.007631     -0.000978      0.002997


--------------------------------------------------------------------------------------------------------



  FREE ENERGIE OF THE ION-ELECTRON SYSTEM (eV)
  ---------------------------------------------------
  free  energy   TOTEN  =      -876.4506429016 eV

  energy  without entropy=     -876.4190839571  energy(sigma->0) =     -876.43486343
 
 d Force = 0.4523483E-03[ 0.443E-03, 0.462E-03]  d Energy = 0.4594930E-03-0.714E-05
 d Force =-0.6452552E+00[-0.646E+00,-0.644E+00]  d Ewald  =-0.1707020E+01 0.106E+01


--------------------------------------------------------------------------------------------------------


    POTLOK:  cpu time    0.2634: real time    0.2640


--------------------------------------------------------------------------------------------------------


 Quasi-Newton relaxation of ions (Broydens 2nd method)
  g(Force)  = 0.433E-03   g(Stress)= 0.495E-04

 retain information from N=  1 steps
 eigenvalues of (default step * inverse Hessian matrix)
  average eigenvalue of G=   0.1702
 eigenvalue spectrum of G is  0.1702


--------------------------------------------------------------------------------------------------------


     LOOP+:  cpu time   39.4073: real time   39.5975
    4ORBIT:  cpu time    0.0000: real time    0.0000

volume of typ            1:    21.9 %

volume of typ            2:     3.1 %

volume of typ            3:    20.8 %

volume of typ            4:     8.7 %
 
total charge     
 
# of ion       s       p       d       tot
------------------------------------------
    1        0.225   6.063   2.286   8.574
    2        0.228   6.079   2.248   8.555
    3        0.240   6.090   2.186   8.517
    4        0.235   6.088   2.183   8.506
    5        0.229   6.078   2.250   8.557
    6        0.229   6.078   2.251   8.558
    7        0.234   6.087   2.184   8.505
    8        0.241   6.091   2.186   8.518
    9        0.229   6.078   2.256   8.562
   10        0.243   6.102   2.145   8.490
   11        0.229   6.078   2.256   8.562
   12        0.228   6.079   2.248   8.555
   13        0.244   6.104   2.146   8.494
   14        0.240   6.090   2.186   8.517
   15        0.229   6.078   2.250   8.557
   16        0.229   6.078   2.251   8.558
   17        0.241   6.091   2.186   8.518
   18        0.234   6.087   2.184   8.505
   19        0.270   6.152   1.971   8.394
   20        0.225   6.063   2.286   8.574
   21        0.270   6.152   1.971   8.394
   22        0.235   6.088   2.183   8.506
   23        0.203   0.223   7.999   8.426
   24        0.205   0.233   7.951   8.389
   25        0.204   0.231   7.954   8.389
   26        0.205   0.233   7.951   8.389
   27        0.204   0.231   7.954   8.389
   28        2.075   0.251   0.099   2.426
   29        2.086   0.286   0.119   2.491
   30        2.088   0.292   0.121   2.500
   31        2.075   0.250   0.098   2.424
   32        2.082   0.269   0.110   2.462
   33        2.076   0.252   0.099   2.428
   34        2.075   0.251   0.098   2.424
   35        2.080   0.263   0.107   2.450
   36        2.085   0.278   0.113   2.476
   37        2.093   0.306   0.130   2.529
   38        2.085   0.278   0.113   2.476
   39        2.086   0.286   0.119   2.491
   40        2.087   0.288   0.122   2.496
   41        2.088   0.292   0.121   2.500
   42        2.082   0.269   0.110   2.462
   43        2.092   0.304   0.129   2.525
   44        2.076   0.252   0.099   2.428
   45        2.080   0.263   0.107   2.450
   46        2.075   0.251   0.098   2.424
   47        2.079   0.257   0.102   2.437
   48        2.077   0.254   0.103   2.434
   49        2.075   0.251   0.099   2.426
   50        2.082   0.269   0.109   2.461
   51        2.079   0.257   0.102   2.437
   52        2.075   0.250   0.098   2.424
   53        2.077   0.254   0.103   2.434
   54        2.082   0.269   0.109   2.461
   55        1.242   2.842   0.005   4.089
   56        1.246   2.847   0.006   4.098
   57        1.246   2.841   0.006   4.094
   58        1.244   2.849   0.006   4.099
   59        1.246   2.846   0.006   4.098
   60        1.246   2.845   0.006   4.097
   61        1.243   2.842   0.005   4.090
   62        1.246   2.843   0.005   4.094
   63        1.243   2.842   0.005   4.090
   64        1.244   2.849   0.006   4.099
   65        1.244   2.841   0.005   4.090
   66        1.245   2.838   0.005   4.088
   67        1.245   2.847   0.006   4.098
   68        1.242   2.835   0.004   4.081
   69        1.243   2.842   0.005   4.090
   70        1.244   2.845   0.006   4.095
   71        1.243   2.841   0.005   4.090
   72        1.245   2.845   0.006   4.096
   73        1.243   2.846   0.006   4.095
   74        1.243   2.846   0.006   4.095
   75        1.245   2.845   0.006   4.096
   76        1.243   2.841   0.005   4.090
   77        1.244   2.849   0.006   4.099
   78        1.246   2.841   0.006   4.094
   79        1.242   2.848   0.006   4.096
   80        1.242   2.848   0.006   4.096
   81        1.246   2.845   0.006   4.097
   82        1.246   2.846   0.006   4.098
   83        1.244   2.849   0.006   4.099
   84        1.243   2.842   0.005   4.090
   85        1.241   2.851   0.006   4.099
   86        1.241   2.851   0.006   4.099
   87        1.245   2.838   0.005   4.088
   88        1.244   2.841   0.005   4.090
   89        1.244   2.845   0.006   4.095
   90        1.243   2.842   0.005   4.090
   91        1.242   2.835   0.004   4.081
   92        1.245   2.847   0.006   4.098
   93        1.245   2.836   0.006   4.087
   94        1.243   2.826   0.005   4.074
   95        1.246   2.841   0.005   4.093
   96        1.244   2.841   0.006   4.090
   97        1.246   2.847   0.006   4.098
   98        1.242   2.842   0.005   4.089
   99        1.245   2.839   0.006   4.090
  100        1.246   2.841   0.005   4.093
  101        1.243   2.826   0.005   4.074
  102        1.245   2.836   0.006   4.087
  103        1.246   2.843   0.005   4.094
  104        1.243   2.842   0.005   4.090
  105        1.244   2.841   0.006   4.090
  106        1.246   2.841   0.005   4.093
  107        1.246   2.841   0.005   4.093
  108        1.245   2.839   0.006   4.090
--------------------------------------------------
tot         129.60  295.87   91.35  516.82
 
magnetization (x)
 
# of ion       s       p       d       tot
------------------------------------------
    1       -0.000   0.000   0.005   0.005
    2       -0.000   0.000   0.011   0.011
    3       -0.000  -0.000   0.002   0.002
    4        0.001   0.001   0.035   0.037
    5       -0.000   0.000   0.013   0.013
    6       -0.000  -0.000   0.014   0.014
    7        0.001   0.001   0.034   0.036
    8       -0.000  -0.000  -0.000  -0.001
    9       -0.000  -0.000   0.016   0.016
   10        0.001   0.000   0.028   0.029
   11       -0.000  -0.000   0.016   0.016
   12       -0.000   0.000   0.011   0.011
   13        0.001   0.000   0.027   0.028
   14       -0.000  -0.000   0.002   0.002
   15       -0.000   0.000   0.013   0.013
   16       -0.000  -0.000   0.014   0.014
   17       -0.000  -0.000  -0.000  -0.001
   18        0.001   0.001   0.034   0.036
   19       -0.000  -0.001  -0.013  -0.015
   20       -0.000   0.000   0.005   0.005
   21       -0.000  -0.001  -0.013  -0.015
   22        0.001   0.001   0.035   0.037
   23       -0.002  -0.001  -1.315  -1.318
   24        0.001   0.001   1.432   1.434
   25        0.001   0.001   1.412   1.414
   26        0.001   0.001   1.432   1.434
   27        0.001   0.001   1.412   1.414
   28        0.001   0.002   0.000   0.003
   29        0.001   0.002   0.001   0.003
   30        0.001   0.002   0.000   0.003
   31        0.001   0.002   0.000   0.003
   32        0.001   0.002   0.001   0.003
   33        0.001   0.002   0.001   0.004
   34        0.001   0.002   0.000   0.003
   35        0.000   0.000   0.000   0.000
   36        0.000   0.001   0.000   0.002
   37        0.001   0.003   0.001   0.006
   38        0.000   0.001   0.000   0.002
   39        0.001   0.002   0.001   0.003
   40       -0.000  -0.000  -0.000  -0.000
   41        0.001   0.002   0.000   0.003
   42        0.001   0.002   0.001   0.003
   43        0.001   0.003   0.001   0.005
   44        0.001   0.002   0.001   0.004
   45        0.000   0.000   0.000   0.000
   46        0.001   0.002   0.000   0.003
   47       -0.000  -0.001  -0.000  -0.002
   48       -0.000  -0.000  -0.000  -0.000
   49        0.001   0.002   0.000   0.003
   50       -0.001  -0.001  -0.000  -0.002
   51       -0.000  -0.001  -0.000  -0.002
   52        0.001   0.002   0.000   0.003
   53       -0.000  -0.000  -0.000  -0.000
   54       -0.001  -0.001  -0.000  -0.002
   55        0.004   0.055   0.000   0.060
   56        0.004   0.041   0.000   0.045
   57        0.000   0.000   0.000   0.001
   58        0.000   0.002   0.000   0.002
   59        0.000   0.000   0.000   0.000
   60        0.000   0.000   0.000   0.000
   61        0.004   0.057   0.000   0.061
   62        0.004   0.040   0.000   0.044
   63       -0.004  -0.044  -0.000  -0.048
   64        0.000   0.002   0.000   0.002
   65        0.005   0.058   0.000   0.063
   66       -0.003  -0.035   0.000  -0.038
   67       -0.000  -0.000   0.000  -0.000
   68        0.009   0.111   0.000   0.120
   69       -0.004  -0.044  -0.000  -0.048
   70        0.000   0.002   0.000   0.002
   71        0.005   0.058   0.000   0.063
   72        0.000   0.000   0.000   0.000
   73        0.000   0.001   0.000   0.001
   74        0.000   0.001   0.000   0.001
   75        0.000   0.000   0.000   0.000
   76        0.005   0.058   0.000   0.063
   77        0.000   0.002   0.000   0.002
   78        0.000   0.000   0.000   0.001
   79       -0.000   0.001   0.000   0.001
   80       -0.000   0.001   0.000   0.001
   81        0.000   0.000   0.000   0.000
   82        0.000   0.000   0.000   0.000
   83        0.000   0.002   0.000   0.002
   84       -0.004  -0.044  -0.000  -0.048
   85        0.000   0.002   0.000   0.002
   86        0.000   0.002   0.000   0.002
   87       -0.003  -0.035   0.000  -0.038
   88        0.005   0.058   0.000   0.063
   89        0.000   0.002   0.000   0.002
   90       -0.004  -0.044  -0.000  -0.048
   91        0.009   0.111   0.000   0.120
   92       -0.000  -0.000   0.000  -0.000
   93        0.000   0.001   0.000   0.001
   94        0.009   0.115   0.000   0.125
   95        0.004   0.041   0.000   0.045
   96        0.000   0.000   0.000   0.001
   97        0.004   0.041   0.000   0.045
   98        0.004   0.055   0.000   0.060
   99        0.000   0.001   0.000   0.001
  100        0.004   0.043   0.000   0.047
  101        0.009   0.115   0.000   0.125
  102        0.000   0.001   0.000   0.001
  103        0.004   0.040   0.000   0.044
  104        0.004   0.057   0.000   0.061
  105        0.000   0.000   0.000   0.001
  106        0.004   0.041   0.000   0.045
  107        0.004   0.043   0.000   0.047
  108        0.000   0.001   0.000   0.001
--------------------------------------------------
tot           0.10    1.05    4.67    5.83
 

 total amount of memory used by VASP MPI-rank0   170981. kBytes
=======================================================================

   base      :      30000. kBytes
   nonlr-proj:      53937. kBytes
   fftplans  :      10383. kBytes
   grid      :      63467. kBytes
   one-center:       1679. kBytes
   wavefun   :      11515. kBytes
 
  
  
 General timing and accounting informations for this job:
 ========================================================
  
                  Total CPU time used (sec):     3717.598
                            User time (sec):     3702.514
                          System time (sec):       15.084
                         Elapsed time (sec):     3732.686
  
                   Maximum memory used (kb):      240156.
                   Average memory used (kb):           0.
  
                          Minor page faults:        42930
                          Major page faults:           53
                 Voluntary context switches:         1410
