 vasp.5.4.4.18Apr17-6-g9f103f2a35 (build May 12 2020 05:39:39) gamma-only       
  
 MD_VERSION_INFO: Compiled 2020-05-12T12:39:39-UTC in devlin.sd.materialsdesign.
 com:/home/medea2/data/build/wwolf/vasp-gpu5.4.4/13047/x86_64/src/src/build/gam 
 from svn 13047
 
 This VASP executable licensed from Materials Design, Inc.
 
 executed on                        Lin64 date 2023.04.04  22:31:21
 running on   16 total cores
 distrk:  each k-point on   16 cores,    1 groups
 distr:  one band on NCORES_PER_BAND=   1 cores,   16 groups


--------------------------------------------------------------------------------------------------------


 INCAR:
 POTCAR:    PAW_PBE Ta_pv 07Sep2000               
 POTCAR:    PAW_PBE Ni 02Aug2007                  
 POTCAR:    PAW_PBE Li_sv 10Sep2004               
 POTCAR:    PAW_PBE O 08Apr2002                   

 ----------------------------------------------------------------------------- 
|                                                                             |
|           W    W    AA    RRRRR   N    N  II  N    N   GGGG   !!!           |
|           W    W   A  A   R    R  NN   N  II  NN   N  G    G  !!!           |
|           W    W  A    A  R    R  N N  N  II  N N  N  G       !!!           |
|           W WW W  AAAAAA  RRRRR   N  N N  II  N  N N  G  GGG   !            |
|           WW  WW  A    A  R   R   N   NN  II  N   NN  G    G                |
|           W    W  A    A  R    R  N    N  II  N    N   GGGG   !!!           |
|                                                                             |
|      For optimal performance we recommend to set                            |
|        NCORE= 4 - approx SQRT( number of cores)                             |
|      NCORE specifies how many cores store one orbital (NPAR=cpu/NCORE).     |
|      This setting can  greatly improve the performance of VASP for DFT.     |
|      The default,   NCORE=1            might be grossly inefficient         |
|      on modern multi-core architectures or massively parallel machines.     |
|      Do your own testing !!!!                                               |
|      Unfortunately you need to use the default for GW and RPA calculations. |
|      (for HF NCORE is supported but not extensively tested yet)             |
|                                                                             |
 ----------------------------------------------------------------------------- 

 POTCAR:    PAW_PBE Ta_pv 07Sep2000               
  local pseudopotential read in
  partial core-charges read in
  partial kinetic energy density read in
  atomic valenz-charges read in
  non local Contribution for L=           1  read in
    real space projection operators read in
  non local Contribution for L=           1  read in
    real space projection operators read in
  non local Contribution for L=           2  read in
    real space projection operators read in
  non local Contribution for L=           2  read in
    real space projection operators read in
  non local Contribution for L=           0  read in
    real space projection operators read in
  non local Contribution for L=           0  read in
    real space projection operators read in
    PAW grid and wavefunctions read in
 
   number of l-projection  operators is LMAX  =           6
   number of lm-projection operators is LMMAX =          18
 
 POTCAR:    PAW_PBE Ni 02Aug2007                  
  local pseudopotential read in
  partial core-charges read in
  partial kinetic energy density read in
  atomic valenz-charges read in
  non local Contribution for L=           2  read in
    real space projection operators read in
  non local Contribution for L=           2  read in
    real space projection operators read in
  non local Contribution for L=           0  read in
    real space projection operators read in
  non local Contribution for L=           0  read in
    real space projection operators read in
  non local Contribution for L=           1  read in
    real space projection operators read in
  non local Contribution for L=           1  read in
    real space projection operators read in
    PAW grid and wavefunctions read in
 
   number of l-projection  operators is LMAX  =           6
   number of lm-projection operators is LMMAX =          18
 
 POTCAR:    PAW_PBE Li_sv 10Sep2004               
  local pseudopotential read in
  atomic valenz-charges read in
  non local Contribution for L=           0  read in
    real space projection operators read in
  non local Contribution for L=           0  read in
    real space projection operators read in
  non local Contribution for L=           1  read in
    real space projection operators read in
    PAW grid and wavefunctions read in
 
   number of l-projection  operators is LMAX  =           3
   number of lm-projection operators is LMMAX =           5
 
 POTCAR:    PAW_PBE O 08Apr2002                   
  local pseudopotential read in
  partial core-charges read in
  partial kinetic energy density read in
  kinetic energy density of atom read in
  atomic valenz-charges read in
  non local Contribution for L=           0  read in
    real space projection operators read in
  non local Contribution for L=           0  read in
    real space projection operators read in
  non local Contribution for L=           1  read in
    real space projection operators read in
  non local Contribution for L=           1  read in
    real space projection operators read in
    PAW grid and wavefunctions read in
 
   number of l-projection  operators is LMAX  =           4
   number of lm-projection operators is LMMAX =           8
 
 Optimization of the real space projectors (new method)

 maximal supplied QI-value         = 15.12
 optimisation between [QCUT,QGAM] = [ 11.34, 22.83] = [ 36.00,145.93] Ry 
 Optimized for a Real-space Cutoff    1.61 Angstroem

   l    n(q)    QCUT    max X(q) W(low)/X(q) W(high)/X(q)  e(spline) 
   1     11    11.338     4.092    0.40E-05    0.64E-05    0.47E-07
   1     11    11.338     4.834    0.13E-04    0.44E-04    0.21E-06
   2     10    11.338    62.294    0.15E-03    0.31E-03    0.77E-06
   2     10    11.338    50.966    0.15E-03    0.31E-03    0.77E-06
   0     11    11.338   103.792    0.33E-04    0.19E-04    0.90E-07
   0     11    11.338    56.335    0.26E-04    0.17E-04    0.79E-07
 Optimization of the real space projectors (new method)

 maximal supplied QI-value         = 16.25
 optimisation between [QCUT,QGAM] = [ 11.38, 22.75] = [ 36.24,144.96] Ry 
 Optimized for a Real-space Cutoff    1.47 Angstroem

   l    n(q)    QCUT    max X(q) W(low)/X(q) W(high)/X(q)  e(spline) 
   2      9    11.376    60.317    0.17E-03    0.16E-04    0.16E-06
   2      9    11.376    55.921    0.17E-03    0.16E-04    0.17E-06
   0     10    11.376    51.690    0.45E-04    0.60E-04    0.21E-06
   0     10    11.376    30.015    0.37E-04    0.55E-04    0.19E-06
   1     10    11.376    18.849    0.83E-04    0.11E-03    0.92E-07
   1     10    11.376    14.624    0.69E-04    0.92E-04    0.82E-07
 Optimization of the real space projectors (new method)

 maximal supplied QI-value         = 22.11
 optimisation between [QCUT,QGAM] = [ 11.28, 22.77] = [ 35.61,145.23] Ry 
 Optimized for a Real-space Cutoff    1.10 Angstroem

   l    n(q)    QCUT    max X(q) W(low)/X(q) W(high)/X(q)  e(spline) 
   0      7    11.276    10.506    0.54E-04    0.58E-04    0.16E-07
   0      7    11.276     8.367    0.11E-03    0.14E-03    0.35E-07
   1      7    11.276     8.983    0.23E-03    0.43E-03    0.86E-07
 Optimization of the real space projectors (new method)

 maximal supplied QI-value         = 24.76
 optimisation between [QCUT,QGAM] = [ 11.39, 22.77] = [ 36.31,145.25] Ry 
 Optimized for a Real-space Cutoff    1.10 Angstroem

   l    n(q)    QCUT    max X(q) W(low)/X(q) W(high)/X(q)  e(spline) 
   0      7    11.387    20.381    0.22E-03    0.48E-03    0.18E-06
   0      7    11.387    15.268    0.22E-03    0.52E-03    0.19E-06
   1      7    11.387     5.964    0.22E-03    0.73E-03    0.24E-06
   1      7    11.387     5.382    0.19E-03    0.60E-03    0.21E-06

 ----------------------------------------------------------------------------- 
|                                                                             |
|  ADVICE TO THIS USER RUNNING 'VASP/VAMP'   (HEAR YOUR MASTER'S VOICE ...):  |
|                                                                             |
|      You enforced a specific xc-type in the INCAR file,                     |
|      a different type was found on the POTCAR file                          |
|          I HOPE YOU KNOW, WHAT YOU ARE  DOING                               |
|                                                                             |
 ----------------------------------------------------------------------------- 

  PAW_PBE Ta_pv 07Sep2000               :
 energy of atom  1       EATOM=-1047.1984
 kinetic energy error for atom=    0.0019 (will be added to EATOM!!)
  PAW_PBE Ni 02Aug2007                  :
 energy of atom  2       EATOM=-1077.6739
 kinetic energy error for atom=    0.0030 (will be added to EATOM!!)
  PAW_PBE Li_sv 10Sep2004               :
 energy of atom  3       EATOM= -202.7858
 kinetic energy error for atom=    0.0143 (will be added to EATOM!!)
  PAW_PBE O 08Apr2002                   :
 energy of atom  4       EATOM= -432.3788
 kinetic energy error for atom=    0.0224 (will be added to EATOM!!)
 
 
 POSCAR: ce111368_1                              
  positions in direct lattice
  No initial velocities read in
 exchange correlation table for  LEXCH =       14
   RHO(1)=    0.500       N(1)  =     2000
   RHO(2)=  100.500       N(2)  =     4000
 


--------------------------------------------------------------------------------------------------------


 ion  position               nearest neighbor table
   1  0.999  0.998  1.000- 108 1.97  57 1.98  72 2.04  60 2.05 105 2.05  93 2.07  30 2.93   7 2.97
                             4 2.99  13 3.00  26 3.00  21 3.01  15 3.01  36 3.01  54 3.02  53 3.06
   2  0.890  0.329  0.221-  77 1.97  71 1.97  59 1.98  56 2.02  80 2.03  74 2.03  22 2.93  16 2.99
                            36 2.99  12 3.00  30 3.06  11 3.10   5 3.10   9 3.10
   3  0.110  0.669  0.112-  79 1.96  94 2.00  61 2.04  55 2.05  64 2.05  58 2.06   6 2.97   8 2.97
                            28 2.97  31 2.97  40 2.99  14 3.00  17 3.01  27 3.01  23 3.01  32 3.07
   4  0.333  0.997  0.001-  96 1.97  63 1.99  60 2.04  66 2.04  93 2.07  99 2.07  30 2.90  48 2.97
                             7 2.97   1 2.99  33 2.99  15 3.00  18 3.00  24 3.01  21 3.01  47 3.06
   5  0.220  0.336  0.251-  83 1.92  86 1.94  65 2.01  80 2.01  62 2.16  59 2.17  19 2.73  16 2.81
                            12 2.86  43 3.06  33 3.07  10 3.10   2 3.10  22 3.20
   6  0.443  0.669  0.111-  85 1.97 100 1.98  61 2.04  67 2.05  64 2.05  70 2.07  34 2.93   3 2.97
                             8 2.99  23 3.00  17 3.00  20 3.01  25 3.01  31 3.01  43 3.02  32 3.06
   7  0.667  0.997  0.999- 102 1.96  69 2.00  72 2.04  66 2.05 105 2.05  99 2.06   1 2.97   4 2.97
                            33 2.97  36 2.97  51 2.99  24 3.00  26 3.01  18 3.01  13 3.01  53 3.07
   8  0.778  0.670  0.110-  73 1.97 106 1.99  67 2.04  55 2.04  70 2.07  58 2.07  34 2.90  37 2.97
                             3 2.97   6 2.99  28 2.99  25 3.00  27 3.00  14 3.01  20 3.01  35 3.06
   9  0.528  0.333  0.556-  92 1.93  89 1.93  74 2.01  95 2.01  98 2.17  77 2.17  19 2.69  22 2.86
                            12 2.86  48 3.06  37 3.06  10 3.10   2 3.10  16 3.27
  10  0.555  0.337  0.890-  98 1.97  62 1.97  68 1.98  65 2.02 101 2.03  95 2.03  12 2.93  16 2.99
                            31 2.99  22 3.00  34 3.06   5 3.10  11 3.10   9 3.10
  11  0.916  0.331  0.860- 104 1.92 107 1.94  56 2.01 101 2.01  71 2.16  68 2.17  19 2.73  16 2.81
                            22 2.86  54 3.06  28 3.07   2 3.10  10 3.10  12 3.20
  12  0.555  0.335  0.220-  89 2.04  68 2.05  86 2.06  71 2.10  65 2.40  74 2.48   5 2.86   9 2.86
                            10 2.93  19 2.95   2 3.00  11 3.20
  13  0.663  0.994  0.340-  90 2.00  78 2.00  75 2.02  72 2.13  57 2.17  69 2.19  39 2.73  45 2.76
                            29 2.83  35 2.84  24 2.87  21 2.87  18 2.97  15 2.98   1 3.00   7 3.01
  14  0.774  0.669  0.452-  97 1.98  82 2.02  76 2.02  73 2.12  79 2.13  58 2.19  49 2.68  37 2.84
                            23 2.87  25 2.87  20 2.97  17 2.98   3 3.00   8 3.01
  15  0.997  0.994  0.340-  84 2.00  78 2.00  81 2.03  60 2.13  57 2.17  63 2.19  39 2.76  42 2.77
                            29 2.83  32 2.84  26 2.87  24 2.87  18 2.98  13 2.98   4 3.00   1 3.01
  16  0.894  0.333  0.556- 104 2.05  83 2.05  98 2.12  77 2.12  80 2.38 101 2.38  11 2.81   5 2.81
                            19 2.97  10 2.99   2 2.99   9 3.27
  17  0.107  0.669  0.452- 103 1.98  88 2.02  82 2.04  79 2.13  85 2.13  64 2.17  52 2.66  40 2.83
                            25 2.87  27 2.87  14 2.98  20 2.98   6 3.00   3 3.01
  18  0.330  0.994  0.340-  90 1.99  84 2.00  87 2.03  66 2.12  63 2.17  69 2.19  45 2.72  42 2.79
                            32 2.83  35 2.83  26 2.87  21 2.87  13 2.97  15 2.98   4 3.00   7 3.01
  19  0.227  0.333  0.556-  86 2.05 107 2.05  92 2.20  89 2.20 104 2.26  83 2.26   9 2.69  11 2.73
                             5 2.73  22 2.95  12 2.95  16 2.97
  20  0.441  0.670  0.451-  91 1.98  76 2.01  88 2.03  85 2.12  73 2.12  70 2.20  46 2.70  43 2.82
                            37 2.82  23 2.87  27 2.87  14 2.97  17 2.98   6 3.01   8 3.01
  21  0.337  0.997  0.660-  90 1.98  75 2.01  87 2.03 108 2.12  96 2.12  93 2.20  45 2.70  54 2.82
                            48 2.82  13 2.87  18 2.87  24 2.97  26 2.98   1 3.01   4 3.01
  22  0.219  0.331  0.891-  92 2.04  59 2.05 107 2.06  62 2.10  56 2.40  95 2.48  11 2.86   9 2.86
                             2 2.93  19 2.95  10 3.00   5 3.20
  23  0.448  0.673  0.771-  91 2.00  97 2.00  76 2.02  61 2.13 100 2.17  94 2.19  49 2.73  46 2.76
                            50 2.83  47 2.84  14 2.87  20 2.87  27 2.97  25 2.98   6 3.00   3 3.01
  24  0.670  0.998  0.659-  78 1.98  81 2.02  75 2.02  96 2.12 102 2.13  99 2.19  39 2.68  48 2.84
                            13 2.87  15 2.87  21 2.97  26 2.98   7 3.00   4 3.01
  25  0.781  0.672  0.771- 103 2.00  97 2.00  82 2.03  67 2.13 100 2.17 106 2.19  49 2.76  52 2.77
                            50 2.83  53 2.84  17 2.87  14 2.87  27 2.98  23 2.98   8 3.00   6 3.01
  26  0.003  0.998  0.659-  84 1.98  87 2.02  81 2.04 102 2.13 108 2.13 105 2.17  42 2.66  51 2.83
                            15 2.87  18 2.87  24 2.98  21 2.98   1 3.00   7 3.01
  27  0.115  0.673  0.771-  91 1.99 103 2.00  88 2.03  55 2.12 106 2.17  94 2.19  46 2.72  52 2.79
                            53 2.83  47 2.83  17 2.87  20 2.87  23 2.97  25 2.98   8 3.00   3 3.01
  28  0.011  0.507  0.982-  94 1.99 106 2.01 107 2.11  58 2.12  71 2.26   3 2.97   8 2.99  11 3.07

  29  0.872  0.836  0.256-  78 1.93  79 2.04  73 2.05  60 2.25  72 2.25  13 2.83  15 2.83   8 3.07
                             3 3.07   1 3.08
  30  0.113  0.157  0.114-  80 1.91  93 2.00  63 2.01  57 2.05   4 2.90   1 2.93   2 3.06
  31  0.337  0.506  0.981-  65 1.95  94 1.96 100 2.06  64 2.17  95 2.22   3 2.97  10 2.99   6 3.01

  32  0.206  0.836  0.256-  84 1.93  85 2.04  79 2.05  66 2.24  60 2.26  18 2.83  15 2.84   6 3.06
                             3 3.07   4 3.07
  33  0.437  0.160  0.129-  69 1.99  63 2.01  86 2.11  99 2.12  62 2.26   7 2.97   4 2.99   5 3.07

  34  0.671  0.509  0.997- 101 1.91  70 2.00 106 2.01 100 2.05   8 2.90   6 2.93  10 3.06
  35  0.539  0.836  0.255-  90 1.93  85 2.04  73 2.05  66 2.24  72 2.25  18 2.83  13 2.84   8 3.06
                             6 3.07   7 3.08
  36  0.762  0.161  0.131-  56 1.95  69 1.96  57 2.06 105 2.17  74 2.22   7 2.97   2 2.99   1 3.01

  37  0.652  0.513  0.355-  76 1.94  89 2.03  70 2.12  58 2.17  77 2.25  20 2.82  14 2.84   8 2.97
                             9 3.06
  38  0.556  0.833  0.556-  97 2.15  78 2.15  91 2.15  90 2.15  73 2.21  96 2.21
  39  0.775  0.142  0.444-  75 1.98  81 1.99  74 2.03  57 2.04  24 2.68  13 2.73  15 2.76
  40  0.989  0.512  0.358-  82 1.93  83 2.02  64 2.16  58 2.18  17 2.83   3 2.99
  41  0.889  0.833  0.556-  97 2.15  78 2.15 103 2.15  84 2.15  79 2.21 102 2.21
  42  0.106  0.143  0.452-  81 1.97  87 1.98  63 2.10 104 2.26  26 2.66  15 2.77  18 2.79
  43  0.330  0.510  0.360-  88 1.93  89 2.09  70 2.14  83 2.22  64 2.26  20 2.82   6 3.02   5 3.06

  44  0.222  0.833  0.556-  91 2.15  90 2.15 103 2.15  84 2.15  85 2.20 108 2.20
  45  0.441  0.142  0.442-  87 1.96  75 2.02  69 2.02  21 2.70  18 2.72  13 2.76
  46  0.328  0.525  0.669-  88 1.96  76 2.02  94 2.02  20 2.70  27 2.72  23 2.76
  47  0.239  0.831  0.856-  91 1.93 108 2.04  96 2.05  55 2.24  61 2.25  27 2.83  23 2.84   4 3.06
                             1 3.07   3 3.08
  48  0.451  0.154  0.757-  75 1.94  92 2.03  93 2.12  99 2.17  98 2.25  21 2.82  24 2.84   4 2.97
                             9 3.06
  49  0.663  0.525  0.667-  76 1.98  82 1.99  95 2.03 100 2.04  14 2.68  23 2.73  25 2.76
  50  0.572  0.830  0.856-  97 1.93 102 2.04  96 2.05  67 2.25  61 2.25  23 2.83  25 2.83   4 3.07
                             7 3.07   6 3.08
  51  0.791  0.155  0.753-  81 1.93 104 2.02 105 2.16  99 2.18  26 2.83   7 2.99
  52  0.003  0.524  0.659-  82 1.97  88 1.98 106 2.10  83 2.26  17 2.66  25 2.77  27 2.79
  53  0.906  0.831  0.855- 103 1.93 108 2.04 102 2.05  55 2.24  67 2.26  27 2.83  25 2.84   1 3.06
                             7 3.07   8 3.07
  54  0.134  0.157  0.751-  87 1.93  92 2.09  93 2.14 104 2.22 105 2.26  21 2.82   1 3.02  11 3.06

  55  0.996  0.748  0.007-   8 2.04   3 2.05  27 2.12  53 2.24  47 2.24
  56  0.954  0.247  0.015-  36 1.95  11 2.01   2 2.02  22 2.40
  57  0.896  0.077  0.208-   1 1.98  39 2.04  30 2.05  36 2.06  15 2.17  13 2.17
  58  0.894  0.587  0.212-   3 2.06   8 2.07  28 2.12  37 2.17  40 2.18  14 2.19
  59  0.103  0.404  0.119-   2 1.98  22 2.05   5 2.17
  60  0.115  0.919  0.103-   4 2.04   1 2.05  15 2.13  29 2.25  32 2.26
  61  0.329  0.748  0.008-   6 2.04   3 2.04  23 2.13  50 2.25  47 2.25
  62  0.342  0.263  0.007-  10 1.97  22 2.10   5 2.16  33 2.26
  63  0.231  0.078  0.208-   4 1.99  33 2.01  30 2.01  42 2.10  18 2.17  15 2.19
  64  0.225  0.589  0.214-   3 2.05   6 2.05  40 2.16  17 2.17  31 2.17  43 2.26
  65  0.414  0.420  0.096-  31 1.95   5 2.01  10 2.02  12 2.40
  66  0.448  0.918  0.104-   4 2.04   7 2.05  18 2.12  32 2.24  35 2.24
  67  0.662  0.748  0.008-   8 2.04   6 2.05  25 2.13  50 2.25  53 2.26
  68  0.667  0.262  0.992-  10 1.98  12 2.05  11 2.17
  69  0.563  0.079  0.208-  36 1.96  33 1.99   7 2.00  45 2.02  13 2.19  18 2.19
  70  0.561  0.587  0.212-  34 2.00   8 2.07   6 2.07  37 2.12  43 2.14  20 2.20
  71  0.793  0.404  0.104-   2 1.97  12 2.10  11 2.16  28 2.26
  72  0.781  0.919  0.103-   1 2.04   7 2.04  13 2.13  29 2.25  35 2.25
  73  0.674  0.746  0.321-   8 1.97  29 2.05  35 2.05  14 2.12  20 2.12  38 2.21
  74  0.683  0.247  0.365-   9 2.01  39 2.03   2 2.03  36 2.22  12 2.48
  75  0.554  0.073  0.557-  48 1.94  39 1.98  21 2.01  45 2.02  24 2.02  13 2.02
  76  0.555  0.594  0.554-  37 1.94  49 1.98  20 2.01  46 2.02  14 2.02  23 2.02
  77  0.775  0.404  0.434-   2 1.97  16 2.12   9 2.17  37 2.25
  78  0.777  0.922  0.445-  29 1.93  24 1.98  13 2.00  15 2.00  38 2.15  41 2.15
  79  0.006  0.747  0.320-   3 1.96  29 2.04  32 2.05  17 2.13  14 2.13  41 2.21
  80  0.030  0.249  0.290-  30 1.91   5 2.01   2 2.03  16 2.38
  81  0.887  0.074  0.555-  51 1.93  42 1.97  39 1.99  24 2.02  15 2.03  26 2.04
  82  0.887  0.593  0.556-  40 1.93  52 1.97  49 1.99  14 2.02  25 2.03  17 2.04
  83  0.101  0.420  0.440-   5 1.92  40 2.02  16 2.05  43 2.22  19 2.26  52 2.26
  84  0.110  0.922  0.445-  32 1.93  26 1.98  18 2.00  15 2.00  41 2.15  44 2.15
  85  0.340  0.747  0.321-   6 1.97  35 2.04  32 2.04  20 2.12  17 2.13  44 2.20
  86  0.335  0.255  0.334-   5 1.94  19 2.05  12 2.06  33 2.11
  87  0.222  0.074  0.556-  54 1.93  45 1.96  42 1.98  26 2.02  21 2.03  18 2.03
  88  0.223  0.593  0.555-  43 1.93  46 1.96  52 1.98  17 2.02  20 2.03  27 2.03
  89  0.462  0.418  0.433-   9 1.93  37 2.03  12 2.04  43 2.09  19 2.20
  90  0.444  0.922  0.445-  35 1.93  21 1.98  18 1.99  13 2.00  44 2.15  38 2.15
  91  0.334  0.745  0.666-  47 1.93  20 1.98  27 1.99  23 2.00  44 2.15  38 2.15
  92  0.339  0.248  0.679-   9 1.93  48 2.03  22 2.04  54 2.09  19 2.20
  93  0.217  0.079  0.899-  30 2.00   4 2.07   1 2.07  48 2.12  54 2.14  21 2.20
  94  0.215  0.588  0.903-  31 1.96  28 1.99   3 2.00  46 2.02  23 2.19  27 2.19
  95  0.492  0.420  0.746-   9 2.01  49 2.03  10 2.03  31 2.22  22 2.48
  96  0.439  0.920  0.791-   4 1.97  50 2.05  47 2.05  24 2.12  21 2.12  38 2.21
  97  0.667  0.744  0.666-  50 1.93  14 1.98  23 2.00  25 2.00  38 2.15  41 2.15
  98  0.654  0.263  0.677-  10 1.97  16 2.12   9 2.17  48 2.25
  99  0.550  0.079  0.899-   7 2.06   4 2.07  33 2.12  48 2.17  51 2.18  24 2.19
 100  0.549  0.590  0.903-   6 1.98  49 2.04  34 2.05  31 2.06  25 2.17  23 2.17
 101  0.765  0.417  0.821-  34 1.91  11 2.01  10 2.03  16 2.38
 102  0.771  0.920  0.791-   7 1.96  50 2.04  53 2.05  26 2.13  24 2.13  41 2.21
 103  0.000  0.744  0.666-  53 1.93  17 1.98  27 2.00  25 2.00  41 2.15  44 2.15
 104  0.986  0.246  0.671-  11 1.92  51 2.02  16 2.05  54 2.22  19 2.26  42 2.26
 105  0.884  0.078  0.897-   7 2.05   1 2.05  51 2.16  26 2.17  36 2.17  54 2.26
 106  0.884  0.589  0.903-   8 1.99  28 2.01  34 2.01  52 2.10  27 2.17  25 2.19
 107  0.114  0.411  0.777-  11 1.94  19 2.05  22 2.06  28 2.11
 108  0.105  0.920  0.790-   1 1.97  47 2.04  53 2.04  21 2.12  26 2.13  44 2.20
 
  LATTYP: Found a base centered monoclinic cell.
 ALAT       =    15.3538019597
 B/A-ratio  =     0.5816180648
 C/A-ratio  =     2.2155788125
 COS(beta)  =    -0.7799326321
  
  Lattice vectors:
  
 A1 = (   4.4650242915,  -0.0043072836,   7.6768997715)
 A2 = (  -4.4650242915,  -0.0043072836,   7.6768997715)
 A3 = (   0.0000000000, -14.6510655485, -30.7008233093)


Analysis of symmetry for initial positions (statically):
=====================================================================
 Subroutine PRICEL returns:
 Original cell was already a primitive cell.
 

 Routine SETGRP: Setting up the symmetry group for a 
 base centered monoclinic supercell.


 Subroutine GETGRP returns: Found  2 space group operations
 (whereof  1 operations were pure point group operations)
 out of a pool of  4 trial point group operations.


The static configuration has the point symmetry C_1 .
 The point group associated with its full space group is C_2 .


Analysis of symmetry for dynamics (positions and initial velocities):
=====================================================================
 Subroutine PRICEL returns:
 Original cell was already a primitive cell.
 

 Routine SETGRP: Setting up the symmetry group for a 
 base centered monoclinic supercell.


 Subroutine GETGRP returns: Found  2 space group operations
 (whereof  1 operations were pure point group operations)
 out of a pool of  4 trial point group operations.


The dynamic configuration has the point symmetry C_1 .
 The point group associated with its full space group is C_2 .


Analysis of structural, dynamic, and magnetic symmetry:
=====================================================================
 Subroutine PRICEL returns:
 Original cell was already a primitive cell.
 

 Routine SETGRP: Setting up the symmetry group for a 
 base centered monoclinic supercell.


 Subroutine GETGRP returns: Found  2 space group operations
 (whereof  1 operations were pure point group operations)
 out of a pool of  4 trial point group operations.


The magnetic configuration has the point symmetry C_1 .
 The point group associated with its full space group is C_2 .


 Subroutine INISYM returns: Found  2 space group operations
 (whereof  1 operations are pure point group operations),
 and found     1 'primitive' translations

 
 
 KPOINTS: Automatic mesh                          

Automatic generation of k-mesh.
Space group operators:
 irot       det(A)        alpha          n_x          n_y          n_z        tau_x        tau_y        tau_z
    1     1.000000     0.000001     1.000000     0.000000     0.000000     0.000000     0.000000     0.000000
    2     1.000000   180.000000     1.000000     0.000000     0.000000     0.444444    -0.333333    -0.888889
 
 Subroutine IBZKPT returns following result:
 ===========================================
 
 Found      1 irreducible k-points:
 
 Following reciprocal coordinates:
            Coordinates               Weight
  0.000000  0.000000  0.000000      1.000000
 
 Following cartesian coordinates:
            Coordinates               Weight
  0.000000  0.000000  0.000000      1.000000
 


--------------------------------------------------------------------------------------------------------




 Dimension of arrays:
   k-points           NKPTS =      1   k-points in BZ     NKDIM =      1   number of bands    NBANDS=    432
   number of dos      NEDOS =    301   number of ions     NIONS =    108
   non local maximal  LDIM  =      6   non local SUM 2l+1 LMDIM =     18
   total plane-waves  NPLWV = 529200
   max r-space proj   IRMAX =   9268   max aug-charges    IRDMAX=  29761
   dimension x,y,z NGX =    70 NGY =  108 NGZ =   70
   dimension x,y,z NGXF=   140 NGYF=  216 NGZF=  140
   support grid    NGXF=   140 NGYF=  216 NGZF=  140
   ions per type =              11  16  27  54
   NGX,Y,Z   is equivalent  to a cutoff of  13.03, 12.24, 13.10 a.u.
   NGXF,Y,Z  is equivalent  to a cutoff of  26.06, 24.48, 26.21 a.u.

 SYSTEM =  unknown system                          
 POSCAR =  ce111368_1                              

 Startparameter for this run:
   NWRITE =      1    write-flag & timer
   PREC   = accura    normal or accurate (medium, high low for compatibility)
   ISTART =      0    job   : 0-new  1-cont  2-samecut
   ICHARG =      2    charge: 1-file 2-atom 10-const
   ISPIN  =      2    spin polarized calculation?
   LNONCOLLINEAR =      F non collinear calculations
   LSORBIT =      F    spin-orbit coupling
   INIWAV =      1    electr: 0-lowe 1-rand  2-diag
   LASPH  =      F    aspherical Exc in radial PAW
   METAGGA=      F    non-selfconsistent MetaGGA calc.

 Electronic Relaxation 1
   ENCUT  =  500.0 eV  36.75 Ry    6.06 a.u.  16.28 26.74 16.19*2*pi/ulx,y,z
   ENINI  =  500.0     initial cutoff
   ENAUG  =  628.9 eV  augmentation charge cutoff
   NELM   =     80;   NELMIN=  2; NELMDL= -5     # of ELM steps 
   EDIFF  = 0.1E-04   stopping-criterion for ELM
   LREAL  =      T    real-space projection
   NLSPLINE    = F    spline interpolate recip. space projectors
   LCOMPAT=      F    compatible to vasp.4.4
   GGA_COMPAT  = T    GGA compatible to vasp.4.4-vasp.4.6
   LMAXPAW     = -100 max onsite density
   LMAXMIX     =    2 max onsite mixed and CHGCAR
   VOSKOWN=      1    Vosko Wilk Nusair interpolation
   ROPT   =   -0.00025  -0.00025  -0.00025  -0.00025
 Ionic relaxation
   EDIFFG = -.2E-01   stopping-criterion for IOM
   NSW    =     20    number of steps for IOM
   NBLOCK =      1;   KBLOCK =     20    inner block; outer block 
   IBRION =      1    ionic relax: 0-MD 1-quasi-New 2-CG
   NFREE  =      0    steps in history (QN), initial steepest desc. (CG)
   ISIF   =      3    stress and relaxation
   IWAVPR =     11    prediction:  0-non 1-charg 2-wave 3-comb
   ISYM   =      2    0-nonsym 1-usesym 2-fastsym
   LCORR  =      T    Harris-Foulkes like correction to forces

   POTIM  = 0.5000    time-step for ionic-motion
   TEIN   =    0.0    initial temperature
   TEBEG  =    0.0;   TEEND  =   0.0 temperature during run
   SMASS  =  -3.00    Nose mass-parameter (am)
   estimated Nose-frequenzy (Omega)   =  0.10E-29 period in steps =****** mass=  -0.182E-26a.u.
   SCALEE = 1.0000    scale energy and forces
   NPACO  =    256;   APACO  = 16.0  distance and # of slots for P.C.
   PSTRESS=    0.0 pullay stress

  Mass of Ions in am
   POMASS = 180.95 58.69  7.01 16.00
  Ionic Valenz
   ZVAL   =  11.00 10.00  3.00  6.00
  Atomic Wigner-Seitz radii
   RWIGS  =   1.34  1.15  1.23  0.73
  virtual crystal weights 
   VCA    =   1.00  1.00  1.00  1.00
   NELECT =     686.0000    total number of electrons
   NUPDOWN=      -1.0000    fix difference up-down

 DOS related values:
   EMIN   =  10.00;   EMAX   =-10.00  energy-range for DOS
   EFERMI =   0.00
   ISMEAR =     0;   SIGMA  =   0.05  broadening in eV -4-tet -1-fermi 0-gaus

 Electronic relaxation 2 (details)
   IALGO  =     38    algorithm
   LDIAG  =      T    sub-space diagonalisation (order eigenvalues)
   LSUBROT=      F    optimize rotation matrix (better conditioning)
   TURBO    =      0    0=normal 1=particle mesh
   IRESTART =      0    0=no restart 2=restart with 2 vectors
   NREBOOT  =      0    no. of reboots
   NMIN     =      0    reboot dimension
   EREF     =   0.00    reference energy to select bands
   IMIX   =      4    mixing-type and parameters
     AMIX     =   0.40;   BMIX     =  1.00
     AMIX_MAG =   1.60;   BMIX_MAG =  1.00
     AMIN     =   0.10
     WC   =   100.;   INIMIX=   1;  MIXPRE=   1;  MAXMIX= -45

 Intra band minimization:
   WEIMIN = 0.0010     energy-eigenvalue tresh-hold
   EBREAK =  0.58E-08  absolut break condition
   DEPER  =   0.30     relativ break condition  

   TIME   =   0.40     timestep for ELM

  volume/ion in A,a.u.               =       9.31        62.83
  Fermi-wavevector in a.u.,A,eV,Ry     =   1.441152  2.723382 28.258201  2.076919
  Thomas-Fermi vector in A             =   2.559816
 
 Write flags
   LWAVE        =      F    write WAVECAR
   LDOWNSAMPLE  =      F    k-point downsampling of WAVECAR
   LCHARG       =      T    write CHGCAR
   LVTOT        =      F    write LOCPOT, total local potential
   LVHAR        =      F    write LOCPOT, Hartree potential only
   LELF         =      F    write electronic localiz. function (ELF)
   LORBIT       =      0    0 simple, 1 ext, 2 COOP (PROOUT), +10 PAW based schemes


 Dipole corrections
   LMONO  =      F    monopole corrections only (constant potential shift)
   LDIPOL =      F    correct potential (dipole corrections)
   IDIPOL =      0    1-x, 2-y, 3-z, 4-all directions 
   EPSILON=  1.0000000 bulk dielectric constant

 Exchange correlation treatment:
   GGA     =    PS    GGA type
   LEXCH   =    14    internal setting for exchange type
   VOSKOWN=      1    Vosko Wilk Nusair interpolation
   LHFCALC =     F    Hartree Fock is set to
   LHFONE  =     F    Hartree Fock one center treatment
   AEXX    =    0.0000 exact exchange contribution

 Linear response parameters
   LEPSILON=     F    determine dielectric tensor
   LRPA    =     F    only Hartree local field effects (RPA)
   LNABLA  =     F    use nabla operator in PAW spheres
   LVEL    =     F    velocity operator in full k-point grid
   LINTERFAST=   F  fast interpolation
   KINTER  =     0    interpolate to denser k-point grid
   CSHIFT  =0.1000    complex shift for real part using Kramers Kronig
   OMEGAMAX=  -1.0    maximum frequency
   DEG_THRESHOLD= 0.2000000E-02 threshold for treating states as degnerate
   RTIME   =   -0.100 relaxation time in fs
  (WPLASMAI=    0.000 imaginary part of plasma frequency in eV, 0.658/RTIME)
   DFIELD  = 0.0000000 0.0000000 0.0000000 field for delta impulse in time
 
 Orbital magnetization related:
   ORBITALMAG=     F  switch on orbital magnetization
   LCHIMAG   =     F  perturbation theory with respect to B field
   DQ        =  0.001000  dq finite difference perturbation B field
   LLRAUG    =     F  two centre corrections for induced B field



--------------------------------------------------------------------------------------------------------


 quasi-Newton-method for relaxation of ions
 charge density and potential will be updated during run
 spin polarized calculation
 Variant of blocked Davidson
 Davidson routine will perform the subspace rotation
 perform sub-space diagonalisation
    after iterative eigenvector-optimisation
 modified Broyden-mixing scheme, WC =      100.0
 initial mixing is a Kerker type mixing with AMIX =  0.4000 and BMIX =      1.0000
 Hartree-type preconditioning will be used
 using additional bands           89
 real space projection scheme for non local part
 use partial core corrections
 calculate Harris-corrections to forces 
   (improved forces if not selfconsistent)
 use gradient corrections 
 use of overlap-Matrix (Vanderbilt PP)
 Gauss-broadening in eV      SIGMA  =   0.05


--------------------------------------------------------------------------------------------------------


  energy-cutoff  :      500.00
  volume of cell :     1005.59
      direct lattice vectors                 reciprocal lattice vectors
     8.930048583  0.000000000  0.000000000     0.111981474 -0.000030086 -0.065130475
     0.000000000 14.668294683 -0.006775777     0.000000000  0.068174268  0.000038251
     4.465024291 -0.004307284  7.676899771     0.000000000  0.000060172  0.130260950

  length of vectors
     8.930048583 14.668296248  8.880948743     0.129544703  0.068174279  0.130260964


 
 k-points in units of 2pi/SCALE and weight: Automatic mesh                          
   0.00000000  0.00000000  0.00000000       1.000
 
 k-points in reciprocal lattice and weights: Automatic mesh                          
   0.00000000  0.00000000  0.00000000       1.000
 
 position of ions in fractional coordinates (direct lattice) 
   0.99887494  0.99779970  0.99980410
   0.88973119  0.32935486  0.22106026
   0.11036466  0.66934407  0.11175609
   0.33289321  0.99684919  0.00094634
   0.22029033  0.33578351  0.25132945
   0.44312349  0.66886697  0.11130701
   0.66656520  0.99732260  0.99935502
   0.77828400  0.66981748  0.11016477
   0.52766549  0.33333333  0.55555556
   0.55523589  0.33731180  0.89005085
   0.91606423  0.33088315  0.85978166
   0.55485181  0.33532991  0.22010219
   0.66301206  0.99416073  0.34022884
   0.77371513  0.66874981  0.45165289
   0.99678288  0.99440512  0.33977989
   0.89373582  0.33333333  0.55555556
   0.10695068  0.66906403  0.45186608
   0.32998674  0.99385918  0.34007979
   0.22662018  0.33333333  0.55555556
   0.44093708  0.66968504  0.45137377
   0.33675530  0.99698163  0.65973734
   0.21939844  0.33133675  0.89100892
   0.44768534  0.67250594  0.77088227
   0.66981247  0.99791686  0.65945822
   0.78100722  0.67226155  0.77133122
   0.00326120  0.99760264  0.65924503
   0.11451097  0.67280749  0.77103132
   0.01083378  0.50658451  0.98199859
   0.87215986  0.83625191  0.25551791
   0.11317132  0.15739276  0.11376540
   0.33719091  0.50567798  0.98054893
   0.20577867  0.83577039  0.25580341
   0.43727682  0.16008216  0.12911252
   0.67138116  0.50927391  0.99734571
   0.53878354  0.83563089  0.25533424
   0.76218430  0.16098869  0.13056218
   0.65227524  0.51286134  0.35454177
   0.55577351  0.83333333  0.55555556
   0.77478600  0.14156578  0.44402253
   0.98917384  0.51152594  0.35761717
   0.88859563  0.83333333  0.55555556
   0.10625145  0.14289188  0.45239539
   0.32967687  0.50992470  0.36030542
   0.22222517  0.83333333  0.55555556
   0.44118785  0.14150527  0.44236519
   0.32799748  0.52516140  0.66874592
   0.23856221  0.83103577  0.85577687
   0.45126145  0.15380533  0.75656934
   0.66325297  0.52510089  0.66708858
   0.57212221  0.83041475  0.85559320
   0.79123546  0.15514073  0.75349394
   0.00309127  0.52377479  0.65871572
   0.90602652  0.83089627  0.85530770
   0.13442673  0.15674197  0.75080569
   0.99633106  0.74824837  0.00714992
   0.95406321  0.24658580  0.01513221
   0.89612821  0.07689886  0.20819635
   0.89370914  0.58726161  0.21197093
   0.10325144  0.40427760  0.11939443
   0.11485586  0.91882463  0.10302423
   0.32904121  0.74781765  0.00782073
   0.34209015  0.26311455  0.00668854
   0.23081467  0.07792773  0.20830523
   0.22495814  0.58890131  0.21432659
   0.41363987  0.42008087  0.09597890
   0.44792543  0.91841830  0.10396119
   0.66232453  0.74784204  0.00808688
   0.66709032  0.26238907  0.99171668
   0.56294802  0.07894896  0.20790375
   0.56108151  0.58726214  0.21186271
   0.79322314  0.40355212  0.10442257
   0.78130639  0.91884902  0.10329038
   0.67353748  0.74647791  0.32056981
   0.68330141  0.24661847  0.36464038
   0.55359050  0.07311402  0.55669946
   0.55473440  0.59355264  0.55441166
   0.77544745  0.40382092  0.43405154
   0.77714239  0.92233066  0.44547782
   0.00591468  0.74667727  0.32048765
   0.03011952  0.24925568  0.29047478
   0.88743178  0.07411199  0.55532337
   0.88719959  0.59255467  0.55578775
   0.10129068  0.42028427  0.43998537
   0.11034135  0.92220718  0.44537275
   0.33964700  0.74677439  0.32122104
   0.33533951  0.25530026  0.33446462
   0.22202851  0.07355611  0.55604432
   0.22251727  0.59311055  0.55506680
   0.46199027  0.41818285  0.43251291
   0.44407123  0.92201004  0.44516769
   0.33368337  0.74465663  0.66594342
   0.33894762  0.24848382  0.67859820
   0.21738866  0.07940452  0.89924840
   0.21529620  0.58771770  0.90320736
   0.49238623  0.42004820  0.74647073
   0.43855173  0.92018876  0.79054130
   0.66706465  0.74433601  0.66563329
   0.65394343  0.26284575  0.67705957
   0.55012452  0.07940505  0.89914018
   0.54876900  0.58976780  0.90291476
   0.76503874  0.41741099  0.82063633
   0.77084678  0.91998940  0.79062346
   0.00015854  0.74445949  0.66573836
   0.98572049  0.24638240  0.67112574
   0.88372918  0.07776535  0.89678452
   0.88356435  0.58873893  0.90280588
   0.11424857  0.41136641  0.77664649
   0.10531248  0.91989228  0.78989007
 
 position of ions in cartesian coordinates  (Angst):
  13.38415134 14.63171359  7.66863500
   8.93238218  4.83012197  1.69482582
   1.48455543  9.81765470  0.85340498
   2.97697797 14.62207360  0.00051053
   3.08939545  4.92428893  1.92715580
   4.45410280  9.81065839  0.84996067
  10.41460406 14.62471729  7.66519069
   7.44200231  9.82460567  0.84118536
   7.19264753  4.88703858  4.26268576
   8.93238214  4.94395518  6.83054562
  12.01944408  4.84978823  6.59821564
   5.93761524  4.91776989  1.68743033
   7.43985994 14.58117709  2.60516649
   8.92595483  9.80747389  3.46276267
  10.41844501 14.58476381  2.60171829
  10.46167336  4.88703858  4.26268576
   2.97266779  9.81208204  3.46439718
   4.46526214 14.57675451  2.60402429
   4.50429829  4.88703858  4.26268576
   5.95298439  9.82119332  3.46061356
   5.95298444 14.62117867  5.05798211
   5.93761520  4.85630726  6.83794111
   7.43985990  9.86119490  5.91342917
   8.92595487 14.63489810  5.05583300
  10.41844505  9.85760818  5.91687737
   2.97266775 14.63028994  5.05419849
   4.46526210  9.86561748  5.91457137
   4.48139374  7.42650113  7.53527225
   8.92932360 12.26528886  1.95591913
   1.51859066  2.30819336  0.87229912
   7.38930600  7.41321012  7.52414950
   2.97978196 12.25822455  1.95811415
   4.48139378  2.34757617  0.99009919
  10.44863920  7.46588394  7.65307233
   5.95143677 12.25618034  1.95451332
   7.38930613  2.36086718  1.00122195
   7.40788720  7.52127415  2.71830660
   7.44365352 12.22118592  4.25929787
   8.90144800  2.07461605  3.40775724
  10.43013980  7.50167287  2.74192519
  10.41577122 12.22118592  4.25929787
   2.96878702  2.09403161  3.47202586
   4.55280292  7.47817383  2.76257346
   4.46505064 12.22118592  4.25929787
   5.91500025  2.07373561  3.39503442
   5.91500021  7.70034169  5.13033702
   5.95143664 12.18619149  6.56408234
   7.40788715  2.25280315  5.80706484
   8.90144796  7.69946125  5.11761420
   8.92932355 12.17708298  6.56267654
  10.43013984  2.27240443  5.78344626
   2.96878688  7.68004569  5.05334558
  11.90983050 12.18414729  6.56048152
   4.55280287  2.29590347  5.76279798
   8.92920934 10.97549679  0.04981926
   8.58739650  3.61692800  0.11449765
   8.93207021  1.12707838  1.59778146
   8.92732139  8.61321333  1.62330043
   1.45513941  5.92954870  0.91383978
   1.48567410 13.47714668  0.78468094
   2.97327374 10.96917597  0.05497191
   3.08474615  3.85941295  0.04956445
   2.99127413  1.14216968  1.59861035
   2.96586055  8.63725479  1.64137349
   4.12237225  6.16145658  0.73397402
   4.46418509 13.47118248  0.79187664
   5.95069835 10.96953259  0.05701496
  10.38518803  3.84452860  7.61153166
   5.95544846  1.15715111  1.59552131
   5.95645729  8.61322157  1.62246963
   7.54977049  5.91897164  0.79890722
   7.43829808 13.47750329  0.78672398
   7.44607441 10.94817717  2.45592433
   7.73004294  3.61590178  2.79763662
   7.42926667  1.07006013  4.27323055
   7.42926667  8.70401703  4.25214097
   8.86283407  5.92149467  3.32943397
   8.92898859 13.52709912  3.41363907
   1.48380352 10.95110180  2.45529225
   1.56594573  3.65490461  2.22825687
  10.40434125  1.08470457  4.26265969
  10.40434125  8.68937258  4.26271183
   2.86907606  6.16295838  3.37487583
   2.97395376 13.52528833  3.41283329
   4.46732396 10.95252322  2.46092175
   4.48799077  3.74337881  2.56592151
   4.46547678  1.07654766  4.26819811
   4.46547678  8.69752950  4.25717341
   6.05677621  6.13216632  3.31752475
   5.95326221 13.52239750  3.41126040
   5.95326225 10.91997448  5.10733526
   6.05677616  3.64191098  5.20784670
   5.95645725  1.16085558  6.90290181
   5.95544833  8.61692604  6.92985013
   7.73004290  6.15817552  5.72773482
   7.44607436 13.49419481  6.06267133
   8.92898854 10.91527287  5.10495660
   8.86283403  3.85258263  5.19593747
   8.92732144  1.16086382  6.90207101
   8.93207017  8.64699877  6.92758998
  10.49599426  6.11917269  6.29711457
  10.41385215 13.49127018  6.06330342
   2.97395372 10.91708365  5.10576237
  11.79912460  3.61111892  5.15049561
  11.89590918  1.13682236  6.88399796
  11.92132276  8.63190748  6.92676109
   4.48799072  6.03069849  5.95944993
   4.46732391 13.48984876  6.05767391
 


--------------------------------------------------------------------------------------------------------


 use serial FFT for orbitals x direction half grid
 k-point  1 :   0.0000 0.0000 0.0000  plane waves:   12754

 maximum and minimum number of plane-waves per node :     12754    12754

 maximum number of plane-waves:     12754
 maximum index in each direction: 
   IXMAX=   16   IYMAX=   26   IZMAX=   16
   IXMIN=    0   IYMIN=  -26   IZMIN=  -13

 The following grids will avoid any aliasing or wrap around errors in the Hartre
 e energy
  - symmetry arguments have not been applied
  - exchange correlation energies might require even more grid points
  - we recommend to set PREC=Normal or Accurate and rely on VASP defaults
 NGX is ok and might be reduce to    70
 NGY is ok and might be reduce to   108
 NGZ is ok and might be reduce to    60

 serial   3D FFT for wavefunctions
 parallel 3D FFT for charge:
    minimum data exchange during FFTs selected (reduces bandwidth)


 total amount of memory used by VASP MPI-rank0   170629. kBytes
=======================================================================

   base      :      30000. kBytes
   nonlr-proj:      47057. kBytes
   fftplans  :      11390. kBytes
   grid      :      69016. kBytes
   one-center:       1679. kBytes
   wavefun   :      11487. kBytes
 
     INWAV:  cpu time    0.0000: real time    0.0000
 Broyden mixing: mesh for mixing (old mesh)
   NGX = 33   NGY = 53   NGZ = 33
  (NGX  =140   NGY  =216   NGZ  =140)
  gives a total of  57717 points

 initial charge density was supplied:
 charge density of overlapping atoms calculated
 number of electron     686.0000000 magnetization      40.0000000
 keeping initial charge density in first step


--------------------------------------------------------------------------------------------------------


 Maximum index for non-local projection operator         8978
 Maximum index for augmentation-charges         2131 (set IRDMAX)


--------------------------------------------------------------------------------------------------------


 First call to EWALD:  gamma=   0.177
 Maximum number of real-space cells 3x 2x 3
 Maximum number of reciprocal cells 3x 4x 2

    FEWALD:  cpu time    0.0049: real time    0.0049


--------------------------------------- Iteration      1(   1)  ---------------------------------------


    POTLOK:  cpu time    0.3805: real time    0.4161
    SETDIJ:  cpu time    0.0428: real time    0.0429
     EDDAV:  cpu time    7.2349: real time    7.2521
    --------------------------------------------
      LOOP:  cpu time    7.6588: real time    7.7118

 eigenvalue-minimisations  :  1728
 total energy-change (2. order) : 0.1178431E+05  (-0.3381774E+05)
 number of electron     686.0000000 magnetization      40.0000000
 augmentation part      686.0000000 magnetization      40.0000000

 Free energy of the ion-electron system (eV)
  ---------------------------------------------------
  alpha Z        PSCENC =      3115.07269218
  Ewald energy   TEWEN  =    -43524.28792509
  -Hartree energ DENC   =    -14255.57942294
  -exchange      EXHF   =         0.00000000
  -V(xc)+E(xc)   XCENC  =      2658.29897078
  PAW double counting   =     45258.12025722   -46638.21709681
  entropy T*S    EENTRO =        -0.00766258
  eigenvalues    EBANDS =      7728.84083680
  atomic energy  EATOM  =     57442.07416303
  Solvation  Ediel_sol  =         0.00000000
  ---------------------------------------------------
  free energy    TOTEN  =     11784.31481258 eV

  energy without entropy =    11784.32247516  energy(sigma->0) =    11784.31864387


--------------------------------------------------------------------------------------------------------




--------------------------------------- Iteration      1(   2)  ---------------------------------------


     EDDAV:  cpu time    7.3233: real time    7.3406
    --------------------------------------------
      LOOP:  cpu time    7.3231: real time    7.3404

 eigenvalue-minimisations  :  1808
 total energy-change (2. order) :-0.1014163E+05  (-0.9565358E+04)
 number of electron     686.0000000 magnetization      40.0000000
 augmentation part      686.0000000 magnetization      40.0000000

 Free energy of the ion-electron system (eV)
  ---------------------------------------------------
  alpha Z        PSCENC =      3115.07269218
  Ewald energy   TEWEN  =    -43524.28792509
  -Hartree energ DENC   =    -14255.57942294
  -exchange      EXHF   =         0.00000000
  -V(xc)+E(xc)   XCENC  =      2658.29897078
  PAW double counting   =     45258.12025722   -46638.21709681
  entropy T*S    EENTRO =        -0.02674777
  eigenvalues    EBANDS =     -2412.77254326
  atomic energy  EATOM  =     57442.07416303
  Solvation  Ediel_sol  =         0.00000000
  ---------------------------------------------------
  free energy    TOTEN  =      1642.68234734 eV

  energy without entropy =     1642.70909511  energy(sigma->0) =     1642.69572122


--------------------------------------------------------------------------------------------------------




--------------------------------------- Iteration      1(   3)  ---------------------------------------


     EDDAV:  cpu time    7.8760: real time    7.8947
    --------------------------------------------
      LOOP:  cpu time    7.8760: real time    7.8947

 eigenvalue-minimisations  :  1968
 total energy-change (2. order) :-0.2206357E+04  (-0.1952495E+04)
 number of electron     686.0000000 magnetization      40.0000000
 augmentation part      686.0000000 magnetization      40.0000000

 Free energy of the ion-electron system (eV)
  ---------------------------------------------------
  alpha Z        PSCENC =      3115.07269218
  Ewald energy   TEWEN  =    -43524.28792509
  -Hartree energ DENC   =    -14255.57942294
  -exchange      EXHF   =         0.00000000
  -V(xc)+E(xc)   XCENC  =      2658.29897078
  PAW double counting   =     45258.12025722   -46638.21709681
  entropy T*S    EENTRO =        -0.04854516
  eigenvalues    EBANDS =     -4619.10728411
  atomic energy  EATOM  =     57442.07416303
  Solvation  Ediel_sol  =         0.00000000
  ---------------------------------------------------
  free energy    TOTEN  =      -563.67419090 eV

  energy without entropy =     -563.62564574  energy(sigma->0) =     -563.64991832


--------------------------------------------------------------------------------------------------------




--------------------------------------- Iteration      1(   4)  ---------------------------------------


     EDDAV:  cpu time    8.5054: real time    8.5255
    --------------------------------------------
      LOOP:  cpu time    8.5054: real time    8.5255

 eigenvalue-minimisations  :  2176
 total energy-change (2. order) :-0.3248531E+03  (-0.3131557E+03)
 number of electron     686.0000000 magnetization      40.0000000
 augmentation part      686.0000000 magnetization      40.0000000

 Free energy of the ion-electron system (eV)
  ---------------------------------------------------
  alpha Z        PSCENC =      3115.07269218
  Ewald energy   TEWEN  =    -43524.28792509
  -Hartree energ DENC   =    -14255.57942294
  -exchange      EXHF   =         0.00000000
  -V(xc)+E(xc)   XCENC  =      2658.29897078
  PAW double counting   =     45258.12025722   -46638.21709681
  entropy T*S    EENTRO =        -0.03287832
  eigenvalues    EBANDS =     -4943.97606592
  atomic energy  EATOM  =     57442.07416303
  Solvation  Ediel_sol  =         0.00000000
  ---------------------------------------------------
  free energy    TOTEN  =      -888.52730587 eV

  energy without entropy =     -888.49442755  energy(sigma->0) =     -888.51086671


--------------------------------------------------------------------------------------------------------




--------------------------------------- Iteration      1(   5)  ---------------------------------------


     EDDAV:  cpu time   11.3317: real time   11.3586
    CHARGE:  cpu time    0.5849: real time    0.5863
    MIXING:  cpu time    0.0064: real time    0.0064
    --------------------------------------------
      LOOP:  cpu time   11.9227: real time   11.9510

 eigenvalue-minimisations  :  3072
 total energy-change (2. order) :-0.2727759E+02  (-0.2691374E+02)
 number of electron     685.9999925 magnetization      38.0796547
 augmentation part      190.4057154 magnetization      32.4472508

 Broyden mixing:
  rms(total) = 0.13066E+02    rms(broyden)= 0.13064E+02
  rms(prec ) = 0.14045E+02
  weight for this iteration     100.00

 Free energy of the ion-electron system (eV)
  ---------------------------------------------------
  alpha Z        PSCENC =      3115.07269218
  Ewald energy   TEWEN  =    -43524.28792509
  -Hartree energ DENC   =    -14255.57942294
  -exchange      EXHF   =         0.00000000
  -V(xc)+E(xc)   XCENC  =      2658.29897078
  PAW double counting   =     45258.12025722   -46638.21709681
  entropy T*S    EENTRO =        -0.05257930
  eigenvalues    EBANDS =     -4971.23395773
  atomic energy  EATOM  =     57442.07416303
  Solvation  Ediel_sol  =         0.00000000
  ---------------------------------------------------
  free energy    TOTEN  =      -915.80489867 eV

  energy without entropy =     -915.75231937  energy(sigma->0) =     -915.77860902


--------------------------------------------------------------------------------------------------------




--------------------------------------- Iteration      1(   6)  ---------------------------------------


    POTLOK:  cpu time    0.3561: real time    0.3569
    SETDIJ:  cpu time    0.0445: real time    0.0447
     EDDAV:  cpu time    9.5535: real time    9.5762
    CHARGE:  cpu time    0.5864: real time    0.5879
    MIXING:  cpu time    0.0069: real time    0.0070
    --------------------------------------------
      LOOP:  cpu time   10.5475: real time   10.5725

 eigenvalue-minimisations  :  2496
 total energy-change (2. order) : 0.5430987E+02  (-0.1230917E+03)
 number of electron     685.9999937 magnetization      35.9100738
 augmentation part      213.6211641 magnetization      26.1038059

 Broyden mixing:
  rms(total) = 0.14447E+02    rms(broyden)= 0.14446E+02
  rms(prec ) = 0.15114E+02
  weight for this iteration     100.00

 eigenvalues of (default mixing * dielectric matrix)
  average eigenvalue GAMMA=   0.3405
  0.3405

 Free energy of the ion-electron system (eV)
  ---------------------------------------------------
  alpha Z        PSCENC =      3115.07269218
  Ewald energy   TEWEN  =    -43524.28792509
  -Hartree energ DENC   =    -14114.81054282
  -exchange      EXHF   =         0.00000000
  -V(xc)+E(xc)   XCENC  =      2686.22991372
  PAW double counting   =     55619.93683907   -56879.79398931
  entropy T*S    EENTRO =        -0.04285957
  eigenvalues    EBANDS =     -5205.87331516
  atomic energy  EATOM  =     57442.07416303
  Solvation  Ediel_sol  =         0.00000000
  ---------------------------------------------------
  free energy    TOTEN  =      -861.49502394 eV

  energy without entropy =     -861.45216437  energy(sigma->0) =     -861.47359415


--------------------------------------------------------------------------------------------------------




--------------------------------------- Iteration      1(   7)  ---------------------------------------


    POTLOK:  cpu time    0.3562: real time    0.3570
    SETDIJ:  cpu time    0.0456: real time    0.0457
     EDDAV:  cpu time    9.3858: real time    9.4080
    CHARGE:  cpu time    0.5911: real time    0.5925
    MIXING:  cpu time    0.0074: real time    0.0074
    --------------------------------------------
      LOOP:  cpu time   10.3861: real time   10.4107

 eigenvalue-minimisations  :  2432
 total energy-change (2. order) : 0.9071412E+02  (-0.2825670E+02)
 number of electron     685.9999932 magnetization      33.2794593
 augmentation part      199.3235874 magnetization      25.1379353

 Broyden mixing:
  rms(total) = 0.52783E+01    rms(broyden)= 0.52777E+01
  rms(prec ) = 0.54845E+01
  weight for this iteration     100.00

 eigenvalues of (default mixing * dielectric matrix)
  average eigenvalue GAMMA=   0.7352
  1.0263  0.4441

 Free energy of the ion-electron system (eV)
  ---------------------------------------------------
  alpha Z        PSCENC =      3115.07269218
  Ewald energy   TEWEN  =    -43524.28792509
  -Hartree energ DENC   =    -14328.42941010
  -exchange      EXHF   =         0.00000000
  -V(xc)+E(xc)   XCENC  =      2680.94115903
  PAW double counting   =     59867.79217954   -61276.16964280
  entropy T*S    EENTRO =        -0.02299355
  eigenvalues    EBANDS =     -4747.75112533
  atomic energy  EATOM  =     57442.07416303
  Solvation  Ediel_sol  =         0.00000000
  ---------------------------------------------------
  free energy    TOTEN  =      -770.78090309 eV

  energy without entropy =     -770.75790954  energy(sigma->0) =     -770.76940631


--------------------------------------------------------------------------------------------------------




--------------------------------------- Iteration      1(   8)  ---------------------------------------


    POTLOK:  cpu time    0.3554: real time    0.3562
    SETDIJ:  cpu time    0.0450: real time    0.0451
     EDDAV:  cpu time    9.5786: real time    9.6013
    CHARGE:  cpu time    0.5913: real time    0.5927
    MIXING:  cpu time    0.0082: real time    0.0082
    --------------------------------------------
      LOOP:  cpu time   10.5785: real time   10.6036

 eigenvalue-minimisations  :  2496
 total energy-change (2. order) :-0.8697082E+02  (-0.3285032E+02)
 number of electron     685.9999926 magnetization      32.1227853
 augmentation part      191.2100469 magnetization      27.8366131

 Broyden mixing:
  rms(total) = 0.10594E+02    rms(broyden)= 0.10594E+02
  rms(prec ) = 0.14226E+02
  weight for this iteration     100.00

 eigenvalues of (default mixing * dielectric matrix)
  average eigenvalue GAMMA=   0.6454
  1.2457  0.3452  0.3452

 Free energy of the ion-electron system (eV)
  ---------------------------------------------------
  alpha Z        PSCENC =      3115.07269218
  Ewald energy   TEWEN  =    -43524.28792509
  -Hartree energ DENC   =    -14265.45949480
  -exchange      EXHF   =         0.00000000
  -V(xc)+E(xc)   XCENC  =      2677.61780089
  PAW double counting   =     67450.37365786   -68920.33578476
  entropy T*S    EENTRO =        -0.14072410
  eigenvalues    EBANDS =     -4832.66610970
  atomic energy  EATOM  =     57442.07416303
  Solvation  Ediel_sol  =         0.00000000
  ---------------------------------------------------
  free energy    TOTEN  =      -857.75172450 eV

  energy without entropy =     -857.61100040  energy(sigma->0) =     -857.68136245


--------------------------------------------------------------------------------------------------------




--------------------------------------- Iteration      1(   9)  ---------------------------------------


    POTLOK:  cpu time    0.3555: real time    0.3564
    SETDIJ:  cpu time    0.0452: real time    0.0453
     EDDAV:  cpu time    9.2779: real time    9.2999
    CHARGE:  cpu time    0.5907: real time    0.5921
    MIXING:  cpu time    0.0080: real time    0.0080
    --------------------------------------------
      LOOP:  cpu time   10.2774: real time   10.3017

 eigenvalue-minimisations  :  2400
 total energy-change (2. order) : 0.6994890E+02  (-0.4058795E+01)
 number of electron     685.9999936 magnetization      31.0452607
 augmentation part      192.0856445 magnetization      21.6136862

 Broyden mixing:
  rms(total) = 0.53141E+01    rms(broyden)= 0.53137E+01
  rms(prec ) = 0.65194E+01
  weight for this iteration     100.00

 eigenvalues of (default mixing * dielectric matrix)
  average eigenvalue GAMMA=   0.6879
  1.6308  0.5011  0.5011  0.1186

 Free energy of the ion-electron system (eV)
  ---------------------------------------------------
  alpha Z        PSCENC =      3115.07269218
  Ewald energy   TEWEN  =    -43524.28792509
  -Hartree energ DENC   =    -14237.69443497
  -exchange      EXHF   =         0.00000000
  -V(xc)+E(xc)   XCENC  =      2674.04937826
  PAW double counting   =     69143.56104363   -70616.40033828
  entropy T*S    EENTRO =        -0.10566420
  eigenvalues    EBANDS =     -4784.07174054
  atomic energy  EATOM  =     57442.07416303
  Solvation  Ediel_sol  =         0.00000000
  ---------------------------------------------------
  free energy    TOTEN  =      -787.80282598 eV

  energy without entropy =     -787.69716178  energy(sigma->0) =     -787.74999388


--------------------------------------------------------------------------------------------------------




--------------------------------------- Iteration      1(  10)  ---------------------------------------


    POTLOK:  cpu time    0.3599: real time    0.3608
    SETDIJ:  cpu time    0.0448: real time    0.0450
     EDDAV:  cpu time    9.5033: real time    9.5258
    CHARGE:  cpu time    0.5501: real time    0.5515
    MIXING:  cpu time    0.0087: real time    0.0087
    --------------------------------------------
      LOOP:  cpu time   10.4669: real time   10.4917

 eigenvalue-minimisations  :  2512
 total energy-change (2. order) :-0.1329837E+02  (-0.1087289E+02)
 number of electron     685.9999936 magnetization      30.1147345
 augmentation part      198.6785854 magnetization      26.1231818

 Broyden mixing:
  rms(total) = 0.92568E+01    rms(broyden)= 0.92564E+01
  rms(prec ) = 0.11298E+02
  weight for this iteration     100.00

 eigenvalues of (default mixing * dielectric matrix)
  average eigenvalue GAMMA=   0.6217
  1.7919  0.5216  0.5216  0.1454  0.1279

 Free energy of the ion-electron system (eV)
  ---------------------------------------------------
  alpha Z        PSCENC =      3115.07269218
  Ewald energy   TEWEN  =    -43524.28792509
  -Hartree energ DENC   =    -14124.72391966
  -exchange      EXHF   =         0.00000000
  -V(xc)+E(xc)   XCENC  =      2671.02283314
  PAW double counting   =     72646.65349634   -74101.96289851
  entropy T*S    EENTRO =        -0.07613748
  eigenvalues    EBANDS =     -4924.87349953
  atomic energy  EATOM  =     57442.07416303
  Solvation  Ediel_sol  =         0.00000000
  ---------------------------------------------------
  free energy    TOTEN  =      -801.10119558 eV

  energy without entropy =     -801.02505810  energy(sigma->0) =     -801.06312684


--------------------------------------------------------------------------------------------------------




--------------------------------------- Iteration      1(  11)  ---------------------------------------


    POTLOK:  cpu time    0.3591: real time    0.3600
    SETDIJ:  cpu time    0.0448: real time    0.0449
     EDDAV:  cpu time    9.0598: real time    9.0812
    CHARGE:  cpu time    0.5839: real time    0.5853
    MIXING:  cpu time    0.0075: real time    0.0075
    --------------------------------------------
      LOOP:  cpu time   10.0550: real time   10.0788

 eigenvalue-minimisations  :  2336
 total energy-change (2. order) : 0.1580259E+02  (-0.8722433E+01)
 number of electron     685.9999932 magnetization      29.0168028
 augmentation part      201.8037853 magnetization      21.8816764

 Broyden mixing:
  rms(total) = 0.35155E+01    rms(broyden)= 0.35143E+01
  rms(prec ) = 0.42166E+01
  weight for this iteration     100.00

 eigenvalues of (default mixing * dielectric matrix)
  average eigenvalue GAMMA=   0.5896
  1.9288  0.4958  0.4180  0.4180  0.1732  0.1042

 Free energy of the ion-electron system (eV)
  ---------------------------------------------------
  alpha Z        PSCENC =      3115.07269218
  Ewald energy   TEWEN  =    -43524.28792509
  -Hartree energ DENC   =    -14110.80560400
  -exchange      EXHF   =         0.00000000
  -V(xc)+E(xc)   XCENC  =      2670.20608649
  PAW double counting   =     74018.59262356   -75475.42957532
  entropy T*S    EENTRO =        -0.00041388
  eigenvalues    EBANDS =     -4920.72064973
  atomic energy  EATOM  =     57442.07416303
  Solvation  Ediel_sol  =         0.00000000
  ---------------------------------------------------
  free energy    TOTEN  =      -785.29860276 eV

  energy without entropy =     -785.29818888  energy(sigma->0) =     -785.29839582


--------------------------------------------------------------------------------------------------------




--------------------------------------- Iteration      1(  12)  ---------------------------------------


    POTLOK:  cpu time    0.3603: real time    0.3611
    SETDIJ:  cpu time    0.0446: real time    0.0447
     EDDAV:  cpu time    8.6028: real time    8.6232
    CHARGE:  cpu time    0.5858: real time    0.5872
    MIXING:  cpu time    0.0084: real time    0.0085
    --------------------------------------------
      LOOP:  cpu time    9.6020: real time    9.6247

 eigenvalue-minimisations  :  2192
 total energy-change (2. order) : 0.1015978E+02  (-0.2391673E+01)
 number of electron     685.9999933 magnetization      28.3513244
 augmentation part      200.1081567 magnetization      20.2546577

 Broyden mixing:
  rms(total) = 0.20613E+01    rms(broyden)= 0.20606E+01
  rms(prec ) = 0.24154E+01
  weight for this iteration     100.00

 eigenvalues of (default mixing * dielectric matrix)
  average eigenvalue GAMMA=   0.5777
  2.0563  0.5579  0.4613  0.3481  0.3481  0.1668  0.1050

 Free energy of the ion-electron system (eV)
  ---------------------------------------------------
  alpha Z        PSCENC =      3115.07269218
  Ewald energy   TEWEN  =    -43524.28792509
  -Hartree energ DENC   =    -14146.19966316
  -exchange      EXHF   =         0.00000000
  -V(xc)+E(xc)   XCENC  =      2671.43619418
  PAW double counting   =     75122.03350778   -76594.79310696
  entropy T*S    EENTRO =        -0.03636017
  eigenvalues    EBANDS =     -4860.43832858
  atomic energy  EATOM  =     57442.07416303
  Solvation  Ediel_sol  =         0.00000000
  ---------------------------------------------------
  free energy    TOTEN  =      -775.13882680 eV

  energy without entropy =     -775.10246662  energy(sigma->0) =     -775.12064671


--------------------------------------------------------------------------------------------------------




--------------------------------------- Iteration      1(  13)  ---------------------------------------


    POTLOK:  cpu time    0.3563: real time    0.3572
    SETDIJ:  cpu time    0.0448: real time    0.0450
     EDDAV:  cpu time    9.2268: real time    9.2486
    CHARGE:  cpu time    0.5811: real time    0.5825
    MIXING:  cpu time    0.0097: real time    0.0097
    --------------------------------------------
      LOOP:  cpu time   10.2188: real time   10.2430

 eigenvalue-minimisations  :  2400
 total energy-change (2. order) : 0.9364417E+00  (-0.9146527E+00)
 number of electron     685.9999931 magnetization      28.0692519
 augmentation part      198.9194517 magnetization      20.6988055

 Broyden mixing:
  rms(total) = 0.20589E+01    rms(broyden)= 0.20582E+01
  rms(prec ) = 0.24529E+01
  weight for this iteration     100.00

 eigenvalues of (default mixing * dielectric matrix)
  average eigenvalue GAMMA=   0.5535
  2.0811  0.5577  0.5577  0.3744  0.3744  0.2252  0.1532  0.1040

 Free energy of the ion-electron system (eV)
  ---------------------------------------------------
  alpha Z        PSCENC =      3115.07269218
  Ewald energy   TEWEN  =    -43524.28792509
  -Hartree energ DENC   =    -14171.75395464
  -exchange      EXHF   =         0.00000000
  -V(xc)+E(xc)   XCENC  =      2672.55015811
  PAW double counting   =     75759.15984427   -77240.62043847
  entropy T*S    EENTRO =        -0.00578160
  eigenvalues    EBANDS =     -4826.39114288
  atomic energy  EATOM  =     57442.07416303
  Solvation  Ediel_sol  =         0.00000000
  ---------------------------------------------------
  free energy    TOTEN  =      -774.20238508 eV

  energy without entropy =     -774.19660349  energy(sigma->0) =     -774.19949428


--------------------------------------------------------------------------------------------------------




--------------------------------------- Iteration      1(  14)  ---------------------------------------


    POTLOK:  cpu time    0.3593: real time    0.3601
    SETDIJ:  cpu time    0.0453: real time    0.0454
     EDDAV:  cpu time    9.2909: real time    9.3129
    CHARGE:  cpu time    0.5830: real time    0.5844
    MIXING:  cpu time    0.0100: real time    0.0100
    --------------------------------------------
      LOOP:  cpu time   10.2884: real time   10.3127

 eigenvalue-minimisations  :  2416
 total energy-change (2. order) :-0.9061510E+00  (-0.3375340E+01)
 number of electron     685.9999935 magnetization      27.7623199
 augmentation part      198.4018845 magnetization      20.0164871

 Broyden mixing:
  rms(total) = 0.19179E+01    rms(broyden)= 0.19171E+01
  rms(prec ) = 0.23252E+01
  weight for this iteration     100.00

 eigenvalues of (default mixing * dielectric matrix)
  average eigenvalue GAMMA=   0.5321
  2.0943  0.6315  0.6315  0.3995  0.3995  0.2516  0.1497  0.1050  0.1266

 Free energy of the ion-electron system (eV)
  ---------------------------------------------------
  alpha Z        PSCENC =      3115.07269218
  Ewald energy   TEWEN  =    -43524.28792509
  -Hartree energ DENC   =    -14176.36707084
  -exchange      EXHF   =         0.00000000
  -V(xc)+E(xc)   XCENC  =      2672.89286476
  PAW double counting   =     75890.02161221   -77372.30831814
  entropy T*S    EENTRO =        -0.04381182
  eigenvalues    EBANDS =     -4822.16274233
  atomic energy  EATOM  =     57442.07416303
  Solvation  Ediel_sol  =         0.00000000
  ---------------------------------------------------
  free energy    TOTEN  =      -775.10853604 eV

  energy without entropy =     -775.06472422  energy(sigma->0) =     -775.08663013


--------------------------------------------------------------------------------------------------------




--------------------------------------- Iteration      1(  15)  ---------------------------------------


    POTLOK:  cpu time    0.3522: real time    0.3530
    SETDIJ:  cpu time    0.0448: real time    0.0449
     EDDAV:  cpu time    9.1917: real time    9.2135
    CHARGE:  cpu time    0.5830: real time    0.5844
    MIXING:  cpu time    0.0099: real time    0.0099
    --------------------------------------------
      LOOP:  cpu time   10.1816: real time   10.2057

 eigenvalue-minimisations  :  2384
 total energy-change (2. order) : 0.1325214E+01  (-0.1196335E+01)
 number of electron     685.9999932 magnetization      27.3979089
 augmentation part      198.2074992 magnetization      19.3587920

 Broyden mixing:
  rms(total) = 0.14098E+01    rms(broyden)= 0.14088E+01
  rms(prec ) = 0.17432E+01
  weight for this iteration     100.00

 eigenvalues of (default mixing * dielectric matrix)
  average eigenvalue GAMMA=   0.5398
  2.0928  0.7662  0.7662  0.4725  0.4725  0.2363  0.2363  0.1457  0.1046  0.1046

 Free energy of the ion-electron system (eV)
  ---------------------------------------------------
  alpha Z        PSCENC =      3115.07269218
  Ewald energy   TEWEN  =    -43524.28792509
  -Hartree energ DENC   =    -14182.84250094
  -exchange      EXHF   =         0.00000000
  -V(xc)+E(xc)   XCENC  =      2673.37849936
  PAW double counting   =     75940.78926343   -77423.33761175
  entropy T*S    EENTRO =        -0.03007282
  eigenvalues    EBANDS =     -4814.59982974
  atomic energy  EATOM  =     57442.07416303
  Solvation  Ediel_sol  =         0.00000000
  ---------------------------------------------------
  free energy    TOTEN  =      -773.78332234 eV

  energy without entropy =     -773.75324951  energy(sigma->0) =     -773.76828592


--------------------------------------------------------------------------------------------------------




--------------------------------------- Iteration      1(  16)  ---------------------------------------


    POTLOK:  cpu time    0.3365: real time    0.3373
    SETDIJ:  cpu time    0.0427: real time    0.0428
     EDDAV:  cpu time    9.6050: real time    9.6277
    CHARGE:  cpu time    0.5377: real time    0.5390
    MIXING:  cpu time    0.0098: real time    0.0098
    --------------------------------------------
      LOOP:  cpu time   10.5317: real time   10.5566

 eigenvalue-minimisations  :  2496
 total energy-change (2. order) : 0.1110898E+00  (-0.5754179E-01)
 number of electron     685.9999934 magnetization      27.3632759
 augmentation part      197.5493869 magnetization      18.8513493

 Broyden mixing:
  rms(total) = 0.13105E+01    rms(broyden)= 0.13099E+01
  rms(prec ) = 0.15103E+01
  weight for this iteration     100.00

 eigenvalues of (default mixing * dielectric matrix)
  average eigenvalue GAMMA=   0.5370
  2.0814  0.8186  0.8186  0.4999  0.4999  0.2929  0.2714  0.2714  0.1514  0.1040
  0.0980

 Free energy of the ion-electron system (eV)
  ---------------------------------------------------
  alpha Z        PSCENC =      3115.07269218
  Ewald energy   TEWEN  =    -43524.28792509
  -Hartree energ DENC   =    -14186.28115853
  -exchange      EXHF   =         0.00000000
  -V(xc)+E(xc)   XCENC  =      2673.53793038
  PAW double counting   =     75936.09782248   -77415.95581677
  entropy T*S    EENTRO =        -0.02977623
  eigenvalues    EBANDS =     -4813.90016396
  atomic energy  EATOM  =     57442.07416303
  Solvation  Ediel_sol  =         0.00000000
  ---------------------------------------------------
  free energy    TOTEN  =      -773.67223250 eV

  energy without entropy =     -773.64245628  energy(sigma->0) =     -773.65734439


--------------------------------------------------------------------------------------------------------




--------------------------------------- Iteration      1(  17)  ---------------------------------------


    POTLOK:  cpu time    0.3595: real time    0.3603
    SETDIJ:  cpu time    0.0442: real time    0.0443
     EDDAV:  cpu time    9.4738: real time    9.4962
    CHARGE:  cpu time    0.5815: real time    0.5829
    MIXING:  cpu time    0.0113: real time    0.0113
    --------------------------------------------
      LOOP:  cpu time   10.4703: real time   10.4951

 eigenvalue-minimisations  :  2464
 total energy-change (2. order) :-0.9978950E-01  (-0.5363341E+00)
 number of electron     685.9999931 magnetization      26.9444407
 augmentation part      198.4420164 magnetization      19.2174579

 Broyden mixing:
  rms(total) = 0.11313E+01    rms(broyden)= 0.11307E+01
  rms(prec ) = 0.14934E+01
  weight for this iteration     100.00

 eigenvalues of (default mixing * dielectric matrix)
  average eigenvalue GAMMA=   0.5743
  2.0078  1.1091  1.1091  0.5423  0.4967  0.3872  0.3872  0.2510  0.2510  0.1500
  0.1040  0.0966

 Free energy of the ion-electron system (eV)
  ---------------------------------------------------
  alpha Z        PSCENC =      3115.07269218
  Ewald energy   TEWEN  =    -43524.28792509
  -Hartree energ DENC   =    -14185.71084074
  -exchange      EXHF   =         0.00000000
  -V(xc)+E(xc)   XCENC  =      2673.61706567
  PAW double counting   =     75941.38099474   -77419.98975479
  entropy T*S    EENTRO =        -0.02219250
  eigenvalues    EBANDS =     -4815.90622452
  atomic energy  EATOM  =     57442.07416303
  Solvation  Ediel_sol  =         0.00000000
  ---------------------------------------------------
  free energy    TOTEN  =      -773.77202200 eV

  energy without entropy =     -773.74982951  energy(sigma->0) =     -773.76092575


--------------------------------------------------------------------------------------------------------




--------------------------------------- Iteration      1(  18)  ---------------------------------------


    POTLOK:  cpu time    0.3570: real time    0.3579
    SETDIJ:  cpu time    0.0449: real time    0.0450
     EDDAV:  cpu time    9.5615: real time    9.5843
    CHARGE:  cpu time    0.5870: real time    0.5884
    MIXING:  cpu time    0.0110: real time    0.0110
    --------------------------------------------
      LOOP:  cpu time   10.5614: real time   10.5866

 eigenvalue-minimisations  :  2496
 total energy-change (2. order) : 0.1092982E+00  (-0.7833613E+00)
 number of electron     685.9999934 magnetization      26.9246906
 augmentation part      196.5119744 magnetization      18.7876194

 Broyden mixing:
  rms(total) = 0.16446E+01    rms(broyden)= 0.16436E+01
  rms(prec ) = 0.19640E+01
  weight for this iteration     100.00

 eigenvalues of (default mixing * dielectric matrix)
  average eigenvalue GAMMA=   0.5310
  2.0087  1.1093  1.1093  0.5598  0.4802  0.3865  0.3865  0.2506  0.2506  0.1500
  0.1040  0.0966  0.0114

 Free energy of the ion-electron system (eV)
  ---------------------------------------------------
  alpha Z        PSCENC =      3115.07269218
  Ewald energy   TEWEN  =    -43524.28792509
  -Hartree energ DENC   =    -14195.89915409
  -exchange      EXHF   =         0.00000000
  -V(xc)+E(xc)   XCENC  =      2674.41172264
  PAW double counting   =     75971.10684130   -77448.05335773
  entropy T*S    EENTRO =        -0.03520422
  eigenvalues    EBANDS =     -4808.05250180
  atomic energy  EATOM  =     57442.07416303
  Solvation  Ediel_sol  =         0.00000000
  ---------------------------------------------------
  free energy    TOTEN  =      -773.66272378 eV

  energy without entropy =     -773.62751955  energy(sigma->0) =     -773.64512167


--------------------------------------------------------------------------------------------------------




--------------------------------------- Iteration      1(  19)  ---------------------------------------


    POTLOK:  cpu time    0.3590: real time    0.3598
    SETDIJ:  cpu time    0.0444: real time    0.0445
     EDDAV:  cpu time    9.3523: real time    9.3745
    CHARGE:  cpu time    0.5823: real time    0.5837
    MIXING:  cpu time    0.0108: real time    0.0108
    --------------------------------------------
      LOOP:  cpu time   10.3488: real time   10.3733

 eigenvalue-minimisations  :  2432
 total energy-change (2. order) : 0.1218793E+00  (-0.2093376E+00)
 number of electron     685.9999932 magnetization      26.9264086
 augmentation part      196.6777746 magnetization      18.5802139

 Broyden mixing:
  rms(total) = 0.15117E+01    rms(broyden)= 0.15112E+01
  rms(prec ) = 0.17886E+01
  weight for this iteration     100.00

 eigenvalues of (default mixing * dielectric matrix)
  average eigenvalue GAMMA=   0.5019
  2.0008  1.1151  1.1151  0.5203  0.5203  0.3857  0.3857  0.2502  0.2502  0.1498
  0.1040  0.0970  0.0774  0.0551

 Free energy of the ion-electron system (eV)
  ---------------------------------------------------
  alpha Z        PSCENC =      3115.07269218
  Ewald energy   TEWEN  =    -43524.28792509
  -Hartree energ DENC   =    -14196.18027712
  -exchange      EXHF   =         0.00000000
  -V(xc)+E(xc)   XCENC  =      2674.45595263
  PAW double counting   =     75974.47065185   -77451.38226897
  entropy T*S    EENTRO =        -0.05043406
  eigenvalues    EBANDS =     -4807.71339894
  atomic energy  EATOM  =     57442.07416303
  Solvation  Ediel_sol  =         0.00000000
  ---------------------------------------------------
  free energy    TOTEN  =      -773.54084449 eV

  energy without entropy =     -773.49041043  energy(sigma->0) =     -773.51562746


--------------------------------------------------------------------------------------------------------




--------------------------------------- Iteration      1(  20)  ---------------------------------------


    POTLOK:  cpu time    0.3569: real time    0.3578
    SETDIJ:  cpu time    0.0445: real time    0.0446
     EDDAV:  cpu time    9.1367: real time    9.1583
    CHARGE:  cpu time    0.5873: real time    0.5887
    MIXING:  cpu time    0.0112: real time    0.0112
    --------------------------------------------
      LOOP:  cpu time   10.1365: real time   10.1605

 eigenvalue-minimisations  :  2368
 total energy-change (2. order) :-0.3939574E-02  (-0.1658571E+00)
 number of electron     685.9999933 magnetization      26.9229456
 augmentation part      196.5746527 magnetization      18.5639341

 Broyden mixing:
  rms(total) = 0.15924E+01    rms(broyden)= 0.15922E+01
  rms(prec ) = 0.18810E+01
  weight for this iteration     100.00

 eigenvalues of (default mixing * dielectric matrix)
  average eigenvalue GAMMA=   0.4705
  2.0371  1.0733  1.0733  0.5805  0.4863  0.3808  0.3808  0.2517  0.2517  0.1499
  0.1040  0.0968  0.1103  0.0626  0.0183

 Free energy of the ion-electron system (eV)
  ---------------------------------------------------
  alpha Z        PSCENC =      3115.07269218
  Ewald energy   TEWEN  =    -43524.28792509
  -Hartree energ DENC   =    -14196.17402009
  -exchange      EXHF   =         0.00000000
  -V(xc)+E(xc)   XCENC  =      2674.45809901
  PAW double counting   =     75974.85473375   -77451.54135351
  entropy T*S    EENTRO =        -0.04404821
  eigenvalues    EBANDS =     -4807.95712515
  atomic energy  EATOM  =     57442.07416303
  Solvation  Ediel_sol  =         0.00000000
  ---------------------------------------------------
  free energy    TOTEN  =      -773.54478407 eV

  energy without entropy =     -773.50073586  energy(sigma->0) =     -773.52275996


--------------------------------------------------------------------------------------------------------




--------------------------------------- Iteration      1(  21)  ---------------------------------------


    POTLOK:  cpu time    0.3596: real time    0.3604
    SETDIJ:  cpu time    0.0447: real time    0.0448
     EDDAV:  cpu time    8.6385: real time    8.6590
    CHARGE:  cpu time    0.5834: real time    0.5848
    MIXING:  cpu time    0.0121: real time    0.0122
    --------------------------------------------
      LOOP:  cpu time    9.6384: real time    9.6612

 eigenvalue-minimisations  :  2208
 total energy-change (2. order) : 0.5079418E-01  (-0.4210538E-01)
 number of electron     685.9999933 magnetization      26.9874661
[...]
      4.52836      4.89789      4.27368         0.055405      0.000000      0.000000
      5.94998      9.83392      3.47807        -0.005506      0.004530     -0.001925
      5.94998     14.64789      5.07947        -0.005506     -0.004530      0.001925
      6.01797      4.83054      6.88156         0.174596     -0.064013      0.022268
      7.43894      9.89214      5.92298        -0.003542      0.012761     -0.003489
      8.92761     14.64975      5.07976        -0.001525     -0.017035      0.002667
     10.41912      9.88587      5.92819        -0.002043      0.011871     -0.000455
      2.97291     14.65983      5.07470        -0.000394     -0.001012     -0.000204
      4.46427      9.88308      5.92545        -0.002381     -0.003199     -0.001209
      4.48844      7.42261      7.56978         0.006091     -0.039323      0.016203
      8.93194     12.28531      1.96027        -0.001038     -0.000875     -0.007844
      1.52090      2.30017      0.87536         0.007505     -0.015282      0.003625
      7.39060      7.45792      7.54540         0.010096      0.021726      0.014540
      2.97790     12.27945      1.96585        -0.003704      0.002846     -0.001702
      4.48844      2.37317      0.97759         0.006091      0.039323     -0.016203
     10.45293      7.49561      7.67200         0.007505      0.015282     -0.003625
      5.95247     12.27848      1.95988        -0.001836      0.003527     -0.004286
      7.39060      2.33785      1.00197         0.010096     -0.021726     -0.014540
      7.42636      7.53983      2.72648         0.016205      0.007067      0.006451
      7.44388     12.24090      4.27877        -0.003459      0.000000      0.000000
      8.90870      2.04489      3.40452        -0.002379     -0.041426     -0.017295
     10.41018      7.52029      2.76472        -0.025582      0.001301      0.012851
     10.41792     12.24090      4.27877        -0.000271      0.000000      0.000000
      2.95324      2.09754      3.46884        -0.017541     -0.011314     -0.003872
      4.55523      7.48750      2.77418         0.004095     -0.009991      0.003335
      4.46525     12.24090      4.27877        -0.002056      0.000000      0.000000
      5.93510      2.07473      3.40652         0.025649     -0.004737      0.004907
      5.93510      7.72105      5.14085         0.025649      0.004737     -0.004907
      5.95247     12.20333      6.59766        -0.001836     -0.003527      0.004286
      7.42636      2.25594      5.82089         0.016205     -0.007067     -0.006451
      8.90870      7.75089      5.14284        -0.002379      0.041426      0.017295
      8.93194     12.19650      6.59727        -0.001038      0.000875      0.007844
     10.41018      2.27549      5.78265        -0.025582     -0.001301     -0.012851
      2.95324      7.69824      5.07853        -0.017541      0.011314      0.003872
     11.90993     12.20235      6.59169        -0.003704     -0.002846      0.001702
      4.55523      2.30828      5.77319         0.004095      0.009991     -0.003335
      8.92903     10.99277      0.05690        -0.003783      0.001512     -0.001774
      8.58101      3.62266      0.09676        -0.017683      0.036438     -0.045315
      8.93169      1.11719      1.59899        -0.003243     -0.014636     -0.006967
      8.92772      8.62594      1.64016        -0.002017      0.009865      0.002905
      1.45094      5.92199      0.93123        -0.010882     -0.057301      0.002006
      1.48224     13.48986      0.80508        -0.005509     -0.001750     -0.001162
      2.97119     10.98470      0.06348        -0.004153      0.000460     -0.001357
      3.11414      3.84050      0.07464         0.047653     -0.055289      0.039067
      2.99086      1.13854      1.59949         0.000560     -0.007397     -0.000135
      2.96267      8.65183      1.64875        -0.005781      0.004185     -0.004128
      4.11499      6.16853      0.76408        -0.017683     -0.036438      0.045315
      4.46302     13.48446      0.81412        -0.003783     -0.001512      0.001774
      5.94825     10.98736      0.06593        -0.005509      0.001750      0.001162
     10.38298      3.87379      7.61614        -0.010882      0.057301     -0.002006
      5.94993      1.15258      1.59945        -0.004106     -0.001953     -0.003144
      5.95465      8.62983      1.63674        -0.003257      0.009581     -0.003101
      7.58015      5.95069      0.78620         0.047653      0.055289     -0.039067
      7.43720     13.49252      0.80753        -0.004153     -0.000460      0.001357
      7.44458     10.96269      2.46653        -0.004864      0.003284     -0.009025
      7.73159      3.60008      2.82110         0.003822     -0.058292      0.041471
      7.43429      1.05949      4.28244         0.000671     -0.024074      0.004935
      7.43429      8.73629      4.26493         0.000671      0.024074     -0.004935
      8.85884      5.92861      3.32984        -0.009069     -0.012610     -0.010289
      8.93011     13.54029      3.43100        -0.002110     -0.013377      0.001080
      1.48509     10.96392      2.46764         0.001155      0.000165     -0.008183
      1.56516      3.65198      2.22395        -0.027049     -0.018659      0.005603
     10.40339      1.07822      4.26783        -0.005592     -0.013888     -0.000399
     10.40339      8.71756      4.27954        -0.005592      0.013888      0.000399
      2.85257      6.18031      3.39349        -0.032324      0.018703      0.044740
      2.97435     13.54609      3.43089         0.000405     -0.001454      0.002844
      4.46431     10.96618      2.47416        -0.005733      0.004883     -0.000687
      4.50865      3.79194      2.56352         0.036679      0.080899     -0.026565
      4.46447      1.08135      4.27298        -0.001774      0.004494     -0.001531
      4.46447      8.71443      4.27439        -0.001774     -0.004494      0.001531
      6.06330      6.15157      3.32152         0.005209      0.007656     -0.010105
      5.94982     13.54097      3.43062        -0.007543     -0.003572      0.002835
      5.94982     10.94084      5.12692        -0.007543      0.003572     -0.002835
      6.06330      3.64421      5.22584         0.005209     -0.007656      0.010105
      5.95465      1.16594      6.91063        -0.003257     -0.009581      0.003101
      5.94993      8.64320      6.94792        -0.004106      0.001953      0.003144
      7.73159      6.19570      5.72626         0.003822      0.058292     -0.041471
      7.44458     13.51911      6.09101        -0.004864     -0.003284      0.009025
      8.93011     10.94152      5.12654        -0.002110      0.013377     -0.001080
      8.85884      3.86717      5.21753        -0.009069      0.012610      0.010289
      8.92772      1.16984      6.90721        -0.002017     -0.009865     -0.002905
      8.93169      8.67859      6.94838        -0.003243      0.014636      0.006967
     10.49719      6.14380      6.32342        -0.027049      0.018659     -0.005603
     10.41712     13.51788      6.08990         0.001155     -0.000165      0.008183
      2.97435     10.93571      5.12665         0.000405      0.001454     -0.002844
     11.78460      3.61547      5.15388        -0.032324     -0.018703     -0.044740
     11.89471      1.14395      6.89862        -0.005781     -0.004185      0.004128
     11.92289      8.65723      6.94788         0.000560      0.007397      0.000135
      4.50865      6.00384      5.98385         0.036679     -0.080899      0.026565
      4.46431     13.51562      6.08338        -0.005733     -0.004883      0.000687
 -----------------------------------------------------------------------------------
    total drift:                                0.006471     -0.004090      0.000142


--------------------------------------------------------------------------------------------------------



  FREE ENERGIE OF THE ION-ELECTRON SYSTEM (eV)
  ---------------------------------------------------
  free  energy   TOTEN  =      -773.8398175638 eV

  energy  without entropy=     -773.8364084100  energy(sigma->0) =     -773.83811299
 
 d Force = 0.7845706E-02[ 0.780E-02, 0.789E-02]  d Energy = 0.7881252E-02-0.355E-04
 d Force =-0.2679722E+00[-0.292E+00,-0.244E+00]  d Ewald  =-0.3263064E+01 0.300E+01


--------------------------------------------------------------------------------------------------------


    POTLOK:  cpu time    0.3797: real time    0.3806


--------------------------------------------------------------------------------------------------------


 Quasi-Newton relaxation of ions (Broydens 2nd method)
  g(Force)  = 0.864E-02   g(Stress)= 0.382E-04

 retain information from N=  1 steps
 eigenvalues of (default step * inverse Hessian matrix)
  average eigenvalue of G=   0.1891
 eigenvalue spectrum of G is  0.1891


--------------------------------------------------------------------------------------------------------


     LOOP+:  cpu time   76.1109: real time   76.4391
    4ORBIT:  cpu time    0.0000: real time    0.0000

volume of typ            1:    11.0 %

volume of typ            2:    10.1 %

volume of typ            3:    20.9 %

volume of typ            4:     8.7 %
 
total charge     
 
# of ion       s       p       d       tot
------------------------------------------
    1        0.275   6.164   1.973   8.412
    2        0.286   6.179   1.941   8.406
    3        0.274   6.163   1.977   8.414
    4        0.274   6.162   1.980   8.416
    5        0.281   6.159   1.995   8.434
    6        0.275   6.164   1.973   8.412
    7        0.274   6.163   1.977   8.414
    8        0.274   6.162   1.980   8.416
    9        0.273   6.146   1.986   8.405
   10        0.286   6.179   1.941   8.406
   11        0.281   6.159   1.995   8.434
   12        0.192   0.189   8.070   8.451
   13        0.211   0.229   7.917   8.357
   14        0.210   0.231   7.913   8.354
   15        0.211   0.229   7.915   8.355
   16        0.185   0.184   8.072   8.441
   17        0.209   0.229   7.911   8.348
   18        0.211   0.230   7.915   8.355
   19        0.183   0.194   8.079   8.456
   20        0.210   0.231   7.912   8.353
   21        0.210   0.231   7.912   8.353
   22        0.192   0.189   8.070   8.451
   23        0.211   0.229   7.917   8.357
   24        0.210   0.231   7.913   8.354
   25        0.211   0.229   7.915   8.355
   26        0.209   0.229   7.911   8.348
   27        0.211   0.230   7.915   8.355
   28        2.077   0.266   0.101   2.444
   29        2.083   0.281   0.108   2.472
   30        2.093   0.312   0.124   2.529
   31        2.087   0.292   0.114   2.494
   32        2.083   0.280   0.108   2.472
   33        2.077   0.266   0.101   2.444
   34        2.093   0.312   0.124   2.529
   35        2.083   0.280   0.108   2.472
   36        2.087   0.292   0.114   2.494
   37        2.079   0.267   0.101   2.447
   38        2.066   0.226   0.082   2.374
   39        2.090   0.293   0.112   2.496
   40        2.079   0.264   0.100   2.442
   41        2.066   0.225   0.082   2.374
   42        2.077   0.258   0.097   2.431
   43        2.073   0.249   0.093   2.415
   44        2.067   0.227   0.083   2.376
   45        2.078   0.262   0.098   2.438
   46        2.078   0.262   0.098   2.438
   47        2.083   0.280   0.108   2.472
   48        2.079   0.267   0.101   2.447
   49        2.090   0.293   0.112   2.496
   50        2.083   0.281   0.108   2.472
   51        2.079   0.264   0.100   2.442
   52        2.077   0.258   0.097   2.431
   53        2.083   0.280   0.108   2.472
   54        2.073   0.249   0.093   2.415
   55        1.251   2.841   0.006   4.098
   56        1.254   2.851   0.005   4.110
   57        1.248   2.838   0.004   4.091
   58        1.248   2.843   0.005   4.096
   59        1.250   2.840   0.006   4.095
   60        1.251   2.841   0.006   4.098
   61        1.251   2.841   0.006   4.098
   62        1.250   2.842   0.006   4.098
   63        1.248   2.836   0.004   4.088
   64        1.250   2.842   0.006   4.098
   65        1.254   2.851   0.005   4.110
   66        1.251   2.841   0.006   4.098
   67        1.251   2.841   0.006   4.098
   68        1.250   2.840   0.006   4.095
   69        1.246   2.842   0.004   4.092
   70        1.246   2.850   0.005   4.102
   71        1.250   2.842   0.006   4.098
   72        1.251   2.841   0.006   4.098
   73        1.249   2.836   0.005   4.090
   74        1.253   2.846   0.005   4.104
   75        1.242   2.819   0.004   4.065
   76        1.242   2.819   0.004   4.065
   77        1.251   2.840   0.005   4.097
   78        1.245   2.807   0.004   4.056
   79        1.249   2.836   0.005   4.090
   80        1.254   2.854   0.006   4.113
   81        1.241   2.821   0.004   4.066
   82        1.241   2.821   0.004   4.066
   83        1.256   2.817   0.006   4.079
   84        1.245   2.807   0.005   4.056
   85        1.249   2.836   0.005   4.090
   86        1.254   2.813   0.006   4.073
   87        1.242   2.819   0.004   4.065
   88        1.242   2.819   0.004   4.065
   89        1.253   2.820   0.006   4.080
   90        1.245   2.807   0.005   4.056
   91        1.245   2.807   0.005   4.056
   92        1.253   2.820   0.006   4.080
   93        1.246   2.850   0.005   4.102
   94        1.246   2.842   0.004   4.092
   95        1.253   2.846   0.005   4.104
   96        1.249   2.836   0.005   4.090
   97        1.245   2.807   0.004   4.056
   98        1.251   2.840   0.005   4.097
   99        1.248   2.843   0.005   4.096
  100        1.248   2.838   0.004   4.091
  101        1.254   2.854   0.006   4.113
  102        1.249   2.836   0.005   4.090
  103        1.245   2.807   0.005   4.056
  104        1.256   2.817   0.006   4.079
  105        1.250   2.842   0.006   4.098
  106        1.248   2.836   0.004   4.088
  107        1.254   2.813   0.006   4.073
  108        1.249   2.836   0.005   4.090
--------------------------------------------------
tot         129.94  231.57  152.03  513.53
 
magnetization (x)
 
# of ion       s       p       d       tot
------------------------------------------
    1        0.007   0.000   0.177   0.184
    2       -0.000   0.000  -0.009  -0.009
    3        0.006   0.000   0.184   0.191
    4        0.006   0.000   0.191   0.197
    5       -0.000   0.000   0.004   0.004
    6        0.007   0.000   0.177   0.184
    7        0.006   0.000   0.184   0.191
    8        0.006   0.000   0.191   0.197
    9        0.000   0.001   0.014   0.015
   10       -0.000   0.000  -0.009  -0.009
   11       -0.000   0.000   0.004   0.004
   12       -0.000   0.001   0.895   0.896
   13       -0.001   0.005   1.490   1.494
   14       -0.001   0.004   1.496   1.499
   15       -0.001   0.005   1.494   1.497
   16       -0.000   0.001   0.901   0.902
   17       -0.001   0.003   1.500   1.503
   18       -0.001   0.005   1.493   1.496
   19       -0.005  -0.001  -0.887  -0.893
   20       -0.001   0.004   1.496   1.498
   21       -0.001   0.004   1.496   1.498
   22       -0.000   0.001   0.895   0.896
   23       -0.001   0.005   1.490   1.494
   24       -0.001   0.004   1.496   1.499
   25       -0.001   0.005   1.494   1.497
   26       -0.001   0.003   1.500   1.503
   27       -0.001   0.005   1.493   1.496
   28        0.001   0.004   0.001   0.007
   29        0.003   0.008   0.003   0.014
   30        0.001   0.005   0.001   0.008
   31        0.001   0.004   0.001   0.007
   32        0.003   0.008   0.003   0.014
   33        0.001   0.004   0.001   0.007
   34        0.001   0.005   0.001   0.008
   35        0.003   0.008   0.003   0.014
   36        0.001   0.004   0.001   0.007
   37        0.002   0.005   0.002   0.009
   38        0.004   0.009   0.003   0.016
   39        0.003   0.007   0.002   0.012
   40        0.002   0.004   0.002   0.008
   41        0.004   0.010   0.003   0.016
   42        0.003   0.008   0.002   0.013
   43        0.003   0.006   0.002   0.011
   44        0.004   0.009   0.003   0.016
   45        0.003   0.008   0.002   0.013
   46        0.003   0.008   0.002   0.013
   47        0.003   0.008   0.003   0.014
   48        0.002   0.005   0.002   0.009
   49        0.003   0.007   0.002   0.012
   50        0.003   0.008   0.003   0.014
   51        0.002   0.004   0.002   0.008
   52        0.003   0.008   0.002   0.013
   53        0.003   0.008   0.003   0.014
   54        0.003   0.006   0.002   0.011
   55        0.006   0.062   0.001   0.069
   56       -0.000  -0.000  -0.000  -0.000
   57        0.007   0.059   0.000   0.066
   58        0.005   0.054   0.001   0.061
   59        0.004   0.026   0.000   0.030
   60        0.006   0.063   0.001   0.069
   61        0.006   0.061   0.001   0.067
   62        0.004   0.029   0.000   0.033
   63        0.007   0.060   0.000   0.067
   64        0.006   0.056   0.001   0.062
   65       -0.000  -0.000  -0.000  -0.000
   66        0.006   0.062   0.001   0.069
   67        0.006   0.063   0.001   0.069
   68        0.004   0.026   0.000   0.030
   69        0.007   0.060   0.000   0.067
   70        0.005   0.053   0.001   0.059
   71        0.004   0.029   0.000   0.033
   72        0.006   0.061   0.001   0.067
   73        0.008   0.063   0.000   0.071
   74       -0.000  -0.004  -0.000  -0.004
   75        0.016   0.238   0.000   0.254
   76        0.016   0.238   0.000   0.254
   77        0.004   0.028   0.000   0.032
   78        0.017   0.275   0.000   0.292
   79        0.008   0.063   0.000   0.071
   80       -0.000  -0.000  -0.000  -0.001
   81        0.016   0.231   0.000   0.248
   82        0.016   0.231   0.000   0.248
   83        0.002   0.007   0.000   0.009
   84        0.016   0.272   0.000   0.289
   85        0.007   0.063   0.000   0.071
   86        0.001  -0.006  -0.000  -0.006
   87        0.016   0.233   0.000   0.250
   88        0.016   0.233   0.000   0.250
   89        0.002   0.013   0.000   0.015
   90        0.017   0.274   0.000   0.291
   91        0.017   0.274   0.000   0.291
   92        0.002   0.013   0.000   0.015
   93        0.005   0.053   0.001   0.059
   94        0.007   0.060   0.000   0.067
   95       -0.000  -0.004  -0.000  -0.004
   96        0.008   0.063   0.000   0.071
   97        0.017   0.275   0.000   0.292
   98        0.004   0.028   0.000   0.032
   99        0.005   0.054   0.001   0.061
  100        0.007   0.059   0.000   0.066
  101       -0.000  -0.000  -0.000  -0.001
  102        0.008   0.063   0.000   0.071
  103        0.016   0.272   0.000   0.289
  104        0.002   0.007   0.000   0.009
  105        0.006   0.056   0.001   0.062
  106        0.007   0.060   0.000   0.067
  107        0.001  -0.006  -0.000  -0.006
  108        0.007   0.063   0.000   0.071
--------------------------------------------------
tot           0.47    4.90   20.93   26.30
 

 total amount of memory used by VASP MPI-rank0   170629. kBytes
=======================================================================

   base      :      30000. kBytes
   nonlr-proj:      47057. kBytes
   fftplans  :      11390. kBytes
   grid      :      69016. kBytes
   one-center:       1679. kBytes
   wavefun   :      11487. kBytes
 
  
  
 General timing and accounting informations for this job:
 ========================================================
  
                  Total CPU time used (sec):     2691.393
                            User time (sec):     2679.324
                          System time (sec):       12.069
                         Elapsed time (sec):     2704.903
  
                   Maximum memory used (kb):      234656.
                   Average memory used (kb):           0.
  
                          Minor page faults:        40333
                          Major page faults:           10
                 Voluntary context switches:         1348
