 vasp.5.4.4.18Apr17-6-g9f103f2a35 (build May 12 2020 05:39:39) gamma-only       
  
 MD_VERSION_INFO: Compiled 2020-05-12T12:39:39-UTC in devlin.sd.materialsdesign.
 com:/home/medea2/data/build/wwolf/vasp-gpu5.4.4/13047/x86_64/src/src/build/gam 
 from svn 13047
 
 This VASP executable licensed from Materials Design, Inc.
 
 executed on                        Lin64 date 2023.04.05  05:20:30
 running on   16 total cores
 distrk:  each k-point on   16 cores,    1 groups
 distr:  one band on NCORES_PER_BAND=   1 cores,   16 groups


--------------------------------------------------------------------------------------------------------


 INCAR:
 POTCAR:    PAW_PBE Ta_pv 07Sep2000               
 POTCAR:    PAW_PBE Ni 02Aug2007                  
 POTCAR:    PAW_PBE Li_sv 10Sep2004               
 POTCAR:    PAW_PBE O 08Apr2002                   

 ----------------------------------------------------------------------------- 
|                                                                             |
|           W    W    AA    RRRRR   N    N  II  N    N   GGGG   !!!           |
|           W    W   A  A   R    R  NN   N  II  NN   N  G    G  !!!           |
|           W    W  A    A  R    R  N N  N  II  N N  N  G       !!!           |
|           W WW W  AAAAAA  RRRRR   N  N N  II  N  N N  G  GGG   !            |
|           WW  WW  A    A  R   R   N   NN  II  N   NN  G    G                |
|           W    W  A    A  R    R  N    N  II  N    N   GGGG   !!!           |
|                                                                             |
|      For optimal performance we recommend to set                            |
|        NCORE= 4 - approx SQRT( number of cores)                             |
|      NCORE specifies how many cores store one orbital (NPAR=cpu/NCORE).     |
|      This setting can  greatly improve the performance of VASP for DFT.     |
|      The default,   NCORE=1            might be grossly inefficient         |
|      on modern multi-core architectures or massively parallel machines.     |
|      Do your own testing !!!!                                               |
|      Unfortunately you need to use the default for GW and RPA calculations. |
|      (for HF NCORE is supported but not extensively tested yet)             |
|                                                                             |
 ----------------------------------------------------------------------------- 

 POTCAR:    PAW_PBE Ta_pv 07Sep2000               
  local pseudopotential read in
  partial core-charges read in
  partial kinetic energy density read in
  atomic valenz-charges read in
  non local Contribution for L=           1  read in
    real space projection operators read in
  non local Contribution for L=           1  read in
    real space projection operators read in
  non local Contribution for L=           2  read in
    real space projection operators read in
  non local Contribution for L=           2  read in
    real space projection operators read in
  non local Contribution for L=           0  read in
    real space projection operators read in
  non local Contribution for L=           0  read in
    real space projection operators read in
    PAW grid and wavefunctions read in
 
   number of l-projection  operators is LMAX  =           6
   number of lm-projection operators is LMMAX =          18
 
 POTCAR:    PAW_PBE Ni 02Aug2007                  
  local pseudopotential read in
  partial core-charges read in
  partial kinetic energy density read in
  atomic valenz-charges read in
  non local Contribution for L=           2  read in
    real space projection operators read in
  non local Contribution for L=           2  read in
    real space projection operators read in
  non local Contribution for L=           0  read in
    real space projection operators read in
  non local Contribution for L=           0  read in
    real space projection operators read in
  non local Contribution for L=           1  read in
    real space projection operators read in
  non local Contribution for L=           1  read in
    real space projection operators read in
    PAW grid and wavefunctions read in
 
   number of l-projection  operators is LMAX  =           6
   number of lm-projection operators is LMMAX =          18
 
 POTCAR:    PAW_PBE Li_sv 10Sep2004               
  local pseudopotential read in
  atomic valenz-charges read in
  non local Contribution for L=           0  read in
    real space projection operators read in
  non local Contribution for L=           0  read in
    real space projection operators read in
  non local Contribution for L=           1  read in
    real space projection operators read in
    PAW grid and wavefunctions read in
 
   number of l-projection  operators is LMAX  =           3
   number of lm-projection operators is LMMAX =           5
 
 POTCAR:    PAW_PBE O 08Apr2002                   
  local pseudopotential read in
  partial core-charges read in
  partial kinetic energy density read in
  kinetic energy density of atom read in
  atomic valenz-charges read in
  non local Contribution for L=           0  read in
    real space projection operators read in
  non local Contribution for L=           0  read in
    real space projection operators read in
  non local Contribution for L=           1  read in
    real space projection operators read in
  non local Contribution for L=           1  read in
    real space projection operators read in
    PAW grid and wavefunctions read in
 
   number of l-projection  operators is LMAX  =           4
   number of lm-projection operators is LMMAX =           8
 
 Optimization of the real space projectors (new method)

 maximal supplied QI-value         = 15.12
 optimisation between [QCUT,QGAM] = [ 11.34, 22.83] = [ 36.00,145.93] Ry 
 Optimized for a Real-space Cutoff    1.61 Angstroem

   l    n(q)    QCUT    max X(q) W(low)/X(q) W(high)/X(q)  e(spline) 
   1     11    11.338     4.092    0.40E-05    0.64E-05    0.47E-07
   1     11    11.338     4.834    0.13E-04    0.44E-04    0.21E-06
   2     10    11.338    62.294    0.15E-03    0.31E-03    0.77E-06
   2     10    11.338    50.966    0.15E-03    0.31E-03    0.77E-06
   0     11    11.338   103.792    0.33E-04    0.19E-04    0.90E-07
   0     11    11.338    56.335    0.26E-04    0.17E-04    0.79E-07
 Optimization of the real space projectors (new method)

 maximal supplied QI-value         = 16.25
 optimisation between [QCUT,QGAM] = [ 11.38, 22.75] = [ 36.24,144.96] Ry 
 Optimized for a Real-space Cutoff    1.47 Angstroem

   l    n(q)    QCUT    max X(q) W(low)/X(q) W(high)/X(q)  e(spline) 
   2      9    11.376    60.317    0.17E-03    0.16E-04    0.16E-06
   2      9    11.376    55.921    0.17E-03    0.16E-04    0.17E-06
   0     10    11.376    51.690    0.45E-04    0.60E-04    0.21E-06
   0     10    11.376    30.015    0.37E-04    0.55E-04    0.19E-06
   1     10    11.376    18.849    0.83E-04    0.11E-03    0.92E-07
   1     10    11.376    14.624    0.69E-04    0.92E-04    0.82E-07
 Optimization of the real space projectors (new method)

 maximal supplied QI-value         = 22.11
 optimisation between [QCUT,QGAM] = [ 11.28, 22.77] = [ 35.61,145.23] Ry 
 Optimized for a Real-space Cutoff    1.10 Angstroem

   l    n(q)    QCUT    max X(q) W(low)/X(q) W(high)/X(q)  e(spline) 
   0      7    11.276    10.506    0.54E-04    0.58E-04    0.16E-07
   0      7    11.276     8.367    0.11E-03    0.14E-03    0.35E-07
   1      7    11.276     8.983    0.23E-03    0.43E-03    0.86E-07
 Optimization of the real space projectors (new method)

 maximal supplied QI-value         = 24.76
 optimisation between [QCUT,QGAM] = [ 11.39, 22.77] = [ 36.31,145.25] Ry 
 Optimized for a Real-space Cutoff    1.10 Angstroem

   l    n(q)    QCUT    max X(q) W(low)/X(q) W(high)/X(q)  e(spline) 
   0      7    11.387    20.381    0.22E-03    0.48E-03    0.18E-06
   0      7    11.387    15.268    0.22E-03    0.52E-03    0.19E-06
   1      7    11.387     5.964    0.22E-03    0.73E-03    0.24E-06
   1      7    11.387     5.382    0.19E-03    0.60E-03    0.21E-06

 ----------------------------------------------------------------------------- 
|                                                                             |
|  ADVICE TO THIS USER RUNNING 'VASP/VAMP'   (HEAR YOUR MASTER'S VOICE ...):  |
|                                                                             |
|      You enforced a specific xc-type in the INCAR file,                     |
|      a different type was found on the POTCAR file                          |
|          I HOPE YOU KNOW, WHAT YOU ARE  DOING                               |
|                                                                             |
 ----------------------------------------------------------------------------- 

  PAW_PBE Ta_pv 07Sep2000               :
 energy of atom  1       EATOM=-1047.1984
 kinetic energy error for atom=    0.0019 (will be added to EATOM!!)
  PAW_PBE Ni 02Aug2007                  :
 energy of atom  2       EATOM=-1077.6739
 kinetic energy error for atom=    0.0030 (will be added to EATOM!!)
  PAW_PBE Li_sv 10Sep2004               :
 energy of atom  3       EATOM= -202.7858
 kinetic energy error for atom=    0.0143 (will be added to EATOM!!)
  PAW_PBE O 08Apr2002                   :
 energy of atom  4       EATOM= -432.3788
 kinetic energy error for atom=    0.0224 (will be added to EATOM!!)
 
 
 POSCAR: ce166636_1                              
  positions in direct lattice
  No initial velocities read in
 exchange correlation table for  LEXCH =       14
   RHO(1)=    0.500       N(1)  =     2000
   RHO(2)=  100.500       N(2)  =     4000
 


--------------------------------------------------------------------------------------------------------


 ion  position               nearest neighbor table
   1  0.009  0.001  0.984-  57 2.08  72 2.10  60 2.10 105 2.11  93 2.13 108 2.20  15 2.76  12 2.77
                             7 2.92   4 2.92  54 2.95  29 2.98  30 2.99  36 3.03  47 3.06  20 3.08
   2  0.885  0.336  0.190-  71 1.93  56 1.96  74 2.04  59 2.04  77 2.17  80 2.18  17 2.65  27 2.66
                            24 2.85  28 2.87  37 3.05  36 3.06   8 3.09   5 3.10
   3  0.107  0.668  0.114-  58 1.96  64 1.97  55 2.02  94 2.02  79 2.04  61 2.06  18 2.85  22 2.99
                            25 3.02  47 3.04  31 3.05   9 3.09   6 3.13  16 3.15
   4  0.342  0.002  0.986-  63 2.07  66 2.10  60 2.11  99 2.12  93 2.13  96 2.21  13 2.77  12 2.79
                             7 2.90   1 2.92  48 2.94  33 2.98  32 3.00  30 3.00  47 3.04  23 3.06
   5  0.223  0.335  0.220-  80 1.95  86 1.97  62 1.98  65 2.04  83 2.05  59 2.05  40 2.99  24 3.00
                            17 3.02  43 3.03  31 3.08  10 3.09   2 3.10  14 3.10  21 3.20
   6  0.480  0.667  0.083-  67 1.94 100 1.96  70 2.02  61 2.04  64 2.18  85 2.20  26 2.68  18 2.79
                            25 2.82  50 2.92  34 2.99  11 3.09   3 3.13
   7  0.674  0.002  0.985-  69 2.08  66 2.10  72 2.11 105 2.12  99 2.12 102 2.19  13 2.76  15 2.78
                             4 2.90   1 2.92  33 2.95  35 2.96  36 2.96  51 3.01  53 3.02  19 3.06
   8  0.560  0.332  0.553-  77 1.96  89 1.97  98 2.02  95 2.02  74 2.04  92 2.06  21 2.85  17 2.99
                            24 3.02  48 3.04  46 3.05   2 3.09  10 3.13  14 3.15
   9  0.782  0.664  0.477-  82 1.93  97 1.96  79 2.04  76 2.04  58 2.17  73 2.18  22 2.65  26 2.66
                            25 2.85  49 2.87  40 3.05  41 3.06   3 3.09  11 3.10
  10  0.187  0.333  0.584- 104 1.94 107 1.96  83 2.02  92 2.04  89 2.18  86 2.20  27 2.68  21 2.79
                            24 2.82  54 2.92  52 2.99   5 3.09   8 3.13
  11  0.443  0.665  0.447-  73 1.95  85 1.97  91 1.98  88 2.04  70 2.05  76 2.05  37 2.99  25 3.00
                            22 3.02  43 3.03  46 3.08   6 3.09   9 3.10  16 3.10  18 3.20
  12  0.325  0.998  0.681-  90 2.07  87 2.10  75 2.11 108 2.12  96 2.13  93 2.21   1 2.77   4 2.79
                            15 2.90  13 2.92  47 2.94  44 2.98  45 3.00  38 3.00  48 3.04  23 3.06
  13  0.658  0.999  0.683-  78 2.08  81 2.10  75 2.10 102 2.11  96 2.13  99 2.20   7 2.76   4 2.77
                            15 2.92  12 2.92  50 2.95  39 2.98  38 2.99  41 3.03  48 3.06  19 3.08
  14  0.588  0.336  0.892- 101 1.93  68 1.94  98 2.04  65 2.04  62 2.16  95 2.20  27 2.63  21 2.68
                            17 2.78  34 2.95  51 2.98  49 3.01   5 3.10   8 3.15  24 3.27
  15  0.993  0.998  0.681-  84 2.08  87 2.10  81 2.11 102 2.12 108 2.12 105 2.19   1 2.76   7 2.78
                            12 2.90  13 2.92  44 2.95  42 2.96  41 2.96  53 3.01  51 3.02  20 3.06
  16  0.079  0.664  0.774- 106 1.93 103 1.94  55 2.04  88 2.04  91 2.16  94 2.20  26 2.63  18 2.68
                            22 2.78  52 2.95  53 2.98  28 3.01  11 3.10   3 3.15  25 3.27
  17  0.572  0.324  0.212-  68 1.96  86 2.12  71 2.17  74 2.24  89 2.36   2 2.65  14 2.78  27 2.87
                             8 2.99   5 3.02
  18  0.797  0.682  0.085-  67 1.93  55 2.07  58 2.27 106 2.27  73 2.29  53 2.66  16 2.68   6 2.79
                            26 2.83   3 2.85  11 3.20
  19  0.666  0.000  0.333-  69 2.06  78 2.07  57 2.08  90 2.09  75 2.11  72 2.12  29 2.78  39 2.80
                            45 2.83  23 2.90  20 2.93   7 3.06  12 3.07  13 3.08   1 3.10
  20  0.001  1.000  0.333-  84 2.06  57 2.07  78 2.08  63 2.09  60 2.11  81 2.12  39 2.78  29 2.80
                            32 2.83  23 2.90  19 2.93  15 3.06   4 3.07   1 3.08  13 3.10
  21  0.870  0.318  0.581- 104 1.93  98 2.07  77 2.27 101 2.27  80 2.29  51 2.66  14 2.68  10 2.79
                            27 2.83   8 2.85   5 3.20
  22  0.095  0.676  0.455- 103 1.96  85 2.12  82 2.17  79 2.24  64 2.36   9 2.65  16 2.78  26 2.87
                             3 2.99  11 3.02
  23  0.333  0.000  0.333-  90 2.07  63 2.07  69 2.08  84 2.08  66 2.09  87 2.09  45 2.83  32 2.83
                            19 2.90  20 2.90   4 3.06  12 3.06   7 3.08  15 3.08
  24  0.217  0.330  0.886-  56 2.00 107 2.04  62 2.08  95 2.20  92 2.38  59 2.50  10 2.82   2 2.85
                            27 2.85   5 3.00   8 3.02  14 3.27
  25  0.450  0.670  0.781-  97 2.00 100 2.04  91 2.08  94 2.20  61 2.38  76 2.50   6 2.82   9 2.85
                            26 2.85  11 3.00   3 3.02  16 3.27
  26  0.777  0.670  0.779-  97 2.02 103 2.07 100 2.10 106 2.17  67 2.37  82 2.46  16 2.63   9 2.66
                             6 2.68  18 2.83  25 2.85  22 2.87
  27  0.890  0.330  0.888-  56 2.02  68 2.07 107 2.10 101 2.17 104 2.37  71 2.46  14 2.63   2 2.66
                            10 2.68  21 2.83  24 2.85  17 2.87
  28  0.001  0.496  0.985- 106 2.02 107 2.06  71 2.07  94 2.14  59 2.23   2 2.87  16 3.01
  29  0.877  0.851  0.239-  79 2.03  72 2.04  78 2.07  60 2.10  19 2.78  20 2.80   1 2.98
  30  0.104  0.158  0.119-  93 2.02  57 2.03  63 2.05  80 2.18  56 2.23   1 2.99   4 3.00
  31  0.332  0.502  0.986-  65 1.90  94 2.10 100 2.14  64 2.18  95 2.26   3 3.05   5 3.08
  32  0.217  0.848  0.235-  60 2.07  66 2.08  84 2.10  61 2.13  20 2.83  23 2.83   4 3.00
  33  0.444  0.157  0.120-  69 1.99  99 2.00  63 2.04  68 2.22   7 2.95   4 2.98
  34  0.687  0.500  0.999- 106 1.96  71 1.97 101 2.05 100 2.25  14 2.95   6 2.99
  35  0.554  0.848  0.228-  66 2.04  72 2.06  67 2.09  90 2.15   7 2.96
  36  0.769  0.160  0.114- 105 2.01  69 2.03  68 2.10  57 2.12  56 2.27   7 2.96   1 3.03   2 3.06

  37  0.669  0.504  0.321-  71 1.86  76 1.91  70 2.15  58 2.20  77 2.23  11 2.99   2 3.05
  38  0.562  0.842  0.548-  96 2.02  78 2.03  90 2.05  73 2.18  97 2.23  13 2.99  12 3.00
  39  0.789  0.149  0.427-  74 2.03  81 2.04  57 2.07  75 2.10  20 2.78  19 2.80  13 2.98
  40  0.997  0.496  0.345-  82 1.86  59 1.91  83 2.15  77 2.20  58 2.23   5 2.99   9 3.05
  41  0.897  0.840  0.553- 102 2.01  84 2.03 103 2.10  78 2.12  97 2.27  15 2.96  13 3.03   9 3.06

  42  0.113  0.152  0.439-  87 2.04  81 2.06 104 2.09  63 2.15  15 2.96
  43  0.333  0.500  0.333-  70 1.85  83 1.85  89 2.25  64 2.25  11 3.03   5 3.03
  44  0.223  0.843  0.547-  84 1.99 108 2.00  90 2.04 103 2.22  15 2.95  12 2.98
  45  0.450  0.152  0.431-  75 2.07  87 2.08  69 2.10  92 2.13  19 2.83  23 2.83  12 3.00
  46  0.335  0.498  0.680-  88 1.90  95 2.10 107 2.14  89 2.18  94 2.26   8 3.05  11 3.08
  47  0.230  0.833  0.884-  55 1.96  96 2.00 108 2.05  60 2.24  61 2.26  12 2.94   3 3.04   4 3.04
                             1 3.06
  48  0.437  0.167  0.782-  98 1.96  93 2.00  99 2.05  75 2.24  92 2.26   4 2.94   8 3.04  12 3.04
                            13 3.06
  49  0.666  0.504  0.681- 101 2.02 100 2.06  82 2.07  95 2.14  76 2.23   9 2.87  14 3.01
  50  0.564  0.829  0.875-  96 2.02 102 2.04  97 2.06  67 2.15  61 2.25   6 2.92  13 2.95
  51  0.790  0.169  0.771- 104 2.02 105 2.03  99 2.14  81 2.18  98 2.22  68 2.23  21 2.66  14 2.98
                             7 3.01  15 3.02  13 3.08
  52  0.980  0.500  0.668- 101 1.96  82 1.97 106 2.05 107 2.25  16 2.95  10 2.99
  53  0.876  0.831  0.896-  67 2.02 102 2.03 108 2.14  72 2.18  55 2.22 103 2.23  18 2.66  16 2.98
                            15 3.01   7 3.02   1 3.08
  54  0.103  0.171  0.791-  93 2.02 105 2.04  56 2.06 104 2.15  92 2.25  10 2.92   1 2.95
  55  0.039  0.746  0.970-  47 1.96   3 2.02  16 2.04  18 2.07  53 2.22
  56  0.001  0.254  0.998-   2 1.96  24 2.00  27 2.02  54 2.06  30 2.23  36 2.27
  57  0.897  0.074  0.208-  30 2.03  39 2.07  20 2.07   1 2.08  19 2.08  36 2.12
  58  0.893  0.596  0.233-   3 1.96   9 2.17  37 2.20  40 2.23  18 2.27
  59  0.083  0.420  0.152-  40 1.91   2 2.04   5 2.05  28 2.23  24 2.50
  60  0.113  0.923  0.109-  32 2.07  29 2.10   1 2.10   4 2.11  20 2.11  47 2.24
  61  0.319  0.750  0.041-   6 2.04   3 2.06  32 2.13  50 2.25  47 2.26  25 2.38
  62  0.340  0.266  0.007-   5 1.98  24 2.08  14 2.16
  63  0.230  0.076  0.208-  33 2.04  30 2.05  23 2.07   4 2.07  20 2.09  42 2.15
  64  0.234  0.593  0.200-   3 1.97   6 2.18  31 2.18  43 2.25  22 2.36
  65  0.427  0.420  0.082-  31 1.90   5 2.04  14 2.04
  66  0.445  0.924  0.112-  35 2.04  32 2.08  23 2.09   4 2.10   7 2.10
  67  0.655  0.758  0.027-  18 1.93   6 1.94  53 2.02  35 2.09  50 2.15  26 2.37
  68  0.667  0.251  0.006-  14 1.94  17 1.96  27 2.07  36 2.10  33 2.22  51 2.23
  69  0.562  0.075  0.209-  33 1.99  36 2.03  19 2.06  23 2.08   7 2.08  45 2.10
  70  0.512  0.582  0.243-  43 1.85   6 2.02  11 2.05  37 2.15
  71  0.767  0.429  0.135-  37 1.86   2 1.93  34 1.97  28 2.07  17 2.17  27 2.46
  72  0.780  0.923  0.108-  29 2.04  35 2.06   1 2.10   7 2.11  19 2.12  53 2.18
  73  0.654  0.738  0.357-  11 1.95   9 2.18  38 2.18  18 2.29
  74  0.692  0.251  0.349-  39 2.03   2 2.04   8 2.04  17 2.24
  75  0.553  0.077  0.557-  45 2.07  39 2.10  13 2.10  12 2.11  19 2.11  48 2.24
  76  0.583  0.580  0.515-  37 1.91   9 2.04  11 2.05  49 2.23  25 2.50
  77  0.774  0.404  0.434-   8 1.96   2 2.17  40 2.20  37 2.23  21 2.27
  78  0.770  0.926  0.459-  38 2.03  29 2.07  19 2.07  13 2.08  20 2.08  41 2.12
  79  0.975  0.749  0.317-  29 2.03   9 2.04   3 2.04  22 2.24
  80  0.012  0.262  0.310-   5 1.95   2 2.18  30 2.18  21 2.29
  81  0.886  0.077  0.558-  39 2.04  42 2.06  13 2.10  15 2.11  20 2.12  51 2.18
  82  0.900  0.571  0.532-  40 1.86   9 1.93  52 1.97  49 2.07  22 2.17  26 2.46
  83  0.154  0.418  0.423-  43 1.85  10 2.02   5 2.05  40 2.15
  84  0.105  0.925  0.458-  44 1.99  41 2.03  20 2.06  23 2.08  15 2.08  32 2.10
  85  0.346  0.737  0.328-  11 1.97  22 2.12   6 2.20
  86  0.321  0.263  0.339-   5 1.97  17 2.12  10 2.20
  87  0.221  0.076  0.555-  42 2.04  45 2.08  23 2.09  12 2.10  15 2.10
  88  0.240  0.580  0.585-  46 1.90  11 2.04  16 2.04
  89  0.432  0.407  0.467-   8 1.97  10 2.18  46 2.18  43 2.25  17 2.36
  90  0.437  0.924  0.459-  44 2.04  38 2.05  23 2.07  12 2.07  19 2.09  35 2.15
  91  0.326  0.734  0.660-  11 1.98  25 2.08  16 2.16
  92  0.348  0.250  0.625-  10 2.04   8 2.06  45 2.13  54 2.25  48 2.26  24 2.38
  93  0.219  0.094  0.894-  48 2.00  30 2.02  54 2.02   1 2.13   4 2.13  12 2.21
  94  0.206  0.592  0.902-   3 2.02  31 2.10  28 2.14  25 2.20  16 2.20  46 2.26
  95  0.461  0.408  0.765-   8 2.02  46 2.10  49 2.14  24 2.20  14 2.20  31 2.26
  96  0.447  0.906  0.773-  47 2.00  38 2.02  50 2.02  13 2.13  12 2.13   4 2.21
  97  0.666  0.746  0.668-   9 1.96  25 2.00  26 2.02  50 2.06  38 2.23  41 2.27
  98  0.628  0.254  0.697-  48 1.96   8 2.02  14 2.04  21 2.07  51 2.22
  99  0.552  0.094  0.896-  33 2.00  48 2.05   7 2.12   4 2.12  51 2.14  13 2.20
 100  0.555  0.587  0.888-   6 1.96  25 2.04  49 2.06  26 2.10  31 2.14  34 2.25
 101  0.773  0.423  0.786-  14 1.93  52 1.96  49 2.02  34 2.05  27 2.17  21 2.27
 102  0.781  0.908  0.773-  41 2.01  53 2.03  50 2.04  13 2.11  15 2.12   7 2.19
 103  1.000  0.749  0.661-  16 1.94  22 1.96  26 2.07  41 2.10  44 2.22  53 2.23
 104  0.011  0.242  0.639-  21 1.93  10 1.94  51 2.02  42 2.09  54 2.15  27 2.37
 105  0.886  0.092  0.894-  36 2.01  51 2.03  54 2.04   1 2.11   7 2.12  15 2.19
 106  0.894  0.577  0.881-  16 1.93  34 1.96  28 2.02  52 2.05  26 2.17  18 2.27
 107  0.111  0.413  0.778-  10 1.96  24 2.04  28 2.06  27 2.10  46 2.14  52 2.25
 108  0.115  0.906  0.771-  44 2.00  47 2.05  15 2.12  12 2.12  53 2.14   1 2.20
 
  LATTYP: Found a triclinic cell.
 ALAT       =     8.7395645762
 B/A-ratio  =     1.7397172532
 C/A-ratio  =     1.9978565717
 COS(alpha) =     0.0000747756
 COS(beta)  =     0.2553146243
 COS(gamma) =     0.8595790627
  
  Lattice vectors:
  
 A1 = (  -8.7395239843,  -0.0141833376,   0.0225464735)
 A2 = ( -13.0892264898,  -0.0920933419,  -7.7354104417)
 A3 = (  -4.4137438017, -15.0642906525,   7.6453554208)


Analysis of symmetry for initial positions (statically):
=====================================================================
 Subroutine PRICEL returns:
 Original cell was already a primitive cell.
 

 Routine SETGRP: Setting up the symmetry group for a 
 triclinic supercell.


 Subroutine GETGRP returns: Found  2 space group operations
 (whereof  1 operations were pure point group operations)
 out of a pool of  2 trial point group operations.


The static configuration has the point symmetry C_1 .
 The point group associated with its full space group is S_2 .


Analysis of symmetry for dynamics (positions and initial velocities):
=====================================================================
 Subroutine PRICEL returns:
 Original cell was already a primitive cell.
 

 Routine SETGRP: Setting up the symmetry group for a 
 triclinic supercell.


 Subroutine GETGRP returns: Found  2 space group operations
 (whereof  1 operations were pure point group operations)
 out of a pool of  2 trial point group operations.


The dynamic configuration has the point symmetry C_1 .
 The point group associated with its full space group is S_2 .


Analysis of structural, dynamic, and magnetic symmetry:
=====================================================================
 Subroutine PRICEL returns:
 Original cell was already a primitive cell.
 

 Routine SETGRP: Setting up the symmetry group for a 
 triclinic supercell.


 Subroutine GETGRP returns: Found  2 space group operations
 (whereof  1 operations were pure point group operations)
 out of a pool of  2 trial point group operations.


The magnetic configuration has the point symmetry C_1 .
 The point group associated with its full space group is S_2 .


 Subroutine INISYM returns: Found  2 space group operations
 (whereof  1 operations are pure point group operations),
 and found     1 'primitive' translations

 
 
 KPOINTS: Automatic mesh                          

Automatic generation of k-mesh.
Space group operators:
 irot       det(A)        alpha          n_x          n_y          n_z        tau_x        tau_y        tau_z
    1     1.000000     0.000001     1.000000     0.000000     0.000000     0.000000     0.000000     0.000000
    2    -1.000000     0.000001     1.000000     0.000000     0.000000    -0.333333     0.000000    -0.333333
 
 Subroutine IBZKPT returns following result:
 ===========================================
 
 Found      1 irreducible k-points:
 
 Following reciprocal coordinates:
            Coordinates               Weight
  0.000000  0.000000  0.000000      1.000000
 
 Following cartesian coordinates:
            Coordinates               Weight
  0.000000  0.000000  0.000000      1.000000
 


--------------------------------------------------------------------------------------------------------




 Dimension of arrays:
   k-points           NKPTS =      1   k-points in BZ     NKDIM =      1   number of bands    NBANDS=    432
   number of dos      NEDOS =    301   number of ions     NIONS =    108
   non local maximal  LDIM  =      6   non local SUM 2l+1 LMDIM =     18
   total plane-waves  NPLWV = 501760
   max r-space proj   IRMAX =   8607   max aug-charges    IRDMAX=  27642
   dimension x,y,z NGX =    64 NGY =  112 NGZ =   70
   dimension x,y,z NGXF=   128 NGYF=  224 NGZF=  140
   support grid    NGXF=   128 NGYF=  224 NGZF=  140
   ions per type =              16  11  27  54
   NGX,Y,Z   is equivalent  to a cutoff of  12.17, 12.31, 13.08 a.u.
   NGXF,Y,Z  is equivalent  to a cutoff of  24.35, 24.61, 26.17 a.u.

 SYSTEM =  unknown system                          
 POSCAR =  ce166636_1                              

 Startparameter for this run:
   NWRITE =      1    write-flag & timer
   PREC   = accura    normal or accurate (medium, high low for compatibility)
   ISTART =      0    job   : 0-new  1-cont  2-samecut
   ICHARG =      2    charge: 1-file 2-atom 10-const
   ISPIN  =      2    spin polarized calculation?
   LNONCOLLINEAR =      F non collinear calculations
   LSORBIT =      F    spin-orbit coupling
   INIWAV =      1    electr: 0-lowe 1-rand  2-diag
   LASPH  =      F    aspherical Exc in radial PAW
   METAGGA=      F    non-selfconsistent MetaGGA calc.

 Electronic Relaxation 1
   ENCUT  =  500.0 eV  36.75 Ry    6.06 a.u.  15.93 27.58 16.22*2*pi/ulx,y,z
   ENINI  =  500.0     initial cutoff
   ENAUG  =  628.9 eV  augmentation charge cutoff
   NELM   =     80;   NELMIN=  2; NELMDL= -5     # of ELM steps 
   EDIFF  = 0.1E-04   stopping-criterion for ELM
   LREAL  =      T    real-space projection
   NLSPLINE    = F    spline interpolate recip. space projectors
   LCOMPAT=      F    compatible to vasp.4.4
   GGA_COMPAT  = T    GGA compatible to vasp.4.4-vasp.4.6
   LMAXPAW     = -100 max onsite density
   LMAXMIX     =    2 max onsite mixed and CHGCAR
   VOSKOWN=      1    Vosko Wilk Nusair interpolation
   ROPT   =   -0.00025  -0.00025  -0.00025  -0.00025
 Ionic relaxation
   EDIFFG = -.2E-01   stopping-criterion for IOM
   NSW    =     20    number of steps for IOM
   NBLOCK =      1;   KBLOCK =     20    inner block; outer block 
   IBRION =      1    ionic relax: 0-MD 1-quasi-New 2-CG
   NFREE  =      0    steps in history (QN), initial steepest desc. (CG)
   ISIF   =      3    stress and relaxation
   IWAVPR =     11    prediction:  0-non 1-charg 2-wave 3-comb
   ISYM   =      2    0-nonsym 1-usesym 2-fastsym
   LCORR  =      T    Harris-Foulkes like correction to forces

   POTIM  = 0.5000    time-step for ionic-motion
   TEIN   =    0.0    initial temperature
   TEBEG  =    0.0;   TEEND  =   0.0 temperature during run
   SMASS  =  -3.00    Nose mass-parameter (am)
   estimated Nose-frequenzy (Omega)   =  0.10E-29 period in steps =****** mass=  -0.175E-26a.u.
   SCALEE = 1.0000    scale energy and forces
   NPACO  =    256;   APACO  = 16.0  distance and # of slots for P.C.
   PSTRESS=    0.0 pullay stress

  Mass of Ions in am
   POMASS = 180.95 58.69  7.01 16.00
  Ionic Valenz
   ZVAL   =  11.00 10.00  3.00  6.00
  Atomic Wigner-Seitz radii
   RWIGS  =   1.34  1.15  1.23  0.73
  virtual crystal weights 
   VCA    =   1.00  1.00  1.00  1.00
   NELECT =     691.0000    total number of electrons
   NUPDOWN=      -1.0000    fix difference up-down

 DOS related values:
   EMIN   =  10.00;   EMAX   =-10.00  energy-range for DOS
   EFERMI =   0.00
   ISMEAR =     0;   SIGMA  =   0.05  broadening in eV -4-tet -1-fermi 0-gaus

 Electronic relaxation 2 (details)
   IALGO  =     38    algorithm
   LDIAG  =      T    sub-space diagonalisation (order eigenvalues)
   LSUBROT=      F    optimize rotation matrix (better conditioning)
   TURBO    =      0    0=normal 1=particle mesh
   IRESTART =      0    0=no restart 2=restart with 2 vectors
   NREBOOT  =      0    no. of reboots
   NMIN     =      0    reboot dimension
   EREF     =   0.00    reference energy to select bands
   IMIX   =      4    mixing-type and parameters
     AMIX     =   0.40;   BMIX     =  1.00
     AMIX_MAG =   1.60;   BMIX_MAG =  1.00
     AMIN     =   0.10
     WC   =   100.;   INIMIX=   1;  MIXPRE=   1;  MAXMIX= -45

 Intra band minimization:
   WEIMIN = 0.0010     energy-eigenvalue tresh-hold
   EBREAK =  0.58E-08  absolut break condition
   DEPER  =   0.30     relativ break condition  

   TIME   =   0.40     timestep for ELM

  volume/ion in A,a.u.               =       9.51        64.18
  Fermi-wavevector in a.u.,A,eV,Ry     =   1.434492  2.710796 27.997614  2.057767
  Thomas-Fermi vector in A             =   2.553894
 
 Write flags
   LWAVE        =      F    write WAVECAR
   LDOWNSAMPLE  =      F    k-point downsampling of WAVECAR
   LCHARG       =      T    write CHGCAR
   LVTOT        =      F    write LOCPOT, total local potential
   LVHAR        =      F    write LOCPOT, Hartree potential only
   LELF         =      F    write electronic localiz. function (ELF)
   LORBIT       =      0    0 simple, 1 ext, 2 COOP (PROOUT), +10 PAW based schemes


 Dipole corrections
   LMONO  =      F    monopole corrections only (constant potential shift)
   LDIPOL =      F    correct potential (dipole corrections)
   IDIPOL =      0    1-x, 2-y, 3-z, 4-all directions 
   EPSILON=  1.0000000 bulk dielectric constant

 Exchange correlation treatment:
   GGA     =    PS    GGA type
   LEXCH   =    14    internal setting for exchange type
   VOSKOWN=      1    Vosko Wilk Nusair interpolation
   LHFCALC =     F    Hartree Fock is set to
   LHFONE  =     F    Hartree Fock one center treatment
   AEXX    =    0.0000 exact exchange contribution

 Linear response parameters
   LEPSILON=     F    determine dielectric tensor
   LRPA    =     F    only Hartree local field effects (RPA)
   LNABLA  =     F    use nabla operator in PAW spheres
   LVEL    =     F    velocity operator in full k-point grid
   LINTERFAST=   F  fast interpolation
   KINTER  =     0    interpolate to denser k-point grid
   CSHIFT  =0.1000    complex shift for real part using Kramers Kronig
   OMEGAMAX=  -1.0    maximum frequency
   DEG_THRESHOLD= 0.2000000E-02 threshold for treating states as degnerate
   RTIME   =   -0.100 relaxation time in fs
  (WPLASMAI=    0.000 imaginary part of plasma frequency in eV, 0.658/RTIME)
   DFIELD  = 0.0000000 0.0000000 0.0000000 field for delta impulse in time
 
 Orbital magnetization related:
   ORBITALMAG=     F  switch on orbital magnetization
   LCHIMAG   =     F  perturbation theory with respect to B field
   DQ        =  0.001000  dq finite difference perturbation B field
   LLRAUG    =     F  two centre corrections for induced B field



--------------------------------------------------------------------------------------------------------


 quasi-Newton-method for relaxation of ions
 charge density and potential will be updated during run
 spin polarized calculation
 Variant of blocked Davidson
 Davidson routine will perform the subspace rotation
 perform sub-space diagonalisation
    after iterative eigenvector-optimisation
 modified Broyden-mixing scheme, WC =      100.0
 initial mixing is a Kerker type mixing with AMIX =  0.4000 and BMIX =      1.0000
 Hartree-type preconditioning will be used
 using additional bands           86
 real space projection scheme for non local part
 use partial core corrections
 calculate Harris-corrections to forces 
   (improved forces if not selfconsistent)
 use gradient corrections 
 use of overlap-Matrix (Vanderbilt PP)
 Gauss-broadening in eV      SIGMA  =   0.05


--------------------------------------------------------------------------------------------------------


  energy-cutoff  :      500.00
  volume of cell :     1027.09
      direct lattice vectors                 reciprocal lattice vectors
     8.739523984  0.014183338 -0.022546474     0.114256796  0.000391655 -0.064065010
     0.023922323 15.128017319  0.135147968    -0.000108842  0.066108073 -0.000602871
     4.349702505  0.077910004  7.757956915     0.000333954 -0.001150502  0.128724231

  length of vectors
     8.739564576 15.128639901  8.894485784     0.130992726  0.066110912  0.128729805


 
 k-points in units of 2pi/SCALE and weight: Automatic mesh                          
   0.00000000  0.00000000  0.00000000       1.000
 
 k-points in reciprocal lattice and weights: Automatic mesh                          
   0.00000000  0.00000000  0.00000000       1.000
 
 position of ions in fractional coordinates (direct lattice) 
   0.00859758  0.00088162  0.98352029
   0.88481232  0.33649584  0.18969407
   0.10701926  0.66772921  0.11368388
   0.34164791  0.00157071  0.98573517
   0.22317372  0.33517707  0.22016169
   0.47999237  0.66695225  0.08257306
   0.67360700  0.00150320  0.98521490
   0.55964740  0.33227079  0.55298279
   0.78185435  0.66350416  0.47697259
   0.18667430  0.33304775  0.58409361
   0.44349295  0.66482293  0.44650497
   0.32501875  0.99842929  0.68093150
   0.65806908  0.99911838  0.68314638
   0.58762715  0.33611539  0.89235404
   0.99305967  0.99849680  0.68145177
   0.07903951  0.66388461  0.77431263
   0.57185867  0.32445367  0.21210719
   0.79698491  0.68249328  0.08529997
   0.66562906  0.00035137  0.33342123
   0.00103761  0.99964863  0.33324543
   0.86968175  0.31750672  0.58136670
   0.09480801  0.67554633  0.45455947
   0.33333334  0.00000000  0.33333333
   0.21711958  0.32977599  0.88588518
   0.44954708  0.67022401  0.78078149
   0.77653422  0.67022645  0.77866000
   0.89013245  0.32977355  0.88800667
   0.00103952  0.49589453  0.98543092
   0.87740409  0.85126603  0.23922545
   0.10424241  0.15823117  0.11900468
   0.33151906  0.50186997  0.98627234
   0.21681628  0.84821747  0.23545871
   0.44401352  0.15673206  0.11962836
   0.68713615  0.50001214  0.99871659
   0.55404308  0.84842900  0.22764025
   0.76925177  0.15980301  0.11375452
   0.66937869  0.50446449  0.32116898
   0.56242425  0.84176883  0.54766199
   0.78926258  0.14873397  0.42744121
   0.99728798  0.49553551  0.34549768
   0.89741489  0.84019699  0.55291215
   0.11262360  0.15157100  0.43902641
   0.33333334  0.50000000  0.33333333
   0.22265315  0.84326794  0.54703831
   0.44985039  0.15178253  0.43120795
   0.33514760  0.49813003  0.68039433
   0.22974831  0.83251998  0.88438381
   0.43691835  0.16748002  0.78228286
   0.66562714  0.50410547  0.68123575
   0.56360380  0.82918068  0.87517721
   0.79019157  0.16913320  0.77052932
   0.97953052  0.49998786  0.66795008
   0.87647510  0.83086680  0.89613735
   0.10306286  0.17081932  0.79148946
   0.03870742  0.74594638  0.96956252
   0.00084907  0.25431294  0.99829523
   0.89663260  0.07365949  0.20771721
   0.89304871  0.59635443  0.23308299
   0.08342738  0.42021271  0.15173813
   0.11319122  0.92293724  0.10919471
   0.31880410  0.75028837  0.04149851
   0.34036956  0.26611488  0.00666226
   0.22993626  0.07551772  0.20791135
   0.23448317  0.59322689  0.20012519
   0.42693107  0.42002238  0.08157973
   0.44519450  0.92383838  0.11167103
   0.65530887  0.75828338  0.02726370
   0.66710482  0.25149386  0.00581474
   0.56210534  0.07504691  0.20890122
   0.51245898  0.58244610  0.24332349
   0.76668785  0.42909480  0.13489048
   0.78047552  0.92289621  0.10845921
   0.65449524  0.73783660  0.35691239
   0.69180792  0.25092442  0.34941495
   0.55347544  0.07706276  0.55747196
   0.58323928  0.57978729  0.51492854
   0.77361796  0.40364557  0.43358367
   0.77003407  0.92634051  0.45894945
   0.97485875  0.74907558  0.31725171
   0.01217143  0.26216340  0.30975427
   0.88619114  0.07710379  0.55820746
   0.89997881  0.57090520  0.53177619
   0.15420770  0.41755390  0.42334317
   0.10456134  0.92495309  0.45776544
   0.34581582  0.73693089  0.32774741
   0.32085086  0.26306911  0.33891925
   0.22147217  0.07616162  0.55499564
   0.23973560  0.57997762  0.58508694
   0.43218350  0.40677311  0.46654147
   0.43673041  0.92448228  0.45875531
   0.32629710  0.73388512  0.66000441
   0.34786256  0.24971163  0.62516816
   0.21936098  0.09373700  0.89387946
   0.20595281  0.59229877  0.90154605
   0.46071385  0.40770123  0.76512062
   0.44730568  0.90626300  0.77278721
   0.66581759  0.74568706  0.66837144
   0.62795924  0.25405362  0.69710415
   0.55178499  0.09378120  0.89562076
   0.55549240  0.58694493  0.88832084
   0.77312736  0.42293724  0.78587117
   0.78051677  0.90801103  0.77266091
   0.99956185  0.74850614  0.66085193
   0.01135780  0.24171662  0.63940297
   0.88614990  0.09198897  0.89400576
   0.89353931  0.57706276  0.88079550
   0.11117426  0.41305507  0.77834583
   0.11488167  0.90621880  0.77104591
 
 position of ions in cartesian coordinates  (Angst):
   4.35318052  0.09008518  7.63003334
   8.56600103  5.11784355  1.49716575
   1.44576208 10.11179406  0.96978398
   7.27353242  0.10540607  7.63980030
   2.91608815  5.09088267  1.74827162
   4.57002812 10.10290635  0.71991335
  10.17243221  0.10905253  7.62827044
   7.30431119  5.07761883  4.32230431
   8.92359627 10.08575266  3.77237598
   4.18004524  5.08650653  4.57217494
   5.83398517 10.09853021  3.54381659
   5.82624336 15.16191682  5.41024490
   8.74659526 15.17723771  5.42001186
   9.02509684  5.16261726  6.95502059
  11.66686764 15.17245369  5.39922829
   4.07467894 10.10470562  6.09502462
   5.92813742  4.93297688  1.67647430
   7.35262505 10.34271979  0.73602187
   7.26757270  0.04073322  2.57170744
   1.48250062 15.14867966  2.72038077
  10.13697220  4.86087643  4.53351994
   2.82193598 10.25643600  3.61561391
   4.36307554  0.03069778  2.57847012
   5.75874777  5.06095569  6.91233233
   7.34102801 10.20636720  6.13771287
  10.18951217 10.21087659  6.11388237
  11.64978768  5.07062963  6.91361636
   4.30727920  7.57869071  7.71192632
   8.72901789 12.90904982  1.95116524
   1.43244925  2.40447404  0.94226750
   7.19931594  7.67384013  7.71181044
   2.93933775 12.85326834  1.93642495
   4.40456398  2.38666316  0.93924274
  10.36132437  7.65174821  7.80008340
   5.85253654 12.86064224  1.86819499
   7.22151547  2.43727588  0.88675580
   7.25910860  7.66606384  2.54470033
   7.31762402 12.78493884  4.34982079
   8.76057941  2.29454640  3.31837650
  10.23048871  7.53753238  2.72484141
  10.26808178 12.76632034  4.38278601
   2.89753686  2.32877064  3.42389322
   4.37503670  7.59470644  2.64604411
   4.34550938 12.80274972  4.35284555
   5.81073556  2.33614454  3.35566326
   5.90045984  7.59348276  5.33823476
   5.87461315 12.66653762  6.96834486
   7.22516263  2.60078526  6.08170034
   8.79249658  7.68863218  5.33811888
   8.75222536 12.62003853  6.88894189
  10.26151755  2.62988948  5.98277524
  11.47797548  7.62975801  5.22741533
  11.57778230 12.65161675  7.04472349
   4.34755042  2.64728435  6.16110331
   4.57343772 11.36077738  7.62176468
   4.35579149  3.92503979  7.77908212
   8.74141229  1.14322253  1.60120019
   8.83292847  9.05248605  1.86870878
   1.39918378  6.36999035  1.23208778
   1.48628069 13.97232334  0.96930889
   2.98465089 11.35813031  0.41615569
   3.01001287  4.03113715  0.07997628
   2.91569254  1.16189301  1.61798911
   2.93394769  8.99326417  1.62744924
   4.09606979  6.36651702  0.68003141
   4.39862413 13.99085765  0.98115635
   5.86381647 11.48274269  0.29921616
   5.86148728  3.81451827  0.06405853
   5.82298656  1.15955898  1.61811561
   5.55096580  8.83748040  1.95485542
   7.29748526  6.51273708  1.08717972
   7.31482764 13.98110965  0.94855246
   7.29009033 11.19909484  2.85387150
   7.57192569  3.83302404  2.72906022
   7.26379258  1.21708954  4.32277940
   7.35088950  8.81942253  4.06000051
   8.65666883  6.15111016  3.40083295
   8.74818501 14.06037369  3.66834154
   9.91767161 11.37057218  2.54048151
   1.45998299  3.99031804  2.43821671
  10.17476961  1.22248656  4.32098936
  10.19211200  8.69085914  4.18236210
   3.19910760  6.35193248  3.33723279
   2.92708685 14.02985390  3.67397260
   4.46549848 11.17874289  2.63444807
   4.28457492  4.01066999  2.65764014
   4.35144923  1.19855523  4.31093194
   4.65400357  8.82289586  4.61205688
   5.81612562  6.19614871  3.66463897
   5.83438078 14.02751987  3.67409910
   5.74006040 11.15827573  5.21211201
   5.76542238  3.83128257  4.87593260
   5.80746268  1.49080838  6.94240089
   5.73555580  9.03346661  7.06955988
   7.36421998  6.23385628  5.98048533
   7.29231310 13.77651450  6.10764432
   8.74398429 11.34228310  5.27096309
   8.52633806  3.90654551  5.42828053
   8.72026548  1.49632759  6.94842080
   8.73271162  8.95640088  6.95835482
  10.18518854  6.47039464  6.13648249
  10.20391186 13.80767494  6.09938799
  11.62811006 11.38907795  5.20548329
   2.88625689  3.70667019  4.99287212
  11.63538799  1.47383129  6.92811074
  11.65411131  8.81111158  6.89101624
   4.36706416  6.31092200  6.09169038
   4.37951030 13.77099530  6.10162440
 


--------------------------------------------------------------------------------------------------------


 use serial FFT for orbitals x direction half grid
 k-point  1 :   0.0000 0.0000 0.0000  plane waves:   13027

 maximum and minimum number of plane-waves per node :     13027    13027

 maximum number of plane-waves:     13027
 maximum index in each direction: 
   IXMAX=   15   IYMAX=   27   IZMAX=   16
   IXMIN=    0   IYMIN=  -27   IZMIN=  -14

 The following grids will avoid any aliasing or wrap around errors in the Hartre
 e energy
  - symmetry arguments have not been applied
  - exchange correlation energies might require even more grid points
  - we recommend to set PREC=Normal or Accurate and rely on VASP defaults
 NGX is ok and might be reduce to    64
 NGY is ok and might be reduce to   112
 NGZ is ok and might be reduce to    64

 serial   3D FFT for wavefunctions
 parallel 3D FFT for charge:
    minimum data exchange during FFTs selected (reduces bandwidth)


 total amount of memory used by VASP MPI-rank0   163966. kBytes
=======================================================================

   base      :      30000. kBytes
   nonlr-proj:      45229. kBytes
   fftplans  :      10595. kBytes
   grid      :      64741. kBytes
   one-center:       1679. kBytes
   wavefun   :      11722. kBytes
 
     INWAV:  cpu time    0.0000: real time    0.0000
 Broyden mixing: mesh for mixing (old mesh)
   NGX = 31   NGY = 55   NGZ = 33
  (NGX  =128   NGY  =224   NGZ  =140)
  gives a total of  56265 points

 initial charge density was supplied:
 charge density of overlapping atoms calculated
 number of electron     691.0000000 magnetization      27.5000000
 keeping initial charge density in first step


--------------------------------------------------------------------------------------------------------


 Maximum index for non-local projection operator         8325
 Maximum index for augmentation-charges         1704 (set IRDMAX)


--------------------------------------------------------------------------------------------------------


 First call to EWALD:  gamma=   0.176
 Maximum number of real-space cells 3x 2x 3
 Maximum number of reciprocal cells 2x 4x 2

    FEWALD:  cpu time    0.0048: real time    0.0048


--------------------------------------- Iteration      1(   1)  ---------------------------------------


    POTLOK:  cpu time    0.3449: real time    0.4304
    SETDIJ:  cpu time    0.0419: real time    0.0420
     EDDAV:  cpu time    5.5214: real time    5.5534
    --------------------------------------------
      LOOP:  cpu time    5.9088: real time    6.0264

 eigenvalue-minimisations  :  1728
 total energy-change (2. order) : 0.1149792E+05  (-0.3557685E+05)
 number of electron     691.0000000 magnetization      27.5000000
 augmentation part      691.0000000 magnetization      27.5000000

 Free energy of the ion-electron system (eV)
  ---------------------------------------------------
  alpha Z        PSCENC =      3601.59803666
  Ewald energy   TEWEN  =    -44071.96874781
  -Hartree energ DENC   =    -13376.85244741
  -exchange      EXHF   =         0.00000000
  -V(xc)+E(xc)   XCENC  =      2618.25927971
  PAW double counting   =     44552.30397901   -45517.06092417
  entropy T*S    EENTRO =        -0.00614545
  eigenvalues    EBANDS =      6395.46495435
  atomic energy  EATOM  =     57296.18046829
  Solvation  Ediel_sol  =         0.00000000
  ---------------------------------------------------
  free energy    TOTEN  =     11497.91845317 eV

  energy without entropy =    11497.92459863  energy(sigma->0) =    11497.92152590


--------------------------------------------------------------------------------------------------------




--------------------------------------- Iteration      1(   2)  ---------------------------------------


     EDDAV:  cpu time    6.0027: real time    6.0176
    --------------------------------------------
      LOOP:  cpu time    6.0026: real time    6.0174

 eigenvalue-minimisations  :  1808
 total energy-change (2. order) :-0.1017327E+05  (-0.9586331E+04)
 number of electron     691.0000000 magnetization      27.5000000
 augmentation part      691.0000000 magnetization      27.5000000

 Free energy of the ion-electron system (eV)
  ---------------------------------------------------
  alpha Z        PSCENC =      3601.59803666
  Ewald energy   TEWEN  =    -44071.96874781
  -Hartree energ DENC   =    -13376.85244741
  -exchange      EXHF   =         0.00000000
  -V(xc)+E(xc)   XCENC  =      2618.25927971
  PAW double counting   =     44552.30397901   -45517.06092417
  entropy T*S    EENTRO =        -0.02684194
  eigenvalues    EBANDS =     -3777.78028066
  atomic energy  EATOM  =     57296.18046829
  Solvation  Ediel_sol  =         0.00000000
  ---------------------------------------------------
  free energy    TOTEN  =      1324.65252168 eV

  energy without entropy =     1324.67936362  energy(sigma->0) =     1324.66594265


--------------------------------------------------------------------------------------------------------




--------------------------------------- Iteration      1(   3)  ---------------------------------------


     EDDAV:  cpu time    6.5774: real time    6.5938
    --------------------------------------------
      LOOP:  cpu time    6.5774: real time    6.5938

 eigenvalue-minimisations  :  1968
 total energy-change (2. order) :-0.2002694E+04  (-0.1825440E+04)
 number of electron     691.0000000 magnetization      27.5000000
 augmentation part      691.0000000 magnetization      27.5000000

 Free energy of the ion-electron system (eV)
  ---------------------------------------------------
  alpha Z        PSCENC =      3601.59803666
  Ewald energy   TEWEN  =    -44071.96874781
  -Hartree energ DENC   =    -13376.85244741
  -exchange      EXHF   =         0.00000000
  -V(xc)+E(xc)   XCENC  =      2618.25927971
  PAW double counting   =     44552.30397901   -45517.06092417
  entropy T*S    EENTRO =        -0.04677438
  eigenvalues    EBANDS =     -5780.45455831
  atomic energy  EATOM  =     57296.18046829
  Solvation  Ediel_sol  =         0.00000000
  ---------------------------------------------------
  free energy    TOTEN  =      -678.04168841 eV

  energy without entropy =     -677.99491403  energy(sigma->0) =     -678.01830122


--------------------------------------------------------------------------------------------------------




--------------------------------------- Iteration      1(   4)  ---------------------------------------


     EDDAV:  cpu time    6.5626: real time    6.5788
    --------------------------------------------
      LOOP:  cpu time    6.5626: real time    6.5788

 eigenvalue-minimisations  :  2192
 total energy-change (2. order) :-0.2528936E+03  (-0.2433486E+03)
 number of electron     691.0000000 magnetization      27.5000000
 augmentation part      691.0000000 magnetization      27.5000000

 Free energy of the ion-electron system (eV)
  ---------------------------------------------------
  alpha Z        PSCENC =      3601.59803666
  Ewald energy   TEWEN  =    -44071.96874781
  -Hartree energ DENC   =    -13376.85244741
  -exchange      EXHF   =         0.00000000
  -V(xc)+E(xc)   XCENC  =      2618.25927971
  PAW double counting   =     44552.30397901   -45517.06092417
  entropy T*S    EENTRO =        -0.04469198
  eigenvalues    EBANDS =     -6033.35024132
  atomic energy  EATOM  =     57296.18046829
  Solvation  Ediel_sol  =         0.00000000
  ---------------------------------------------------
  free energy    TOTEN  =      -930.93528902 eV

  energy without entropy =     -930.89059704  energy(sigma->0) =     -930.91294303


--------------------------------------------------------------------------------------------------------




--------------------------------------- Iteration      1(   5)  ---------------------------------------


     EDDAV:  cpu time    9.1649: real time    9.1876
    CHARGE:  cpu time    0.4052: real time    0.4062
    MIXING:  cpu time    0.0060: real time    0.0076
    --------------------------------------------
      LOOP:  cpu time    9.5758: real time    9.6012

 eigenvalue-minimisations  :  3200
 total energy-change (2. order) :-0.2422264E+02  (-0.2382519E+02)
 number of electron     690.9999977 magnetization      25.5350546
 augmentation part      177.4437303 magnetization      23.7017650

 Broyden mixing:
  rms(total) = 0.13737E+02    rms(broyden)= 0.13736E+02
  rms(prec ) = 0.14658E+02
  weight for this iteration     100.00

 Free energy of the ion-electron system (eV)
  ---------------------------------------------------
  alpha Z        PSCENC =      3601.59803666
  Ewald energy   TEWEN  =    -44071.96874781
  -Hartree energ DENC   =    -13376.85244741
  -exchange      EXHF   =         0.00000000
  -V(xc)+E(xc)   XCENC  =      2618.25927971
  PAW double counting   =     44552.30397901   -45517.06092417
  entropy T*S    EENTRO =        -0.05519827
  eigenvalues    EBANDS =     -6057.56237186
  atomic energy  EATOM  =     57296.18046829
  Solvation  Ediel_sol  =         0.00000000
  ---------------------------------------------------
  free energy    TOTEN  =      -955.15792585 eV

  energy without entropy =     -955.10272758  energy(sigma->0) =     -955.13032672


--------------------------------------------------------------------------------------------------------




--------------------------------------- Iteration      1(   6)  ---------------------------------------


    POTLOK:  cpu time    0.2867: real time    0.2874
    SETDIJ:  cpu time    0.0421: real time    0.0422
     EDDAV:  cpu time    7.5628: real time    7.5816
    CHARGE:  cpu time    0.4265: real time    0.4275
    MIXING:  cpu time    0.0067: real time    0.0067
    --------------------------------------------
      LOOP:  cpu time    8.3247: real time    8.3453

 eigenvalue-minimisations  :  2512
 total energy-change (2. order) :-0.8182335E+01  (-0.1174855E+03)
 number of electron     691.0000001 magnetization      23.0442086
 augmentation part      199.4566204 magnetization      22.9996796

 Broyden mixing:
  rms(total) = 0.15874E+02    rms(broyden)= 0.15873E+02
  rms(prec ) = 0.16649E+02
  weight for this iteration     100.00

 eigenvalues of (default mixing * dielectric matrix)
  average eigenvalue GAMMA=   0.3423
  0.3423

 Free energy of the ion-electron system (eV)
  ---------------------------------------------------
  alpha Z        PSCENC =      3601.59803666
  Ewald energy   TEWEN  =    -44071.96874781
  -Hartree energ DENC   =    -13333.90936471
  -exchange      EXHF   =         0.00000000
  -V(xc)+E(xc)   XCENC  =      2647.28031937
  PAW double counting   =     57241.16630120   -58118.55035459
  entropy T*S    EENTRO =        -0.00064932
  eigenvalues    EBANDS =     -6225.13626968
  atomic energy  EATOM  =     57296.18046829
  Solvation  Ediel_sol  =         0.00000000
  ---------------------------------------------------
  free energy    TOTEN  =      -963.34026060 eV

  energy without entropy =     -963.33961128  energy(sigma->0) =     -963.33993594


--------------------------------------------------------------------------------------------------------




--------------------------------------- Iteration      1(   7)  ---------------------------------------


    POTLOK:  cpu time    0.3233: real time    0.3241
    SETDIJ:  cpu time    0.0436: real time    0.0437
     EDDAV:  cpu time    7.3752: real time    7.3934
    CHARGE:  cpu time    0.4778: real time    0.4790
    MIXING:  cpu time    0.0070: real time    0.0070
    --------------------------------------------
      LOOP:  cpu time    8.2268: real time    8.2472

 eigenvalue-minimisations  :  2432
 total energy-change (2. order) : 0.1304862E+03  (-0.3611615E+02)
 number of electron     690.9999995 magnetization      18.9636678
 augmentation part      187.3198437 magnetization      18.0820152

 Broyden mixing:
  rms(total) = 0.61760E+01    rms(broyden)= 0.61756E+01
  rms(prec ) = 0.66467E+01
  weight for this iteration     100.00

 eigenvalues of (default mixing * dielectric matrix)
  average eigenvalue GAMMA=   0.7149
  0.9113  0.5185

 Free energy of the ion-electron system (eV)
  ---------------------------------------------------
  alpha Z        PSCENC =      3601.59803666
  Ewald energy   TEWEN  =    -44071.96874781
  -Hartree energ DENC   =    -13531.76504030
  -exchange      EXHF   =         0.00000000
  -V(xc)+E(xc)   XCENC  =      2646.96013684
  PAW double counting   =     61835.19871486   -62843.32364359
  entropy T*S    EENTRO =        -0.03765733
  eigenvalues    EBANDS =     -5765.69632823
  atomic energy  EATOM  =     57296.18046829
  Solvation  Ediel_sol  =         0.00000000
  ---------------------------------------------------
  free energy    TOTEN  =      -832.85406061 eV

  energy without entropy =     -832.81640328  energy(sigma->0) =     -832.83523194


--------------------------------------------------------------------------------------------------------




--------------------------------------- Iteration      1(   8)  ---------------------------------------


    POTLOK:  cpu time    0.3158: real time    0.3166
    SETDIJ:  cpu time    0.0435: real time    0.0436
     EDDAV:  cpu time    7.8831: real time    7.9026
    CHARGE:  cpu time    0.4859: real time    0.4871
    MIXING:  cpu time    0.0067: real time    0.0067
    --------------------------------------------
      LOOP:  cpu time    8.7350: real time    8.7566

 eigenvalue-minimisations  :  2592
 total energy-change (2. order) :-0.1614731E+03  (-0.4919447E+02)
 number of electron     690.9999977 magnetization      16.9574284
 augmentation part      161.1221999 magnetization      13.4419853

 Broyden mixing:
  rms(total) = 0.16555E+02    rms(broyden)= 0.16555E+02
  rms(prec ) = 0.20454E+02
  weight for this iteration     100.00

 eigenvalues of (default mixing * dielectric matrix)
  average eigenvalue GAMMA=   0.6429
  1.3007  0.4226  0.2053

 Free energy of the ion-electron system (eV)
  ---------------------------------------------------
  alpha Z        PSCENC =      3601.59803666
  Ewald energy   TEWEN  =    -44071.96874781
  -Hartree energ DENC   =    -13491.06832412
  -exchange      EXHF   =         0.00000000
  -V(xc)+E(xc)   XCENC  =      2638.59255539
  PAW double counting   =     69615.38301011   -70678.13885622
  entropy T*S    EENTRO =        -0.06136963
  eigenvalues    EBANDS =     -5904.84395354
  atomic energy  EATOM  =     57296.18046829
  Solvation  Ediel_sol  =         0.00000000
  ---------------------------------------------------
  free energy    TOTEN  =      -994.32718086 eV

  energy without entropy =     -994.26581124  energy(sigma->0) =     -994.29649605


--------------------------------------------------------------------------------------------------------




--------------------------------------- Iteration      1(   9)  ---------------------------------------


    POTLOK:  cpu time    0.2971: real time    0.2979
    SETDIJ:  cpu time    0.0426: real time    0.0427
     EDDAV:  cpu time    7.1158: real time    7.1335
    CHARGE:  cpu time    0.4254: real time    0.4265
    MIXING:  cpu time    0.0065: real time    0.0065
    --------------------------------------------
      LOOP:  cpu time    7.8875: real time    7.9071

 eigenvalue-minimisations  :  2320
 total energy-change (2. order) : 0.1289017E+03  (-0.1160686E+02)
 number of electron     690.9999996 magnetization      15.9925219
 augmentation part      185.4122563 magnetization      12.5997705

 Broyden mixing:
  rms(total) = 0.86881E+01    rms(broyden)= 0.86876E+01
  rms(prec ) = 0.10687E+02
  weight for this iteration     100.00

 eigenvalues of (default mixing * dielectric matrix)
  average eigenvalue GAMMA=   0.5767
  1.4475  0.4033  0.3068  0.1490

 Free energy of the ion-electron system (eV)
  ---------------------------------------------------
  alpha Z        PSCENC =      3601.59803666
  Ewald energy   TEWEN  =    -44071.96874781
  -Hartree energ DENC   =    -13352.75562640
  -exchange      EXHF   =         0.00000000
  -V(xc)+E(xc)   XCENC  =      2630.97591684
  PAW double counting   =     73245.60940332   -74289.04896654
  entropy T*S    EENTRO =        -0.03266697
  eigenvalues    EBANDS =     -5925.98331931
  atomic energy  EATOM  =     57296.18046829
  Solvation  Ediel_sol  =         0.00000000
  ---------------------------------------------------
  free energy    TOTEN  =      -865.42550192 eV

  energy without entropy =     -865.39283495  energy(sigma->0) =     -865.40916843


--------------------------------------------------------------------------------------------------------




--------------------------------------- Iteration      1(  10)  ---------------------------------------


    POTLOK:  cpu time    0.2858: real time    0.2865
    SETDIJ:  cpu time    0.0424: real time    0.0425
     EDDAV:  cpu time    7.2210: real time    7.2389
    CHARGE:  cpu time    0.4030: real time    0.4040
    MIXING:  cpu time    0.0068: real time    0.0068
    --------------------------------------------
      LOOP:  cpu time    7.9589: real time    7.9786

 eigenvalue-minimisations  :  2368
 total energy-change (2. order) : 0.2569189E+02  (-0.2242762E+02)
 number of electron     690.9999991 magnetization      13.0538739
 augmentation part      189.0840177 magnetization      11.4756211

 Broyden mixing:
  rms(total) = 0.43490E+01    rms(broyden)= 0.43483E+01
  rms(prec ) = 0.52169E+01
  weight for this iteration     100.00

 eigenvalues of (default mixing * dielectric matrix)
  average eigenvalue GAMMA=   0.5992
  1.7229  0.4799  0.4799  0.1567  0.1567

 Free energy of the ion-electron system (eV)
  ---------------------------------------------------
  alpha Z        PSCENC =      3601.59803666
  Ewald energy   TEWEN  =    -44071.96874781
  -Hartree energ DENC   =    -13349.67152024
  -exchange      EXHF   =         0.00000000
  -V(xc)+E(xc)   XCENC  =      2631.20395134
  PAW double counting   =     74839.30680996   -75888.96177673
  entropy T*S    EENTRO =        -0.04478315
  eigenvalues    EBANDS =     -5897.37604646
  atomic energy  EATOM  =     57296.18046829
  Solvation  Ediel_sol  =         0.00000000
  ---------------------------------------------------
  free energy    TOTEN  =      -839.73360814 eV

  energy without entropy =     -839.68882499  energy(sigma->0) =     -839.71121657


--------------------------------------------------------------------------------------------------------




--------------------------------------- Iteration      1(  11)  ---------------------------------------


    POTLOK:  cpu time    0.2861: real time    0.2868
    SETDIJ:  cpu time    0.0425: real time    0.0426
     EDDAV:  cpu time    7.6079: real time    7.6267
    CHARGE:  cpu time    0.4706: real time    0.4718
    MIXING:  cpu time    0.0077: real time    0.0077
    --------------------------------------------
      LOOP:  cpu time    8.4147: real time    8.4356

 eigenvalue-minimisations  :  2416
 total energy-change (2. order) :-0.2359322E+02  (-0.2691155E+02)
 number of electron     690.9999992 magnetization      11.7965442
 augmentation part      183.2209940 magnetization      11.2062130

 Broyden mixing:
  rms(total) = 0.72649E+01    rms(broyden)= 0.72643E+01
  rms(prec ) = 0.89398E+01
  weight for this iteration     100.00

 eigenvalues of (default mixing * dielectric matrix)
  average eigenvalue GAMMA=   0.5488
  1.8190  0.4984  0.4984  0.1714  0.1528  0.1528

 Free energy of the ion-electron system (eV)
  ---------------------------------------------------
  alpha Z        PSCENC =      3601.59803666
  Ewald energy   TEWEN  =    -44071.96874781
  -Hartree energ DENC   =    -13405.48534376
  -exchange      EXHF   =         0.00000000
  -V(xc)+E(xc)   XCENC  =      2634.59961445
  PAW double counting   =     78585.94995700   -79662.71959193
  entropy T*S    EENTRO =        -0.02791806
  eigenvalues    EBANDS =     -5841.45330557
  atomic energy  EATOM  =     57296.18046829
  Solvation  Ediel_sol  =         0.00000000
  ---------------------------------------------------
  free energy    TOTEN  =      -863.32683073 eV

  energy without entropy =     -863.29891267  energy(sigma->0) =     -863.31287170


--------------------------------------------------------------------------------------------------------




--------------------------------------- Iteration      1(  12)  ---------------------------------------


    POTLOK:  cpu time    0.3128: real time    0.3136
    SETDIJ:  cpu time    0.0431: real time    0.0433
     EDDAV:  cpu time    7.0009: real time    7.0182
    CHARGE:  cpu time    0.4371: real time    0.4382
    MIXING:  cpu time    0.0071: real time    0.0071
    --------------------------------------------
      LOOP:  cpu time    7.8010: real time    7.8203

 eigenvalue-minimisations  :  2368
 total energy-change (2. order) : 0.3532351E+02  (-0.2594263E+01)
 number of electron     690.9999990 magnetization       9.8221381
 augmentation part      183.9453905 magnetization       8.7854879

 Broyden mixing:
  rms(total) = 0.34248E+01    rms(broyden)= 0.34234E+01
  rms(prec ) = 0.40956E+01
  weight for this iteration     100.00

 eigenvalues of (default mixing * dielectric matrix)
  average eigenvalue GAMMA=   0.5852
  1.9748  0.6530  0.6530  0.3853  0.1614  0.1614  0.1079

 Free energy of the ion-electron system (eV)
  ---------------------------------------------------
  alpha Z        PSCENC =      3601.59803666
  Ewald energy   TEWEN  =    -44071.96874781
  -Hartree energ DENC   =    -13407.01197059
  -exchange      EXHF   =         0.00000000
  -V(xc)+E(xc)   XCENC  =      2635.20625977
  PAW double counting   =     79911.95733638   -80991.26968034
  entropy T*S    EENTRO =        -0.04933929
  eigenvalues    EBANDS =     -5802.64568009
  atomic energy  EATOM  =     57296.18046829
  Solvation  Ediel_sol  =         0.00000000
  ---------------------------------------------------
  free energy    TOTEN  =      -828.00331701 eV

  energy without entropy =     -827.95397772  energy(sigma->0) =     -827.97864736


--------------------------------------------------------------------------------------------------------




--------------------------------------- Iteration      1(  13)  ---------------------------------------


    POTLOK:  cpu time    0.2877: real time    0.2884
    SETDIJ:  cpu time    0.0424: real time    0.0425
     EDDAV:  cpu time    7.2730: real time    7.2910
    CHARGE:  cpu time    0.4043: real time    0.4053
    MIXING:  cpu time    0.0077: real time    0.0077
    --------------------------------------------
      LOOP:  cpu time    8.0151: real time    8.0349

 eigenvalue-minimisations  :  2384
 total energy-change (2. order) :-0.8197681E+01  (-0.1349069E+02)
 number of electron     690.9999991 magnetization       8.7838819
 augmentation part      183.9288017 magnetization       8.6902812

 Broyden mixing:
  rms(total) = 0.56230E+01    rms(broyden)= 0.56219E+01
  rms(prec ) = 0.70336E+01
  weight for this iteration     100.00

 eigenvalues of (default mixing * dielectric matrix)
  average eigenvalue GAMMA=   0.5522
  2.0346  0.7025  0.7025  0.4212  0.1691  0.1691  0.1153  0.1036

 Free energy of the ion-electron system (eV)
  ---------------------------------------------------
  alpha Z        PSCENC =      3601.59803666
  Ewald energy   TEWEN  =    -44071.96874781
  -Hartree energ DENC   =    -13402.62516156
  -exchange      EXHF   =         0.00000000
  -V(xc)+E(xc)   XCENC  =      2635.33963785
  PAW double counting   =     81036.98247911   -82112.41507406
  entropy T*S    EENTRO =        -0.03028464
  eigenvalues    EBANDS =     -5819.26235189
  atomic energy  EATOM  =     57296.18046829
  Solvation  Ediel_sol  =         0.00000000
  ---------------------------------------------------
  free energy    TOTEN  =      -836.20099804 eV

  energy without entropy =     -836.17071340  energy(sigma->0) =     -836.18585572


--------------------------------------------------------------------------------------------------------




--------------------------------------- Iteration      1(  14)  ---------------------------------------


    POTLOK:  cpu time    0.2851: real time    0.2858
    SETDIJ:  cpu time    0.0423: real time    0.0424
     EDDAV:  cpu time    7.1847: real time    7.2025
    CHARGE:  cpu time    0.4067: real time    0.4077
    MIXING:  cpu time    0.0079: real time    0.0080
    --------------------------------------------
      LOOP:  cpu time    7.9268: real time    7.9464

 eigenvalue-minimisations  :  2336
 total energy-change (2. order) : 0.9748414E+01  (-0.9194253E+01)
 number of electron     690.9999992 magnetization       8.3703464
 augmentation part      184.5230551 magnetization       8.9749989

 Broyden mixing:
  rms(total) = 0.31615E+01    rms(broyden)= 0.31604E+01
  rms(prec ) = 0.37559E+01
  weight for this iteration     100.00

 eigenvalues of (default mixing * dielectric matrix)
  average eigenvalue GAMMA=   0.4964
  2.0350  0.6960  0.6960  0.4226  0.1721  0.1721  0.1126  0.1126  0.0483

 Free energy of the ion-electron system (eV)
  ---------------------------------------------------
  alpha Z        PSCENC =      3601.59803666
  Ewald energy   TEWEN  =    -44071.96874781
  -Hartree energ DENC   =    -13420.10680414
  -exchange      EXHF   =         0.00000000
  -V(xc)+E(xc)   XCENC  =      2636.18323330
  PAW double counting   =     81322.20722602   -82399.14881980
  entropy T*S    EENTRO =        -0.06796263
  eigenvalues    EBANDS =     -5791.32921356
  atomic energy  EATOM  =     57296.18046829
  Solvation  Ediel_sol  =         0.00000000
  ---------------------------------------------------
  free energy    TOTEN  =      -826.45258366 eV

  energy without entropy =     -826.38462103  energy(sigma->0) =     -826.41860235


--------------------------------------------------------------------------------------------------------




--------------------------------------- Iteration      1(  15)  ---------------------------------------


    POTLOK:  cpu time    0.2888: real time    0.2895
    SETDIJ:  cpu time    0.0426: real time    0.0427
     EDDAV:  cpu time    7.5788: real time    7.5976
    CHARGE:  cpu time    0.3857: real time    0.3866
    MIXING:  cpu time    0.0082: real time    0.0082
    --------------------------------------------
      LOOP:  cpu time    8.3040: real time    8.3245

 eigenvalue-minimisations  :  2496
 total energy-change (2. order) : 0.3359707E+01  (-0.1709814E+01)
 number of electron     690.9999992 magnetization       7.7375396
 augmentation part      184.8804214 magnetization       7.6443614

 Broyden mixing:
  rms(total) = 0.21875E+01    rms(broyden)= 0.21860E+01
  rms(prec ) = 0.25321E+01
  weight for this iteration     100.00

 eigenvalues of (default mixing * dielectric matrix)
  average eigenvalue GAMMA=   0.4569
  2.0189  0.7020  0.7020  0.4261  0.1740  0.1740  0.1105  0.1105  0.0754  0.0754

 Free energy of the ion-electron system (eV)
  ---------------------------------------------------
  alpha Z        PSCENC =      3601.59803666
  Ewald energy   TEWEN  =    -44071.96874781
  -Hartree energ DENC   =    -13421.37948581
  -exchange      EXHF   =         0.00000000
  -V(xc)+E(xc)   XCENC  =      2636.25036261
  PAW double counting   =     81379.81090800   -82455.72030718
  entropy T*S    EENTRO =        -0.04892625
  eigenvalues    EBANDS =     -5787.81518526
  atomic energy  EATOM  =     57296.18046829
  Solvation  Ediel_sol  =         0.00000000
  ---------------------------------------------------
  free energy    TOTEN  =      -823.09287674 eV

  energy without entropy =     -823.04395049  energy(sigma->0) =     -823.06841361


--------------------------------------------------------------------------------------------------------




--------------------------------------- Iteration      1(  16)  ---------------------------------------


    POTLOK:  cpu time    0.3032: real time    0.3039
    SETDIJ:  cpu time    0.0443: real time    0.0444
     EDDAV:  cpu time    7.4099: real time    7.4282
    CHARGE:  cpu time    0.4828: real time    0.4840
    MIXING:  cpu time    0.0094: real time    0.0095
    --------------------------------------------
      LOOP:  cpu time    8.2497: real time    8.2701

 eigenvalue-minimisations  :  2448
 total energy-change (2. order) : 0.3842025E+00  (-0.1176722E+01)
 number of electron     690.9999992 magnetization       7.2856900
 augmentation part      184.9618835 magnetization       7.1901301

 Broyden mixing:
  rms(total) = 0.20554E+01    rms(broyden)= 0.20535E+01
  rms(prec ) = 0.23339E+01
  weight for this iteration     100.00

 eigenvalues of (default mixing * dielectric matrix)
  average eigenvalue GAMMA=   0.4634
  2.0270  0.7059  0.7059  0.4357  0.2796  0.2796  0.1746  0.1746  0.1372  0.1084
  0.0694

 Free energy of the ion-electron system (eV)
  ---------------------------------------------------
  alpha Z        PSCENC =      3601.59803666
  Ewald energy   TEWEN  =    -44071.96874781
  -Hartree energ DENC   =    -13420.47580705
  -exchange      EXHF   =         0.00000000
  -V(xc)+E(xc)   XCENC  =      2636.09213273
  PAW double counting   =     81321.41840245   -82394.69664172
  entropy T*S    EENTRO =        -0.05337433
  eigenvalues    EBANDS =     -5790.80314350
  atomic energy  EATOM  =     57296.18046829
  Solvation  Ediel_sol  =         0.00000000
  ---------------------------------------------------
  free energy    TOTEN  =      -822.70867428 eV

  energy without entropy =     -822.65529995  energy(sigma->0) =     -822.68198711


--------------------------------------------------------------------------------------------------------




--------------------------------------- Iteration      1(  17)  ---------------------------------------


    POTLOK:  cpu time    0.3198: real time    0.3206
    SETDIJ:  cpu time    0.0435: real time    0.0436
     EDDAV:  cpu time    7.1966: real time    7.2145
    CHARGE:  cpu time    0.4845: real time    0.4857
    MIXING:  cpu time    0.0099: real time    0.0100
    --------------------------------------------
      LOOP:  cpu time    8.0545: real time    8.0744

 eigenvalue-minimisations  :  2368
 total energy-change (2. order) :-0.3726459E+00  (-0.1734509E+01)
 number of electron     690.9999991 magnetization       7.0662085
 augmentation part      184.6043836 magnetization       7.4457108

 Broyden mixing:
  rms(total) = 0.20357E+01    rms(broyden)= 0.20342E+01
  rms(prec ) = 0.23375E+01
  weight for this iteration     100.00

 eigenvalues of (default mixing * dielectric matrix)
  average eigenvalue GAMMA=   0.4284
  2.0233  0.7096  0.7096  0.4330  0.2589  0.2589  0.1748  0.1748  0.1403  0.1079
  0.0695  0.0806

 Free energy of the ion-electron system (eV)
  ---------------------------------------------------
  alpha Z        PSCENC =      3601.59803666
  Ewald energy   TEWEN  =    -44071.96874781
  -Hartree energ DENC   =    -13423.04517434
  -exchange      EXHF   =         0.00000000
  -V(xc)+E(xc)   XCENC  =      2636.17233663
  PAW double counting   =     81339.40102786   -82411.78536361
  entropy T*S    EENTRO =        -0.04539828
  eigenvalues    EBANDS =     -5789.58850558
  atomic energy  EATOM  =     57296.18046829
  Solvation  Ediel_sol  =         0.00000000
  ---------------------------------------------------
  free energy    TOTEN  =      -823.08132017 eV

  energy without entropy =     -823.03592189  energy(sigma->0) =     -823.05862103


--------------------------------------------------------------------------------------------------------




--------------------------------------- Iteration      1(  18)  ---------------------------------------


    POTLOK:  cpu time    0.3168: real time    0.3176
    SETDIJ:  cpu time    0.0431: real time    0.0432
     EDDAV:  cpu time    7.1874: real time    7.2053
    CHARGE:  cpu time    0.4835: real time    0.4847
    MIXING:  cpu time    0.0098: real time    0.0098
    --------------------------------------------
      LOOP:  cpu time    8.0406: real time    8.0606

 eigenvalue-minimisations  :  2368
 total energy-change (2. order) : 0.3424398E+00  (-0.1013730E+00)
 number of electron     690.9999992 magnetization       7.1504329
 augmentation part      184.8327314 magnetization       8.3946769

 Broyden mixing:
  rms(total) = 0.18855E+01    rms(broyden)= 0.18850E+01
  rms(prec ) = 0.21224E+01
  weight for this iteration     100.00

 eigenvalues of (default mixing * dielectric matrix)
  average eigenvalue GAMMA=   0.4000
  2.0252  0.7058  0.7058  0.4350  0.2503  0.2503  0.1749  0.1749  0.1414  0.1076
  0.0694  0.0794  0.0794

 Free energy of the ion-electron system (eV)
  ---------------------------------------------------
  alpha Z        PSCENC =      3601.59803666
  Ewald energy   TEWEN  =    -44071.96874781
  -Hartree energ DENC   =    -13422.27116870
  -exchange      EXHF   =         0.00000000
  -V(xc)+E(xc)   XCENC  =      2636.20070493
  PAW double counting   =     81366.79454368   -82438.60241776
  entropy T*S    EENTRO =        -0.03774138
  eigenvalues    EBANDS =     -5790.63255831
  atomic energy  EATOM  =     57296.18046829
  Solvation  Ediel_sol  =         0.00000000
  ---------------------------------------------------
  free energy    TOTEN  =      -822.73888040 eV

  energy without entropy =     -822.70113901  energy(sigma->0) =     -822.72000970


--------------------------------------------------------------------------------------------------------




--------------------------------------- Iteration      1(  19)  ---------------------------------------


    POTLOK:  cpu time    0.3183: real time    0.3191
    SETDIJ:  cpu time    0.0436: real time    0.0437
     EDDAV:  cpu time    7.6358: real time    7.6546
    CHARGE:  cpu time    0.4364: real time    0.4375
    MIXING:  cpu time    0.0100: real time    0.0100
    --------------------------------------------
      LOOP:  cpu time    8.4441: real time    8.4650

 eigenvalue-minimisations  :  2528
 total energy-change (2. order) : 0.9190969E-01  (-0.9495818E-02)
 number of electron     690.9999992 magnetization       6.3190479
 augmentation part      184.9033522 magnetization       7.6911966

 Broyden mixing:
  rms(total) = 0.19484E+01    rms(broyden)= 0.19483E+01
  rms(prec ) = 0.21739E+01
  weight for this iteration     100.00

 eigenvalues of (default mixing * dielectric matrix)
  average eigenvalue GAMMA=   0.4699
  2.0457  0.7259  0.7259  0.5682  0.5682  0.3940  0.3473  0.3473  0.1689  0.1689
  0.1832  0.1593  0.1061  0.0692

 Free energy of the ion-electron system (eV)
  ---------------------------------------------------
  alpha Z        PSCENC =      3601.59803666
  Ewald energy   TEWEN  =    -44071.96874781
  -Hartree energ DENC   =    -13421.16353787
  -exchange      EXHF   =         0.00000000
  -V(xc)+E(xc)   XCENC  =      2636.12552511
  PAW double counting   =     81369.03164329   -82440.27865177
  entropy T*S    EENTRO =        -0.04069795
  eigenvalues    EBANDS =     -5792.13100865
  atomic energy  EATOM  =     57296.18046829
  Solvation  Ediel_sol  =         0.00000000
  ---------------------------------------------------
  free energy    TOTEN  =      -822.64697070 eV

  energy without entropy =     -822.60627275  energy(sigma->0) =     -822.62662173


--------------------------------------------------------------------------------------------------------




--------------------------------------- Iteration      1(  20)  ---------------------------------------


    POTLOK:  cpu time    0.2934: real time    0.2941
    SETDIJ:  cpu time    0.0423: real time    0.0424
     EDDAV:  cpu time    7.7452: real time    7.7643
    CHARGE:  cpu time    0.4023: real time    0.4033
    MIXING:  cpu time    0.0101: real time    0.0101
    --------------------------------------------
      LOOP:  cpu time    8.4933: real time    8.5143

 eigenvalue-minimisations  :  2544
 total energy-change (2. order) :-0.5470103E+00  (-0.1304807E+00)
 number of electron     690.9999992 magnetization       4.5362785
 augmentation part      185.2519742 magnetization       5.5859717

 Broyden mixing:
  rms(total) = 0.15916E+01    rms(broyden)= 0.15915E+01
  rms(prec ) = 0.17910E+01
  weight for this iteration     100.00

 eigenvalues of (default mixing * dielectric matrix)
  average eigenvalue GAMMA=   0.4795
  2.0440  0.7104  0.7104  0.8159  0.5352  0.4173  0.4173  0.4283  0.2253  0.2253
  0.1675  0.1675  0.1530  0.1062  0.0692

 Free energy of the ion-electron system (eV)
  ---------------------------------------------------
  alpha Z        PSCENC =      3601.59803666
  Ewald energy   TEWEN  =    -44071.96874781
  -Hartree energ DENC   =    -13415.80852246
  -exchange      EXHF   =         0.00000000
  -V(xc)+E(xc)   XCENC  =      2636.10140568
  PAW double counting   =     81443.57301189   -82512.23839410
  entropy T*S    EENTRO =        -0.05576160
  eigenvalues    EBANDS =     -5800.57547755
  atomic energy  EATOM  =     57296.18046829
  Solvation  Ediel_sol  =         0.00000000
  ---------------------------------------------------
  free energy    TOTEN  =      -823.19398100 eV

  energy without entropy =     -823.13821940  energy(sigma->0) =     -823.16610020


--------------------------------------------------------------------------------------------------------




--------------------------------------- Iteration      1(  21)  ---------------------------------------


    POTLOK:  cpu time    0.2863: real time    0.2871
    SETDIJ:  cpu time    0.0423: real time    0.0424
     EDDAV:  cpu time    7.6339: real time    7.6528
    CHARGE:  cpu time    0.3802: real time    0.3812
    MIXING:  cpu time    0.0102: real time    0.0102
    --------------------------------------------
      LOOP:  cpu time    8.3530: real time    8.3736

 eigenvalue-minimisations  :  2544
 total energy-change (2. order) :-0.9921053E+00  (-0.6128034E+00)
 number of electron     690.9999990 magnetization       4.0579360
 augmentation part      183.5194225 magnetization       5.6185531

 Broyden mixing:
  rms(total) = 0.29098E+01    rms(broyden)= 0.29084E+01
  rms(prec ) = 0.33984E+01
  weight for this iteration     100.00

 eigenvalues of (default mixing * dielectric matrix)
  average eigenvalue GAMMA=   0.4546
  2.0552  0.7297  0.7297  0.8050  0.4238  0.4238  0.5173  0.4249  0.2269  0.2269
  0.1673  0.1673  0.1529  0.1062  0.0692  0.0481

 Free energy of the ion-electron system (eV)
[...]
      7.26085      0.04597      2.57701         0.001441      0.002820      0.000188
      1.46235     15.14355      2.80607        -0.001441     -0.002820     -0.000188
     10.10519      4.68017      4.76202         0.169247     -0.020157      0.035701
      2.62215     10.31215      3.70818        -0.043992     -0.022066     -0.007946
      4.35538      0.03958      2.58805         0.000000      0.000000     -0.000000
      5.85038      5.08428      7.00451         0.042055      0.024024      0.046879
      7.20414     10.21629      6.18322        -0.042055     -0.024024     -0.046879
     10.19817     10.14689      6.21621        -0.009228      0.010428      0.015639
     11.59118      5.16135      6.93103         0.009228     -0.010428     -0.015639
      4.25663      7.60822      7.80696         0.024242      0.007751     -0.014343
      8.72423     12.92475      2.06878        -0.002129      0.037595      0.033025
      1.42936      2.44327      0.94449         0.006975     -0.006192     -0.024970
      7.17174      7.81003      7.86658         0.043929      0.072626      0.050754
      2.91927     12.81235      1.97782        -0.012787      0.028297      0.012962
      4.38592      2.42901      0.93241         0.005459      0.011203     -0.010445
     10.33197      7.70268      7.89689         0.010933      0.010747     -0.009643
      5.83782     12.83384      1.97016         0.013500      0.047329      0.061716
      7.22908      2.43135      0.87337        -0.001799     -0.017432     -0.011849
      7.31946      7.69339      2.56676         0.049879      0.034298     -0.044264
      7.29384     12.74624      4.43860        -0.006975      0.006192      0.024970
      8.73380      2.27243      3.27382         0.002129     -0.037595     -0.033025
     10.13856      7.50379      2.77583        -0.049879     -0.034298      0.044264
     10.22895     12.76583      4.46922         0.001799      0.017432      0.011849
      2.88538      2.35567      3.41293        -0.013500     -0.047329     -0.061716
      4.36160      7.59476      2.69154         0.000000      0.000000     -0.000000
      4.33728     12.76051      4.45068        -0.005459     -0.011203      0.010445
      5.80393      2.37716      3.40526         0.012787     -0.028297     -0.012962
      5.88278      7.49054      5.32115        -0.043929     -0.072626     -0.050754
      5.88246     12.66832      7.03538        -0.008334     -0.030458     -0.013932
      7.17206      2.63225      6.15235         0.008334      0.030458      0.013932
      8.79789      7.69235      5.38077        -0.024242     -0.007751      0.014343
      8.73158     12.60877      6.98721         0.005866     -0.012602     -0.008248
     10.24297      2.61136      6.04218         0.004113     -0.021336      0.013047
     11.45738      7.60556      5.25035        -0.010933     -0.010747      0.009643
     11.54637     12.69688      7.10506        -0.004113      0.021336     -0.013047
      4.32294      2.69180      6.20052        -0.005866      0.012602      0.008248
      4.55952     11.44425      7.71557         0.007702     -0.040313      0.061389
      4.31413      4.00199      7.83324         0.023715      0.000191     -0.035823
      8.73224      1.15065      1.57882         0.007002     -0.000879     -0.013733
      8.83806      9.06337      1.94436         0.020196      0.069114     -0.013285
      1.34966      6.40521      1.21161        -0.014148      0.020556     -0.011014
      1.47391     13.98769      1.04516         0.005983      0.015971      0.000096
      2.99050     11.37072      0.49764         0.024156      0.014062      0.033107
      3.03292      3.98672      0.09107         0.015736     -0.043765     -0.028375
      2.90261      1.16940      1.61162         0.001670      0.008153     -0.005600
      2.94737      9.01946      1.61495         0.043627     -0.017529      0.017058
      4.10110      6.35866      0.69553         0.005433     -0.030055     -0.041683
      4.38044     14.01671      1.04932        -0.002722      0.028827      0.007358
      5.78173     11.61759      0.43453        -0.033193      0.089767      0.025655
      5.85829      3.78505      0.02225        -0.021233     -0.003681      0.007724
      5.81973      1.16025      1.60604         0.003912      0.001090     -0.006362
      5.63811      8.88828      2.00510         0.022508      0.006401      0.046837
      7.30420      6.52095      1.08090         0.016230     -0.030847     -0.014715
      7.30931     13.99270      1.01760         0.006088      0.022583      0.002550
      7.28080     11.18987      3.01430        -0.006113      0.020397      0.042533
      7.52261      3.77664      2.73631        -0.012681     -0.030332     -0.032723
      7.24929      1.20183      4.33792        -0.005983     -0.015971     -0.000096
      7.37354      8.78430      4.17147         0.014148     -0.020556      0.011014
      8.61997      6.13381      3.39823        -0.020196     -0.069114      0.013285
      8.72579     14.04653      3.76377        -0.007002      0.000879      0.013733
      9.93542     11.42054      2.60628         0.012681      0.030332      0.032723
      1.44240      3.99964      2.36878         0.006113     -0.020397     -0.042533
     10.14872      1.20448      4.32499        -0.006088     -0.022583     -0.002550
     10.15383      8.67623      4.26169        -0.016230      0.030847      0.014715
      3.08509      6.30124      3.37798        -0.022508     -0.006401     -0.046837
      2.90347     14.02927      3.77704        -0.003912     -0.001090      0.006362
      4.44004     11.11068      2.77486         0.003171     -0.043254      0.033102
      4.28316      4.07883      2.60823        -0.003171      0.043254     -0.033102
      4.34276      1.17280      4.33376         0.002722     -0.028827     -0.007358
      4.62210      8.83085      4.68755        -0.005433      0.030055      0.041683
      5.77583      6.17005      3.76813        -0.043627      0.017529     -0.017058
      5.82059     14.02012      3.77146        -0.001670     -0.008153      0.005600
      5.69028     11.20280      5.29201        -0.015736      0.043765      0.028375
      5.73270      3.81880      4.88544        -0.024156     -0.014062     -0.033107
      5.78449      1.51930      6.98617         0.004127      0.001251     -0.015553
      5.70037      9.11897      7.17827         0.022571      0.033512      0.041064
      7.35415      6.18160      6.00946        -0.022571     -0.033512     -0.041064
      7.27003     13.78127      6.20156        -0.004127     -0.001251      0.015553
      8.74038     11.29859      5.35449        -0.023715     -0.000191      0.035823
      8.49500      3.85632      5.47215        -0.007702      0.040313     -0.061389
      8.69998      1.50023      6.98783         0.003959      0.008010     -0.010419
      8.71192      9.11116      7.08016        -0.024749      0.049347      0.036585
     10.13178      6.57036      6.30989        -0.058557     -0.014894     -0.009880
     10.17300     13.81833      6.18699        -0.006622      0.006262      0.001805
     11.59973     11.41214      5.32035         0.021233      0.003681     -0.007724
      2.94147      3.57192      4.94855         0.033193     -0.089767     -0.025655
     11.61635      1.48991      6.96024         0.006622     -0.006262     -0.001805
     11.65757      8.73787      6.83734         0.058557      0.014894      0.009880
      4.34260      6.18941      6.10757         0.024749     -0.049347     -0.036585
      4.35454     13.80034      6.19990        -0.003959     -0.008010      0.010419
 -----------------------------------------------------------------------------------
    total drift:                               -0.001333      0.000000      0.001275


--------------------------------------------------------------------------------------------------------



  FREE ENERGIE OF THE ION-ELECTRON SYSTEM (eV)
  ---------------------------------------------------
  free  energy   TOTEN  =      -825.4915383772 eV

  energy  without entropy=     -825.4639357483  energy(sigma->0) =     -825.47773706
 
 d Force = 0.2012747E-01[ 0.193E-01, 0.209E-01]  d Energy = 0.2017205E-01-0.446E-04
 d Force =-0.1363842E+01[-0.147E+01,-0.126E+01]  d Ewald  =-0.5880425E+01 0.452E+01


--------------------------------------------------------------------------------------------------------


    POTLOK:  cpu time    0.3332: real time    0.3341


--------------------------------------------------------------------------------------------------------


 Quasi-Newton relaxation of ions (Broydens 2nd method)
  g(Force)  = 0.153E-01   g(Stress)= 0.278E-03

 retain information from N=  2 steps
 eigenvalues of (default step * inverse Hessian matrix)
  average eigenvalue of G=   2.8300
 eigenvalue spectrum of G is  0.4648  5.1953


--------------------------------------------------------------------------------------------------------


     LOOP+:  cpu time   69.4752: real time   69.7444
    4ORBIT:  cpu time    0.0000: real time    0.0000

volume of typ            1:    15.6 %

volume of typ            2:     6.8 %

volume of typ            3:    20.4 %

volume of typ            4:     8.5 %
 
total charge     
 
# of ion       s       p       d       tot
------------------------------------------
    1        0.239   6.095   2.168   8.503
    2        0.272   6.152   2.012   8.436
    3        0.279   6.164   1.964   8.407
    4        0.239   6.094   2.168   8.501
    5        0.287   6.184   1.945   8.417
    6        0.273   6.147   1.982   8.402
    7        0.238   6.094   2.163   8.496
    8        0.279   6.164   1.964   8.407
    9        0.272   6.152   2.012   8.436
   10        0.273   6.147   1.982   8.402
   11        0.287   6.184   1.945   8.417
   12        0.239   6.094   2.168   8.501
   13        0.239   6.095   2.168   8.503
   14        0.273   6.146   2.039   8.458
   15        0.238   6.094   2.163   8.496
   16        0.273   6.146   2.039   8.458
   17        0.184   0.197   8.121   8.502
   18        0.204   0.198   8.170   8.572
   19        0.205   0.217   7.925   8.347
   20        0.205   0.217   7.925   8.347
   21        0.204   0.198   8.170   8.572
   22        0.184   0.197   8.121   8.502
   23        0.205   0.219   7.925   8.349
   24        0.193   0.188   8.072   8.452
   25        0.193   0.188   8.072   8.452
   26        0.210   0.213   8.055   8.479
   27        0.210   0.213   8.055   8.479
   28        2.075   0.256   0.097   2.428
   29        2.075   0.250   0.094   2.420
   30        2.079   0.265   0.101   2.444
   31        2.077   0.264   0.101   2.442
   32        2.066   0.225   0.083   2.374
   33        2.076   0.259   0.099   2.434
   34        2.084   0.283   0.111   2.478
   35        2.074   0.248   0.094   2.416
   36        2.079   0.268   0.104   2.451
   37        2.093   0.300   0.119   2.512
   38        2.079   0.265   0.101   2.444
   39        2.075   0.250   0.094   2.420
   40        2.093   0.300   0.119   2.512
   41        2.079   0.268   0.104   2.451
   42        2.074   0.248   0.094   2.416
   43        2.076   0.252   0.096   2.423
   44        2.076   0.259   0.099   2.434
   45        2.066   0.225   0.083   2.374
   46        2.077   0.264   0.101   2.442
   47        2.084   0.282   0.115   2.480
   48        2.084   0.282   0.115   2.480
   49        2.075   0.256   0.097   2.428
   50        2.078   0.267   0.104   2.449
   51        2.080   0.275   0.108   2.462
   52        2.084   0.283   0.111   2.478
   53        2.080   0.275   0.108   2.462
   54        2.078   0.267   0.104   2.449
   55        1.248   2.855   0.008   4.111
   56        1.251   2.821   0.006   4.077
   57        1.241   2.829   0.004   4.074
   58        1.253   2.839   0.005   4.098
   59        1.250   2.853   0.005   4.108
   60        1.245   2.840   0.005   4.090
   61        1.250   2.848   0.004   4.102
   62        1.248   2.847   0.006   4.101
   63        1.241   2.823   0.004   4.068
   64        1.251   2.842   0.005   4.098
   65        1.251   2.852   0.005   4.108
   66        1.245   2.841   0.006   4.092
   67        1.251   2.839   0.007   4.098
   68        1.252   2.821   0.007   4.081
   69        1.241   2.827   0.004   4.072
   70        1.248   2.859   0.005   4.112
   71        1.251   2.839   0.005   4.095
   72        1.244   2.841   0.005   4.090
   73        1.254   2.843   0.005   4.101
   74        1.250   2.841   0.006   4.096
   75        1.245   2.840   0.005   4.090
   76        1.250   2.853   0.005   4.108
   77        1.253   2.839   0.005   4.098
   78        1.241   2.829   0.004   4.074
   79        1.250   2.841   0.006   4.096
   80        1.254   2.843   0.005   4.101
   81        1.244   2.841   0.005   4.090
   82        1.251   2.839   0.005   4.095
   83        1.248   2.859   0.005   4.112
   84        1.241   2.827   0.004   4.072
   85        1.250   2.838   0.005   4.092
   86        1.250   2.838   0.005   4.092
   87        1.245   2.841   0.006   4.092
   88        1.251   2.852   0.005   4.108
   89        1.251   2.842   0.005   4.098
   90        1.241   2.823   0.004   4.068
   91        1.248   2.847   0.006   4.101
   92        1.250   2.848   0.004   4.102
   93        1.242   2.850   0.006   4.098
   94        1.245   2.845   0.005   4.095
   95        1.245   2.845   0.005   4.095
   96        1.242   2.850   0.006   4.098
   97        1.251   2.821   0.006   4.077
   98        1.248   2.855   0.008   4.111
   99        1.246   2.844   0.007   4.096
  100        1.250   2.822   0.006   4.078
  101        1.254   2.835   0.005   4.095
  102        1.244   2.853   0.007   4.104
  103        1.252   2.821   0.007   4.081
  104        1.251   2.839   0.007   4.098
  105        1.244   2.853   0.007   4.104
  106        1.254   2.835   0.005   4.095
  107        1.250   2.822   0.006   4.078
  108        1.246   2.844   0.007   4.096
--------------------------------------------------
tot         129.91  260.90  124.54  515.35
 
magnetization (x)
 
# of ion       s       p       d       tot
------------------------------------------
    1        0.000  -0.001  -0.024  -0.024
    2        0.001   0.001   0.036   0.038
    3        0.000   0.000   0.014   0.015
    4        0.000  -0.001  -0.030  -0.031
    5        0.000   0.000   0.010   0.010
    6        0.001   0.000   0.007   0.008
    7        0.000  -0.000  -0.019  -0.019
    8        0.000   0.000   0.014   0.015
    9        0.001   0.001   0.036   0.038
   10        0.001   0.000   0.007   0.008
   11        0.000   0.000   0.010   0.010
   12        0.000  -0.001  -0.030  -0.031
   13        0.000  -0.001  -0.024  -0.024
   14        0.001   0.001   0.028   0.030
   15        0.000  -0.000  -0.019  -0.019
   16        0.001   0.001   0.028   0.030
   17       -0.000  -0.001  -0.498  -0.500
   18        0.000   0.001  -0.014  -0.013
   19       -0.002   0.000  -1.473  -1.475
   20       -0.002   0.000  -1.473  -1.475
   21        0.000   0.001  -0.014  -0.013
   22       -0.000  -0.001  -0.498  -0.500
   23       -0.002   0.000  -1.477  -1.479
   24        0.001  -0.001  -0.888  -0.888
   25        0.001  -0.001  -0.888  -0.888
   26        0.001  -0.000  -0.867  -0.866
   27        0.001  -0.000  -0.867  -0.866
   28       -0.001  -0.003  -0.001  -0.005
   29        0.001   0.002   0.000   0.003
   30       -0.003  -0.006  -0.001  -0.011
   31       -0.000  -0.001  -0.000  -0.002
   32        0.001   0.001   0.000   0.002
   33       -0.004  -0.007  -0.002  -0.013
   34       -0.000  -0.000  -0.000  -0.001
   35        0.001   0.001   0.000   0.003
   36       -0.003  -0.006  -0.001  -0.010
   37        0.001   0.001  -0.000   0.001
   38       -0.003  -0.006  -0.001  -0.011
   39        0.001   0.002   0.000   0.003
   40        0.001   0.001  -0.000   0.001
   41       -0.003  -0.006  -0.001  -0.010
   42        0.001   0.001   0.000   0.003
   43        0.000   0.000   0.000   0.000
   44       -0.004  -0.007  -0.002  -0.013
   45        0.001   0.001   0.000   0.002
   46       -0.000  -0.001  -0.000  -0.002
   47       -0.000  -0.001  -0.000  -0.001
   48       -0.000  -0.001  -0.000  -0.001
   49       -0.001  -0.003  -0.001  -0.005
   50       -0.000  -0.000  -0.000  -0.000
   51       -0.001  -0.002  -0.001  -0.003
   52       -0.000  -0.000  -0.000  -0.001
   53       -0.001  -0.002  -0.001  -0.003
   54       -0.000  -0.000  -0.000  -0.000
   55        0.000   0.002   0.000   0.002
   56       -0.007  -0.064  -0.000  -0.071
   57       -0.009  -0.101  -0.000  -0.111
   58        0.000  -0.001   0.000  -0.001
   59        0.001   0.005   0.000   0.006
   60       -0.005  -0.057  -0.000  -0.062
   61        0.000  -0.000   0.000   0.000
   62       -0.003  -0.026  -0.000  -0.030
   63       -0.009  -0.103  -0.000  -0.112
   64       -0.001  -0.011   0.000  -0.012
   65        0.000   0.002   0.000   0.002
   66       -0.005  -0.056  -0.000  -0.061
   67        0.001   0.005   0.000   0.006
   68       -0.005  -0.059  -0.000  -0.063
   69       -0.009  -0.101  -0.000  -0.110
   70        0.000  -0.001   0.000  -0.001
   71       -0.001  -0.017   0.000  -0.018
   72       -0.005  -0.055  -0.000  -0.060
   73       -0.000  -0.002   0.000  -0.002
   74       -0.000  -0.001   0.000  -0.001
   75       -0.005  -0.057  -0.000  -0.062
   76        0.001   0.005   0.000   0.006
   77        0.000  -0.001   0.000  -0.001
   78       -0.009  -0.101  -0.000  -0.111
   79       -0.000  -0.001   0.000  -0.001
   80       -0.000  -0.002   0.000  -0.002
   81       -0.005  -0.055  -0.000  -0.060
   82       -0.001  -0.017   0.000  -0.018
   83        0.000  -0.001   0.000  -0.001
   84       -0.009  -0.101  -0.000  -0.110
   85       -0.002  -0.010  -0.000  -0.012
   86       -0.002  -0.010  -0.000  -0.012
   87       -0.005  -0.056  -0.000  -0.061
   88        0.000   0.002   0.000   0.002
   89       -0.001  -0.011   0.000  -0.012
   90       -0.009  -0.103  -0.000  -0.112
   91       -0.003  -0.026  -0.000  -0.030
   92        0.000  -0.000   0.000   0.000
   93       -0.000  -0.003  -0.000  -0.003
   94       -0.004  -0.029  -0.000  -0.033
   95       -0.004  -0.029  -0.000  -0.033
   96       -0.000  -0.003  -0.000  -0.003
   97       -0.007  -0.064  -0.000  -0.071
   98        0.000   0.002   0.000   0.002
   99       -0.000  -0.002  -0.000  -0.002
  100       -0.007  -0.058  -0.000  -0.065
  101       -0.002  -0.032  -0.000  -0.034
  102        0.000   0.001  -0.000   0.001
  103       -0.005  -0.059  -0.000  -0.063
  104        0.001   0.005   0.000   0.006
  105        0.000   0.001  -0.000   0.001
  106       -0.002  -0.032  -0.000  -0.034
  107       -0.007  -0.058  -0.000  -0.065
  108       -0.000  -0.002  -0.000  -0.002
--------------------------------------------------
tot          -0.16   -1.59   -8.93  -10.67
 

 total amount of memory used by VASP MPI-rank0   163966. kBytes
=======================================================================

   base      :      30000. kBytes
   nonlr-proj:      45229. kBytes
   fftplans  :      10595. kBytes
   grid      :      64741. kBytes
   one-center:       1679. kBytes
   wavefun   :      11722. kBytes
 
  
  
 General timing and accounting informations for this job:
 ========================================================
  
                  Total CPU time used (sec):     2666.806
                            User time (sec):     2655.106
                          System time (sec):       11.700
                         Elapsed time (sec):     2680.411
  
                   Maximum memory used (kb):      224916.
                   Average memory used (kb):           0.
  
                          Minor page faults:        40654
                          Major page faults:           52
                 Voluntary context switches:         1423
