 vasp.5.4.4.18Apr17-6-g9f103f2a35 (build May 12 2020 04:58:55) complex          
  
 MD_VERSION_INFO: Compiled 2020-05-12T11:58:55-UTC in devlin.sd.materialsdesign.
 com:/home/medea2/data/build/wwolf/vasp-gpu5.4.4/13047/x86_64/src/src/build/std 
 from svn 13047
 
 This VASP executable licensed from Materials Design, Inc.
 
 executed on                        Lin64 date 2023.03.16  10:58:39
 running on   16 total cores
 distrk:  each k-point on   16 cores,    1 groups
 distr:  one band on NCORES_PER_BAND=   1 cores,   16 groups


--------------------------------------------------------------------------------------------------------


 INCAR:
 POTCAR:    PAW_PBE Li_sv 10Sep2004               
 POTCAR:    PAW_PBE Ni 02Aug2007                  
 POTCAR:    PAW_PBE O 08Apr2002                   

 ----------------------------------------------------------------------------- 
|                                                                             |
|           W    W    AA    RRRRR   N    N  II  N    N   GGGG   !!!           |
|           W    W   A  A   R    R  NN   N  II  NN   N  G    G  !!!           |
|           W    W  A    A  R    R  N N  N  II  N N  N  G       !!!           |
|           W WW W  AAAAAA  RRRRR   N  N N  II  N  N N  G  GGG   !            |
|           WW  WW  A    A  R   R   N   NN  II  N   NN  G    G                |
|           W    W  A    A  R    R  N    N  II  N    N   GGGG   !!!           |
|                                                                             |
|      For optimal performance we recommend to set                            |
|        NCORE= 4 - approx SQRT( number of cores)                             |
|      NCORE specifies how many cores store one orbital (NPAR=cpu/NCORE).     |
|      This setting can  greatly improve the performance of VASP for DFT.     |
|      The default,   NCORE=1            might be grossly inefficient         |
|      on modern multi-core architectures or massively parallel machines.     |
|      Do your own testing !!!!                                               |
|      Unfortunately you need to use the default for GW and RPA calculations. |
|      (for HF NCORE is supported but not extensively tested yet)             |
|                                                                             |
 ----------------------------------------------------------------------------- 

 POTCAR:    PAW_PBE Li_sv 10Sep2004               
  local pseudopotential read in
  atomic valenz-charges read in
  non local Contribution for L=           0  read in
    real space projection operators read in
  non local Contribution for L=           0  read in
    real space projection operators read in
  non local Contribution for L=           1  read in
    real space projection operators read in
    PAW grid and wavefunctions read in
 
   number of l-projection  operators is LMAX  =           3
   number of lm-projection operators is LMMAX =           5
 
 POTCAR:    PAW_PBE Ni 02Aug2007                  
  local pseudopotential read in
  partial core-charges read in
  partial kinetic energy density read in
  atomic valenz-charges read in
  non local Contribution for L=           2  read in
    real space projection operators read in
  non local Contribution for L=           2  read in
    real space projection operators read in
  non local Contribution for L=           0  read in
    real space projection operators read in
  non local Contribution for L=           0  read in
    real space projection operators read in
  non local Contribution for L=           1  read in
    real space projection operators read in
  non local Contribution for L=           1  read in
    real space projection operators read in
    PAW grid and wavefunctions read in
 
   number of l-projection  operators is LMAX  =           6
   number of lm-projection operators is LMMAX =          18
 
 POTCAR:    PAW_PBE O 08Apr2002                   
  local pseudopotential read in
  partial core-charges read in
  partial kinetic energy density read in
  kinetic energy density of atom read in
  atomic valenz-charges read in
  non local Contribution for L=           0  read in
    real space projection operators read in
  non local Contribution for L=           0  read in
    real space projection operators read in
  non local Contribution for L=           1  read in
    real space projection operators read in
  non local Contribution for L=           1  read in
    real space projection operators read in
    PAW grid and wavefunctions read in
 
   number of l-projection  operators is LMAX  =           4
   number of lm-projection operators is LMMAX =           8
 
 Optimization of the real space projectors (new method)

 maximal supplied QI-value         = 22.11
 optimisation between [QCUT,QGAM] = [ 11.28, 22.77] = [ 35.61,145.23] Ry 
 Optimized for a Real-space Cutoff    1.10 Angstroem

   l    n(q)    QCUT    max X(q) W(low)/X(q) W(high)/X(q)  e(spline) 
   0      7    11.276    10.506    0.54E-04    0.58E-04    0.16E-07
   0      7    11.276     8.367    0.11E-03    0.14E-03    0.35E-07
   1      7    11.276     8.983    0.23E-03    0.43E-03    0.86E-07
 Optimization of the real space projectors (new method)

 maximal supplied QI-value         = 16.25
 optimisation between [QCUT,QGAM] = [ 11.38, 22.75] = [ 36.24,144.96] Ry 
 Optimized for a Real-space Cutoff    1.47 Angstroem

   l    n(q)    QCUT    max X(q) W(low)/X(q) W(high)/X(q)  e(spline) 
   2      9    11.376    60.317    0.17E-03    0.16E-04    0.16E-06
   2      9    11.376    55.921    0.17E-03    0.16E-04    0.17E-06
   0     10    11.376    51.690    0.45E-04    0.60E-04    0.21E-06
   0     10    11.376    30.015    0.37E-04    0.55E-04    0.19E-06
   1     10    11.376    18.849    0.83E-04    0.11E-03    0.92E-07
   1     10    11.376    14.624    0.69E-04    0.92E-04    0.82E-07
 Optimization of the real space projectors (new method)

 maximal supplied QI-value         = 24.76
 optimisation between [QCUT,QGAM] = [ 11.39, 22.77] = [ 36.31,145.25] Ry 
 Optimized for a Real-space Cutoff    1.10 Angstroem

   l    n(q)    QCUT    max X(q) W(low)/X(q) W(high)/X(q)  e(spline) 
   0      7    11.387    20.381    0.22E-03    0.48E-03    0.18E-06
   0      7    11.387    15.268    0.22E-03    0.52E-03    0.19E-06
   1      7    11.387     5.964    0.22E-03    0.73E-03    0.24E-06
   1      7    11.387     5.382    0.19E-03    0.60E-03    0.21E-06

 ----------------------------------------------------------------------------- 
|                                                                             |
|  ADVICE TO THIS USER RUNNING 'VASP/VAMP'   (HEAR YOUR MASTER'S VOICE ...):  |
|                                                                             |
|      You enforced a specific xc-type in the INCAR file,                     |
|      a different type was found on the POTCAR file                          |
|          I HOPE YOU KNOW, WHAT YOU ARE  DOING                               |
|                                                                             |
 ----------------------------------------------------------------------------- 

  PAW_PBE Li_sv 10Sep2004               :
 energy of atom  1       EATOM= -202.7858
 kinetic energy error for atom=    0.0143 (will be added to EATOM!!)
  PAW_PBE Ni 02Aug2007                  :
 energy of atom  2       EATOM=-1077.6739
 kinetic energy error for atom=    0.0030 (will be added to EATOM!!)
  PAW_PBE O 08Apr2002                   :
 energy of atom  3       EATOM= -432.3788
 kinetic energy error for atom=    0.0224 (will be added to EATOM!!)
 
 
 POSCAR: ce7                                     
  positions in direct lattice
  No initial velocities read in
 exchange correlation table for  LEXCH =       14
   RHO(1)=    0.500       N(1)  =     2000
   RHO(2)=  100.500       N(2)  =     4000
 


--------------------------------------------------------------------------------------------------------


 ion  position               nearest neighbor table
   1  0.998  0.004  0.000-   7 2.07  10 2.07   9 2.10   6 2.10  11 2.14   8 2.14
   2  0.335  0.330  0.000-   9 2.07   6 2.07   7 2.10  10 2.10  11 2.14   8 2.14
   3  0.502  0.995  0.500-  10 1.86   7 1.86   8 1.91  11 1.91   9 1.94   6 1.94   4 2.80   5 2.82
                             5 2.82   4 2.85   4 2.85   5 2.86
   4  0.831  0.338  0.500-   6 1.86   9 1.86   8 1.91  11 1.91   7 1.94  10 1.94   3 2.80   5 2.82
                             5 2.82   3 2.85   3 2.85   5 2.86
   5  0.167  0.667  0.500-   8 1.85  11 1.85   9 1.98   6 1.98  10 1.98   7 1.98   3 2.82   4 2.82
                             4 2.82   3 2.82   4 2.86   3 2.86
   6  0.757  0.020  0.287-   4 1.86   3 1.94   5 1.98   2 2.07   1 2.10
   7  0.111  0.313  0.287-   3 1.86   4 1.94   5 1.98   1 2.07   2 2.10
   8  0.422  0.667  0.296-   5 1.85   3 1.91   4 1.91   1 2.14   2 2.14
   9  0.223  0.020  0.713-   4 1.86   3 1.94   5 1.98   2 2.07   1 2.10
  10  0.576  0.313  0.713-   3 1.86   4 1.94   5 1.98   1 2.07   2 2.10
  11  0.911  0.667  0.704-   5 1.85   3 1.91   4 1.91   1 2.14   2 2.14
 
  LATTYP: Found a base centered monoclinic cell.
 ALAT       =     4.8877421200
 B/A-ratio  =     1.7430986519
 C/A-ratio  =     1.9267827085
 COS(beta)  =    -0.4303880126
  
  Lattice vectors:
  
 A1 = (   2.4438710200,   4.2599083500,   0.0000000000)
 A2 = (   2.4438711000,  -4.2599083500,   0.0000000000)
 A3 = (  -8.1452697400,   0.0000000000,  -4.7271652000)


Analysis of symmetry for initial positions (statically):
=====================================================================
 Subroutine PRICEL returns:
 Original cell was already a primitive cell.
 

 Routine SETGRP: Setting up the symmetry group for a 
 base centered monoclinic supercell.


 Subroutine GETGRP returns: Found  4 space group operations
 (whereof  2 operations were pure point group operations)
 out of a pool of  4 trial point group operations.


The static configuration has the point symmetry C_2 .
 The point group associated with its full space group is C_2h.


Analysis of symmetry for dynamics (positions and initial velocities):
=====================================================================
 Subroutine PRICEL returns:
 Original cell was already a primitive cell.
 

 Routine SETGRP: Setting up the symmetry group for a 
 base centered monoclinic supercell.


 Subroutine GETGRP returns: Found  4 space group operations
 (whereof  2 operations were pure point group operations)
 out of a pool of  4 trial point group operations.


The dynamic configuration has the point symmetry C_2 .
 The point group associated with its full space group is C_2h.


Analysis of structural, dynamic, and magnetic symmetry:
=====================================================================
 Subroutine PRICEL returns:
 Original cell was already a primitive cell.
 

 Routine SETGRP: Setting up the symmetry group for a 
 base centered monoclinic supercell.


 Subroutine GETGRP returns: Found  4 space group operations
 (whereof  2 operations were pure point group operations)
 out of a pool of  4 trial point group operations.


The magnetic configuration has the point symmetry C_2 .
 The point group associated with its full space group is C_2h.


 Subroutine INISYM returns: Found  4 space group operations
 (whereof  2 operations are pure point group operations),
 and found     1 'primitive' translations

 
 
 KPOINTS: Automatic mesh                          

Automatic generation of k-mesh.
Space group operators:
 irot       det(A)        alpha          n_x          n_y          n_z        tau_x        tau_y        tau_z
    1     1.000000     0.000001     1.000000     0.000000     0.000000     0.000000     0.000000     0.000000
    2     1.000000   179.999999     0.000000     1.000000     0.000000     0.000000     0.000000     0.000000
    3    -1.000000     0.000001     1.000000     0.000000     0.000000     0.333333     0.333333     0.000000
    4    -1.000000   179.999999     0.000000     1.000000     0.000000     0.333333     0.333333     0.000000
 
 Subroutine IBZKPT returns following result:
 ===========================================
 
 Found    124 irreducible k-points:
 
 Following reciprocal coordinates:
            Coordinates               Weight
  0.000000  0.000000  0.000000      1.000000
  0.142857  0.000000 -0.000000      2.000000
  0.285714  0.000000 -0.000000      2.000000
  0.428571  0.000000  0.000000      2.000000
  0.000000  0.166667  0.000000      2.000000
  0.142857  0.166667 -0.000000      2.000000
  0.285714  0.166667 -0.000000      2.000000
  0.428571  0.166667  0.000000      2.000000
 -0.428571  0.166667  0.000000      2.000000
 -0.285714  0.166667  0.000000      2.000000
 -0.142857  0.166667  0.000000      2.000000
  0.000000  0.333333  0.000000      2.000000
  0.142857  0.333333 -0.000000      2.000000
  0.285714  0.333333 -0.000000      2.000000
  0.428571  0.333333  0.000000      2.000000
 -0.428571  0.333333  0.000000      2.000000
 -0.285714  0.333333  0.000000      2.000000
 -0.142857  0.333333  0.000000      2.000000
  0.000000  0.500000  0.000000      1.000000
  0.142857  0.500000 -0.000000      2.000000
  0.285714  0.500000 -0.000000      2.000000
  0.428571  0.500000  0.000000      2.000000
  0.000000  0.000000  0.166667      2.000000
  0.142857  0.000000  0.166667      2.000000
  0.285714  0.000000  0.166667      2.000000
  0.428571  0.000000  0.166667      2.000000
 -0.428571  0.000000  0.166667      2.000000
 -0.285714 -0.000000  0.166667      2.000000
 -0.142857 -0.000000  0.166667      2.000000
  0.000000  0.166667  0.166667      4.000000
  0.142857  0.166667  0.166667      2.000000
  0.285714  0.166667  0.166667      2.000000
  0.428571  0.166667  0.166667      2.000000
 -0.428571  0.166667  0.166667      2.000000
 -0.285714  0.166667  0.166667      2.000000
 -0.142857  0.166667  0.166667      2.000000
  0.000000  0.333333  0.166667      4.000000
  0.142857  0.333333  0.166667      2.000000
  0.285714  0.333333  0.166667      2.000000
  0.428571  0.333333  0.166667      2.000000
 -0.428571  0.333333  0.166667      2.000000
 -0.285714  0.333333  0.166667      2.000000
 -0.142857  0.333333  0.166667      2.000000
  0.000000  0.500000  0.166667      2.000000
  0.142857  0.500000  0.166667      2.000000
  0.285714  0.500000  0.166667      2.000000
  0.428571  0.500000  0.166667      2.000000
 -0.428571  0.500000  0.166667      2.000000
 -0.285714  0.500000  0.166667      2.000000
 -0.142857  0.500000  0.166667      2.000000
  0.142857 -0.333333  0.166667      2.000000
  0.285714 -0.333333  0.166667      2.000000
  0.428571 -0.333333  0.166667      2.000000
 -0.428571 -0.333333  0.166667      2.000000
 -0.285714 -0.333333  0.166667      2.000000
 -0.142857 -0.333333  0.166667      2.000000
  0.142857 -0.166667  0.166667      2.000000
  0.285714 -0.166667  0.166667      2.000000
  0.428571 -0.166667  0.166667      2.000000
 -0.428571 -0.166667  0.166667      2.000000
 -0.285714 -0.166667  0.166667      2.000000
 -0.142857 -0.166667  0.166667      2.000000
  0.000000  0.000000  0.333333      2.000000
  0.142857  0.000000  0.333333      2.000000
  0.285714  0.000000  0.333333      2.000000
  0.428571  0.000000  0.333333      2.000000
 -0.428571  0.000000  0.333333      2.000000
 -0.285714 -0.000000  0.333333      2.000000
 -0.142857 -0.000000  0.333333      2.000000
  0.000000  0.166667  0.333333      4.000000
  0.142857  0.166667  0.333333      2.000000
  0.285714  0.166667  0.333333      2.000000
  0.428571  0.166667  0.333333      2.000000
 -0.428571  0.166667  0.333333      2.000000
 -0.285714  0.166667  0.333333      2.000000
 -0.142857  0.166667  0.333333      2.000000
  0.000000  0.333333  0.333333      4.000000
  0.142857  0.333333  0.333333      2.000000
  0.285714  0.333333  0.333333      2.000000
  0.428571  0.333333  0.333333      2.000000
 -0.428571  0.333333  0.333333      2.000000
 -0.285714  0.333333  0.333333      2.000000
 -0.142857  0.333333  0.333333      2.000000
  0.000000  0.500000  0.333333      2.000000
  0.142857  0.500000  0.333333      2.000000
  0.285714  0.500000  0.333333      2.000000
  0.428571  0.500000  0.333333      2.000000
 -0.428571  0.500000  0.333333      2.000000
 -0.285714  0.500000  0.333333      2.000000
 -0.142857  0.500000  0.333333      2.000000
  0.142857 -0.333333  0.333333      2.000000
  0.285714 -0.333333  0.333333      2.000000
  0.428571 -0.333333  0.333333      2.000000
 -0.428571 -0.333333  0.333333      2.000000
 -0.285714 -0.333333  0.333333      2.000000
 -0.142857 -0.333333  0.333333      2.000000
  0.142857 -0.166667  0.333333      2.000000
  0.285714 -0.166667  0.333333      2.000000
  0.428571 -0.166667  0.333333      2.000000
 -0.428571 -0.166667  0.333333      2.000000
 -0.285714 -0.166667  0.333333      2.000000
 -0.142857 -0.166667  0.333333      2.000000
  0.000000  0.000000  0.500000      1.000000
  0.142857  0.000000  0.500000      2.000000
  0.285714  0.000000  0.500000      2.000000
  0.428571  0.000000  0.500000      2.000000
  0.000000  0.166667  0.500000      2.000000
  0.142857  0.166667  0.500000      2.000000
  0.285714  0.166667  0.500000      2.000000
  0.428571  0.166667  0.500000      2.000000
 -0.428571  0.166667  0.500000      2.000000
 -0.285714  0.166667  0.500000      2.000000
 -0.142857  0.166667  0.500000      2.000000
  0.000000  0.333333  0.500000      2.000000
  0.142857  0.333333  0.500000      2.000000
  0.285714  0.333333  0.500000      2.000000
  0.428571  0.333333  0.500000      2.000000
 -0.428571  0.333333  0.500000      2.000000
 -0.285714  0.333333  0.500000      2.000000
 -0.142857  0.333333  0.500000      2.000000
  0.000000  0.500000  0.500000      1.000000
  0.142857  0.500000  0.500000      2.000000
  0.285714  0.500000  0.500000      2.000000
  0.428571  0.500000  0.500000      2.000000
 
 Following cartesian coordinates:
            Coordinates               Weight
  0.000000  0.000000  0.000000      1.000000
  0.029228 -0.016768  0.010079      2.000000
  0.058455 -0.033535  0.020159      2.000000
  0.087683 -0.050303  0.030238      2.000000
  0.000000  0.039124  0.000000      2.000000
  0.029228  0.022357  0.010079      2.000000
  0.058455  0.005589  0.020159      2.000000
  0.087683 -0.011178  0.030238      2.000000
 -0.087683  0.089427 -0.030238      2.000000
 -0.058455  0.072660 -0.020159      2.000000
 -0.029228  0.055892 -0.010079      2.000000
  0.000000  0.078249  0.000000      2.000000
  0.029228  0.061481  0.010079      2.000000
  0.058455  0.044714  0.020159      2.000000
  0.087683  0.027946  0.030238      2.000000
 -0.087683  0.128552 -0.030238      2.000000
 -0.058455  0.111784 -0.020159      2.000000
 -0.029228  0.095017 -0.010079      2.000000
  0.000000  0.117373  0.000000      1.000000
  0.029228  0.100606  0.010079      2.000000
  0.058455  0.083838  0.020159      2.000000
  0.087683  0.067071  0.030238      2.000000
  0.000000  0.000000  0.035257      2.000000
  0.029228 -0.016768  0.045337      2.000000
  0.058455 -0.033535  0.055416      2.000000
  0.087683 -0.050303  0.065496      2.000000
 -0.087683  0.050303  0.005019      2.000000
 -0.058455  0.033535  0.015098      2.000000
 -0.029228  0.016768  0.025178      2.000000
  0.000000  0.039124  0.035257      4.000000
  0.029228  0.022357  0.045337      2.000000
  0.058455  0.005589  0.055416      2.000000
  0.087683 -0.011178  0.065496      2.000000
 -0.087683  0.089427  0.005019      2.000000
 -0.058455  0.072660  0.015098      2.000000
 -0.029228  0.055892  0.025178      2.000000
  0.000000  0.078249  0.035257      4.000000
  0.029228  0.061481  0.045337      2.000000
  0.058455  0.044714  0.055416      2.000000
  0.087683  0.027946  0.065496      2.000000
 -0.087683  0.128552  0.005019      2.000000
 -0.058455  0.111784  0.015098      2.000000
 -0.029228  0.095017  0.025178      2.000000
  0.000000  0.117373  0.035257      2.000000
  0.029228  0.100606  0.045337      2.000000
  0.058455  0.083838  0.055416      2.000000
  0.087683  0.067071  0.065496      2.000000
 -0.087683  0.167676  0.005019      2.000000
 -0.058455  0.150909  0.015098      2.000000
 -0.029228  0.134141  0.025178      2.000000
  0.029228 -0.095017  0.045337      2.000000
  0.058455 -0.111784  0.055416      2.000000
  0.087683 -0.128552  0.065496      2.000000
 -0.087683 -0.027946  0.005019      2.000000
 -0.058455 -0.044714  0.015098      2.000000
 -0.029228 -0.061481  0.025178      2.000000
  0.029228 -0.055892  0.045337      2.000000
  0.058455 -0.072660  0.055416      2.000000
  0.087683 -0.089427  0.065496      2.000000
 -0.087683  0.011178  0.005019      2.000000
 -0.058455 -0.005589  0.015098      2.000000
 -0.029228 -0.022357  0.025178      2.000000
  0.000000  0.000000  0.070514      2.000000
  0.029228 -0.016768  0.080594      2.000000
  0.058455 -0.033535  0.090673      2.000000
  0.087683 -0.050303  0.100753      2.000000
 -0.087683  0.050303  0.040276      2.000000
 -0.058455  0.033535  0.050355      2.000000
 -0.029228  0.016768  0.060435      2.000000
  0.000000  0.039124  0.070514      4.000000
  0.029228  0.022357  0.080594      2.000000
  0.058455  0.005589  0.090673      2.000000
  0.087683 -0.011178  0.100753      2.000000
 -0.087683  0.089427  0.040276      2.000000
 -0.058455  0.072660  0.050355      2.000000
 -0.029228  0.055892  0.060435      2.000000
  0.000000  0.078249  0.070514      4.000000
  0.029228  0.061481  0.080594      2.000000
  0.058455  0.044714  0.090673      2.000000
  0.087683  0.027946  0.100753      2.000000
 -0.087683  0.128552  0.040276      2.000000
 -0.058455  0.111784  0.050355      2.000000
 -0.029228  0.095017  0.060435      2.000000
  0.000000  0.117373  0.070514      2.000000
  0.029228  0.100606  0.080594      2.000000
  0.058455  0.083838  0.090673      2.000000
  0.087683  0.067071  0.100753      2.000000
 -0.087683  0.167676  0.040276      2.000000
 -0.058455  0.150909  0.050355      2.000000
 -0.029228  0.134141  0.060435      2.000000
  0.029228 -0.095017  0.080594      2.000000
  0.058455 -0.111784  0.090673      2.000000
  0.087683 -0.128552  0.100753      2.000000
 -0.087683 -0.027946  0.040276      2.000000
 -0.058455 -0.044714  0.050355      2.000000
 -0.029228 -0.061481  0.060435      2.000000
  0.029228 -0.055892  0.080594      2.000000
  0.058455 -0.072660  0.090673      2.000000
  0.087683 -0.089427  0.100753      2.000000
 -0.087683  0.011178  0.040276      2.000000
 -0.058455 -0.005589  0.050355      2.000000
 -0.029228 -0.022357  0.060435      2.000000
  0.000000  0.000000  0.105772      1.000000
  0.029228 -0.016768  0.115851      2.000000
  0.058455 -0.033535  0.125931      2.000000
  0.087683 -0.050303  0.136010      2.000000
  0.000000  0.039124  0.105772      2.000000
  0.029228  0.022357  0.115851      2.000000
  0.058455  0.005589  0.125931      2.000000
  0.087683 -0.011178  0.136010      2.000000
 -0.087683  0.089427  0.075533      2.000000
 -0.058455  0.072660  0.085613      2.000000
 -0.029228  0.055892  0.095692      2.000000
  0.000000  0.078249  0.105772      2.000000
  0.029228  0.061481  0.115851      2.000000
  0.058455  0.044714  0.125931      2.000000
  0.087683  0.027946  0.136010      2.000000
 -0.087683  0.128552  0.075533      2.000000
 -0.058455  0.111784  0.085613      2.000000
 -0.029228  0.095017  0.095692      2.000000
  0.000000  0.117373  0.105772      1.000000
  0.029228  0.100606  0.115851      2.000000
  0.058455  0.083838  0.125931      2.000000
  0.087683  0.067071  0.136010      2.000000
 


--------------------------------------------------------------------------------------------------------




 Dimension of arrays:
   k-points           NKPTS =    124   k-points in BZ     NKDIM =    124   number of bands    NBANDS=     48
   number of dos      NEDOS =    301   number of ions     NIONS =     11
   non local maximal  LDIM  =      6   non local SUM 2l+1 LMDIM =     18
   total plane-waves  NPLWV =  46656
   max r-space proj   IRMAX =   6414   max aug-charges    IRDMAX=  15563
   dimension x,y,z NGX =    36 NGY =   36 NGZ =   36
   dimension x,y,z NGXF=    72 NGYF=   72 NGZF=   72
   support grid    NGXF=    72 NGYF=   72 NGZF=   72
   ions per type =               2   3   6
   NGX,Y,Z   is equivalent  to a cutoff of  12.24, 12.19, 11.97 a.u.
   NGXF,Y,Z  is equivalent  to a cutoff of  24.49, 24.37, 23.94 a.u.

 SYSTEM =  unknown system                          
 POSCAR =  ce7                                     

 Startparameter for this run:
   NWRITE =      1    write-flag & timer
   PREC   = accura    normal or accurate (medium, high low for compatibility)
   ISTART =      0    job   : 0-new  1-cont  2-samecut
   ICHARG =      2    charge: 1-file 2-atom 10-const
   ISPIN  =      2    spin polarized calculation?
   LNONCOLLINEAR =      F non collinear calculations
   LSORBIT =      F    spin-orbit coupling
   INIWAV =      1    electr: 0-lowe 1-rand  2-diag
   LASPH  =      F    aspherical Exc in radial PAW
   METAGGA=      F    non-selfconsistent MetaGGA calc.

 Electronic Relaxation 1
   ENCUT  =  500.0 eV  36.75 Ry    6.06 a.u.   8.91  8.95  9.12*2*pi/ulx,y,z
   ENINI  =  500.0     initial cutoff
   ENAUG  =  628.9 eV  augmentation charge cutoff
   NELM   =     80;   NELMIN=  2; NELMDL= -5     # of ELM steps 
   EDIFF  = 0.1E-04   stopping-criterion for ELM
   LREAL  =      T    real-space projection
   NLSPLINE    = F    spline interpolate recip. space projectors
   LCOMPAT=      F    compatible to vasp.4.4
   GGA_COMPAT  = T    GGA compatible to vasp.4.4-vasp.4.6
   LMAXPAW     = -100 max onsite density
   LMAXMIX     =    2 max onsite mixed and CHGCAR
   VOSKOWN=      1    Vosko Wilk Nusair interpolation
   ROPT   =   -0.00025  -0.00025  -0.00025
 Ionic relaxation
   EDIFFG = 0.1E-03   stopping-criterion for IOM
   NSW    =      0    number of steps for IOM
   NBLOCK =      1;   KBLOCK =      1    inner block; outer block 
   IBRION =     -1    ionic relax: 0-MD 1-quasi-New 2-CG
   NFREE  =      0    steps in history (QN), initial steepest desc. (CG)
   ISIF   =      2    stress and relaxation
   IWAVPR =     10    prediction:  0-non 1-charg 2-wave 3-comb
   ISYM   =      2    0-nonsym 1-usesym 2-fastsym
   LCORR  =      T    Harris-Foulkes like correction to forces

   POTIM  = 0.5000    time-step for ionic-motion
   TEIN   =    0.0    initial temperature
   TEBEG  =    0.0;   TEEND  =   0.0 temperature during run
   SMASS  =  -3.00    Nose mass-parameter (am)
   estimated Nose-frequenzy (Omega)   =  0.10E-29 period in steps =****** mass=  -0.546E-27a.u.
   SCALEE = 1.0000    scale energy and forces
   NPACO  =    256;   APACO  = 16.0  distance and # of slots for P.C.
   PSTRESS=    0.0 pullay stress

  Mass of Ions in am
   POMASS =   7.01 58.69 16.00
  Ionic Valenz
   ZVAL   =   3.00 10.00  6.00
  Atomic Wigner-Seitz radii
   RWIGS  =   1.23  1.15  0.73
  virtual crystal weights 
   VCA    =   1.00  1.00  1.00
   NELECT =      72.0000    total number of electrons
   NUPDOWN=      -1.0000    fix difference up-down

 DOS related values:
   EMIN   =  10.00;   EMAX   =-10.00  energy-range for DOS
   EFERMI =   0.00
   ISMEAR =     0;   SIGMA  =   0.05  broadening in eV -4-tet -1-fermi 0-gaus

 Electronic relaxation 2 (details)
   IALGO  =     38    algorithm
   LDIAG  =      T    sub-space diagonalisation (order eigenvalues)
   LSUBROT=      F    optimize rotation matrix (better conditioning)
   TURBO    =      0    0=normal 1=particle mesh
   IRESTART =      0    0=no restart 2=restart with 2 vectors
   NREBOOT  =      0    no. of reboots
   NMIN     =      0    reboot dimension
   EREF     =   0.00    reference energy to select bands
   IMIX   =      4    mixing-type and parameters
     AMIX     =   0.40;   BMIX     =  1.00
     AMIX_MAG =   1.60;   BMIX_MAG =  1.00
     AMIN     =   0.10
     WC   =   100.;   INIMIX=   1;  MIXPRE=   1;  MAXMIX= -45

 Intra band minimization:
   WEIMIN = 0.0000     energy-eigenvalue tresh-hold
   EBREAK =  0.52E-07  absolut break condition
   DEPER  =   0.30     relativ break condition  

   TIME   =   0.40     timestep for ELM

  volume/ion in A,a.u.               =       8.95        60.38
  Fermi-wavevector in a.u.,A,eV,Ry     =   1.475081  2.787499 29.604429  2.175864
  Thomas-Fermi vector in A             =   2.589774
 
 Write flags
   LWAVE        =      F    write WAVECAR
   LDOWNSAMPLE  =      F    k-point downsampling of WAVECAR
   LCHARG       =      T    write CHGCAR
   LVTOT        =      F    write LOCPOT, total local potential
   LVHAR        =      F    write LOCPOT, Hartree potential only
   LELF         =      F    write electronic localiz. function (ELF)
   LORBIT       =      0    0 simple, 1 ext, 2 COOP (PROOUT), +10 PAW based schemes


 Dipole corrections
   LMONO  =      F    monopole corrections only (constant potential shift)
   LDIPOL =      F    correct potential (dipole corrections)
   IDIPOL =      0    1-x, 2-y, 3-z, 4-all directions 
   EPSILON=  1.0000000 bulk dielectric constant

 Exchange correlation treatment:
   GGA     =    PS    GGA type
   LEXCH   =    14    internal setting for exchange type
   VOSKOWN=      1    Vosko Wilk Nusair interpolation
   LHFCALC =     F    Hartree Fock is set to
   LHFONE  =     F    Hartree Fock one center treatment
   AEXX    =    0.0000 exact exchange contribution

 Linear response parameters
   LEPSILON=     F    determine dielectric tensor
   LRPA    =     F    only Hartree local field effects (RPA)
   LNABLA  =     F    use nabla operator in PAW spheres
   LVEL    =     F    velocity operator in full k-point grid
   LINTERFAST=   F  fast interpolation
   KINTER  =     0    interpolate to denser k-point grid
   CSHIFT  =0.1000    complex shift for real part using Kramers Kronig
   OMEGAMAX=  -1.0    maximum frequency
   DEG_THRESHOLD= 0.2000000E-02 threshold for treating states as degnerate
   RTIME   =   -0.100 relaxation time in fs
  (WPLASMAI=    0.000 imaginary part of plasma frequency in eV, 0.658/RTIME)
   DFIELD  = 0.0000000 0.0000000 0.0000000 field for delta impulse in time
 
 Orbital magnetization related:
   ORBITALMAG=     F  switch on orbital magnetization
   LCHIMAG   =     F  perturbation theory with respect to B field
   DQ        =  0.001000  dq finite difference perturbation B field
   LLRAUG    =     F  two centre corrections for induced B field



--------------------------------------------------------------------------------------------------------


 Static calculation
 charge density and potential will be updated during run
 spin polarized calculation
 Variant of blocked Davidson
 Davidson routine will perform the subspace rotation
 perform sub-space diagonalisation
    after iterative eigenvector-optimisation
 modified Broyden-mixing scheme, WC =      100.0
 initial mixing is a Kerker type mixing with AMIX =  0.4000 and BMIX =      1.0000
 Hartree-type preconditioning will be used
 using additional bands           12
 real space projection scheme for non local part
 use partial core corrections
 calculate Harris-corrections to forces 
   (improved forces if not selfconsistent)
 use gradient corrections 
 use of overlap-Matrix (Vanderbilt PP)
 Gauss-broadening in eV      SIGMA  =   0.05


--------------------------------------------------------------------------------------------------------


  energy-cutoff  :      500.00
  volume of cell :       98.43
      direct lattice vectors                 reciprocal lattice vectors
     4.887742120  0.000000000  0.000000000     0.204593445 -0.117373415  0.070556282
     2.443871020  4.259908350  0.000000000     0.000000000  0.234746834  0.000000000
    -1.630214500  0.000000000  4.727165200     0.000000000  0.000000000  0.211543273

  length of vectors
     4.887742120  4.911142913  5.000369001     0.246197452  0.234746834  0.211543273


 
 k-points in units of 2pi/SCALE and weight: Automatic mesh                          
   0.00000000  0.00000000  0.00000000       0.004
   0.02922764 -0.01676763  0.01007947       0.008
   0.05845527 -0.03353526  0.02015894       0.008
   0.08768291 -0.05030289  0.03023841       0.008
   0.00000000  0.03912447  0.00000000       0.008
   0.02922764  0.02235684  0.01007947       0.008
   0.05845527  0.00558921  0.02015894       0.008
   0.08768291 -0.01117842  0.03023841       0.008
  -0.08768291  0.08942736 -0.03023841       0.008
  -0.05845527  0.07265973 -0.02015894       0.008
  -0.02922764  0.05589210 -0.01007947       0.008
   0.00000000  0.07824894  0.00000000       0.008
   0.02922764  0.06148131  0.01007947       0.008
   0.05845527  0.04471368  0.02015894       0.008
   0.08768291  0.02794605  0.03023841       0.008
  -0.08768291  0.12855184 -0.03023841       0.008
  -0.05845527  0.11178421 -0.02015894       0.008
  -0.02922764  0.09501658 -0.01007947       0.008
   0.00000000  0.11737342  0.00000000       0.004
   0.02922764  0.10060579  0.01007947       0.008
   0.05845527  0.08383816  0.02015894       0.008
   0.08768291  0.06707052  0.03023841       0.008
   0.00000000  0.00000000  0.03525721       0.008
   0.02922764 -0.01676763  0.04533668       0.008
   0.05845527 -0.03353526  0.05541615       0.008
   0.08768291 -0.05030289  0.06549562       0.008
  -0.08768291  0.05030289  0.00501881       0.008
  -0.05845527  0.03353526  0.01509827       0.008
  -0.02922764  0.01676763  0.02517774       0.008
   0.00000000  0.03912447  0.03525721       0.016
   0.02922764  0.02235684  0.04533668       0.008
   0.05845527  0.00558921  0.05541615       0.008
   0.08768291 -0.01117842  0.06549562       0.008
  -0.08768291  0.08942736  0.00501881       0.008
  -0.05845527  0.07265973  0.01509827       0.008
  -0.02922764  0.05589210  0.02517774       0.008
   0.00000000  0.07824894  0.03525721       0.016
   0.02922764  0.06148131  0.04533668       0.008
   0.05845527  0.04471368  0.05541615       0.008
   0.08768291  0.02794605  0.06549562       0.008
  -0.08768291  0.12855184  0.00501881       0.008
  -0.05845527  0.11178421  0.01509827       0.008
  -0.02922764  0.09501658  0.02517774       0.008
   0.00000000  0.11737342  0.03525721       0.008
   0.02922764  0.10060579  0.04533668       0.008
   0.05845527  0.08383816  0.05541615       0.008
   0.08768291  0.06707052  0.06549562       0.008
  -0.08768291  0.16767631  0.00501881       0.008
  -0.05845527  0.15090868  0.01509827       0.008
  -0.02922764  0.13414105  0.02517774       0.008
   0.02922764 -0.09501658  0.04533668       0.008
   0.05845527 -0.11178421  0.05541615       0.008
   0.08768291 -0.12855184  0.06549562       0.008
  -0.08768291 -0.02794605  0.00501881       0.008
  -0.05845527 -0.04471368  0.01509827       0.008
  -0.02922764 -0.06148131  0.02517774       0.008
   0.02922764 -0.05589210  0.04533668       0.008
   0.05845527 -0.07265973  0.05541615       0.008
   0.08768291 -0.08942736  0.06549562       0.008
  -0.08768291  0.01117842  0.00501881       0.008
  -0.05845527 -0.00558921  0.01509827       0.008
  -0.02922764 -0.02235684  0.02517774       0.008
   0.00000000  0.00000000  0.07051442       0.008
   0.02922764 -0.01676763  0.08059389       0.008
   0.05845527 -0.03353526  0.09067336       0.008
   0.08768291 -0.05030289  0.10075283       0.008
  -0.08768291  0.05030289  0.04027602       0.008
  -0.05845527  0.03353526  0.05035549       0.008
  -0.02922764  0.01676763  0.06043496       0.008
   0.00000000  0.03912447  0.07051442       0.016
   0.02922764  0.02235684  0.08059389       0.008
   0.05845527  0.00558921  0.09067336       0.008
   0.08768291 -0.01117842  0.10075283       0.008
  -0.08768291  0.08942736  0.04027602       0.008
  -0.05845527  0.07265973  0.05035549       0.008
  -0.02922764  0.05589210  0.06043496       0.008
   0.00000000  0.07824894  0.07051442       0.016
   0.02922764  0.06148131  0.08059389       0.008
   0.05845527  0.04471368  0.09067336       0.008
   0.08768291  0.02794605  0.10075283       0.008
  -0.08768291  0.12855184  0.04027602       0.008
  -0.05845527  0.11178421  0.05035549       0.008
  -0.02922764  0.09501658  0.06043496       0.008
   0.00000000  0.11737342  0.07051442       0.008
   0.02922764  0.10060579  0.08059389       0.008
   0.05845527  0.08383816  0.09067336       0.008
   0.08768291  0.06707052  0.10075283       0.008
  -0.08768291  0.16767631  0.04027602       0.008
  -0.05845527  0.15090868  0.05035549       0.008
  -0.02922764  0.13414105  0.06043496       0.008
   0.02922764 -0.09501658  0.08059389       0.008
   0.05845527 -0.11178421  0.09067336       0.008
   0.08768291 -0.12855184  0.10075283       0.008
  -0.08768291 -0.02794605  0.04027602       0.008
  -0.05845527 -0.04471368  0.05035549       0.008
  -0.02922764 -0.06148131  0.06043496       0.008
   0.02922764 -0.05589210  0.08059389       0.008
   0.05845527 -0.07265973  0.09067336       0.008
   0.08768291 -0.08942736  0.10075283       0.008
  -0.08768291  0.01117842  0.04027602       0.008
  -0.05845527 -0.00558921  0.05035549       0.008
  -0.02922764 -0.02235684  0.06043496       0.008
   0.00000000  0.00000000  0.10577164       0.004
   0.02922764 -0.01676763  0.11585111       0.008
   0.05845527 -0.03353526  0.12593057       0.008
   0.08768291 -0.05030289  0.13601004       0.008
   0.00000000  0.03912447  0.10577164       0.008
   0.02922764  0.02235684  0.11585111       0.008
   0.05845527  0.00558921  0.12593057       0.008
   0.08768291 -0.01117842  0.13601004       0.008
  -0.08768291  0.08942736  0.07553323       0.008
  -0.05845527  0.07265973  0.08561270       0.008
  -0.02922764  0.05589210  0.09569217       0.008
   0.00000000  0.07824894  0.10577164       0.008
   0.02922764  0.06148131  0.11585111       0.008
   0.05845527  0.04471368  0.12593057       0.008
   0.08768291  0.02794605  0.13601004       0.008
  -0.08768291  0.12855184  0.07553323       0.008
  -0.05845527  0.11178421  0.08561270       0.008
  -0.02922764  0.09501658  0.09569217       0.008
   0.00000000  0.11737342  0.10577164       0.004
   0.02922764  0.10060579  0.11585111       0.008
   0.05845527  0.08383816  0.12593057       0.008
   0.08768291  0.06707052  0.13601004       0.008
 
 k-points in reciprocal lattice and weights: Automatic mesh                          
   0.00000000  0.00000000  0.00000000       0.004
   0.14285714  0.00000000 -0.00000000       0.008
   0.28571429  0.00000000 -0.00000000       0.008
   0.42857143  0.00000000  0.00000000       0.008
   0.00000000  0.16666667  0.00000000       0.008
   0.14285714  0.16666667 -0.00000000       0.008
   0.28571429  0.16666667 -0.00000000       0.008
   0.42857143  0.16666667  0.00000000       0.008
  -0.42857143  0.16666667  0.00000000       0.008
  -0.28571429  0.16666667  0.00000000       0.008
  -0.14285714  0.16666667  0.00000000       0.008
   0.00000000  0.33333333  0.00000000       0.008
   0.14285714  0.33333333 -0.00000000       0.008
   0.28571429  0.33333333 -0.00000000       0.008
   0.42857143  0.33333333  0.00000000       0.008
  -0.42857143  0.33333333  0.00000000       0.008
  -0.28571429  0.33333333  0.00000000       0.008
  -0.14285714  0.33333333  0.00000000       0.008
   0.00000000  0.50000000  0.00000000       0.004
   0.14285714  0.50000000 -0.00000000       0.008
   0.28571429  0.50000000 -0.00000000       0.008
   0.42857143  0.50000000  0.00000000       0.008
   0.00000000  0.00000000  0.16666667       0.008
   0.14285714  0.00000000  0.16666667       0.008
   0.28571429  0.00000000  0.16666667       0.008
   0.42857143  0.00000000  0.16666667       0.008
  -0.42857143  0.00000000  0.16666667       0.008
  -0.28571429 -0.00000000  0.16666667       0.008
  -0.14285714 -0.00000000  0.16666667       0.008
   0.00000000  0.16666667  0.16666667       0.016
   0.14285714  0.16666667  0.16666667       0.008
   0.28571429  0.16666667  0.16666667       0.008
   0.42857143  0.16666667  0.16666667       0.008
  -0.42857143  0.16666667  0.16666667       0.008
  -0.28571429  0.16666667  0.16666667       0.008
  -0.14285714  0.16666667  0.16666667       0.008
   0.00000000  0.33333333  0.16666667       0.016
   0.14285714  0.33333333  0.16666667       0.008
   0.28571429  0.33333333  0.16666667       0.008
   0.42857143  0.33333333  0.16666667       0.008
  -0.42857143  0.33333333  0.16666667       0.008
  -0.28571429  0.33333333  0.16666667       0.008
  -0.14285714  0.33333333  0.16666667       0.008
   0.00000000  0.50000000  0.16666667       0.008
   0.14285714  0.50000000  0.16666667       0.008
   0.28571429  0.50000000  0.16666667       0.008
   0.42857143  0.50000000  0.16666667       0.008
  -0.42857143  0.50000000  0.16666667       0.008
  -0.28571429  0.50000000  0.16666667       0.008
  -0.14285714  0.50000000  0.16666667       0.008
   0.14285714 -0.33333333  0.16666667       0.008
   0.28571429 -0.33333333  0.16666667       0.008
   0.42857143 -0.33333333  0.16666667       0.008
  -0.42857143 -0.33333333  0.16666667       0.008
  -0.28571429 -0.33333333  0.16666667       0.008
  -0.14285714 -0.33333333  0.16666667       0.008
   0.14285714 -0.16666667  0.16666667       0.008
   0.28571429 -0.16666667  0.16666667       0.008
   0.42857143 -0.16666667  0.16666667       0.008
  -0.42857143 -0.16666667  0.16666667       0.008
  -0.28571429 -0.16666667  0.16666667       0.008
  -0.14285714 -0.16666667  0.16666667       0.008
   0.00000000  0.00000000  0.33333333       0.008
   0.14285714  0.00000000  0.33333333       0.008
   0.28571429  0.00000000  0.33333333       0.008
   0.42857143  0.00000000  0.33333333       0.008
  -0.42857143  0.00000000  0.33333333       0.008
  -0.28571429 -0.00000000  0.33333333       0.008
  -0.14285714 -0.00000000  0.33333333       0.008
   0.00000000  0.16666667  0.33333333       0.016
   0.14285714  0.16666667  0.33333333       0.008
   0.28571429  0.16666667  0.33333333       0.008
   0.42857143  0.16666667  0.33333333       0.008
  -0.42857143  0.16666667  0.33333333       0.008
  -0.28571429  0.16666667  0.33333333       0.008
  -0.14285714  0.16666667  0.33333333       0.008
   0.00000000  0.33333333  0.33333333       0.016
   0.14285714  0.33333333  0.33333333       0.008
   0.28571429  0.33333333  0.33333333       0.008
   0.42857143  0.33333333  0.33333333       0.008
  -0.42857143  0.33333333  0.33333333       0.008
  -0.28571429  0.33333333  0.33333333       0.008
  -0.14285714  0.33333333  0.33333333       0.008
   0.00000000  0.50000000  0.33333333       0.008
   0.14285714  0.50000000  0.33333333       0.008
   0.28571429  0.50000000  0.33333333       0.008
   0.42857143  0.50000000  0.33333333       0.008
  -0.42857143  0.50000000  0.33333333       0.008
  -0.28571429  0.50000000  0.33333333       0.008
  -0.14285714  0.50000000  0.33333333       0.008
   0.14285714 -0.33333333  0.33333333       0.008
   0.28571429 -0.33333333  0.33333333       0.008
   0.42857143 -0.33333333  0.33333333       0.008
  -0.42857143 -0.33333333  0.33333333       0.008
  -0.28571429 -0.33333333  0.33333333       0.008
  -0.14285714 -0.33333333  0.33333333       0.008
   0.14285714 -0.16666667  0.33333333       0.008
   0.28571429 -0.16666667  0.33333333       0.008
   0.42857143 -0.16666667  0.33333333       0.008
  -0.42857143 -0.16666667  0.33333333       0.008
  -0.28571429 -0.16666667  0.33333333       0.008
  -0.14285714 -0.16666667  0.33333333       0.008
   0.00000000  0.00000000  0.50000000       0.004
   0.14285714  0.00000000  0.50000000       0.008
   0.28571429  0.00000000  0.50000000       0.008
   0.42857143  0.00000000  0.50000000       0.008
   0.00000000  0.16666667  0.50000000       0.008
   0.14285714  0.16666667  0.50000000       0.008
   0.28571429  0.16666667  0.50000000       0.008
   0.42857143  0.16666667  0.50000000       0.008
  -0.42857143  0.16666667  0.50000000       0.008
  -0.28571429  0.16666667  0.50000000       0.008
  -0.14285714  0.16666667  0.50000000       0.008
   0.00000000  0.33333333  0.50000000       0.008
   0.14285714  0.33333333  0.50000000       0.008
   0.28571429  0.33333333  0.50000000       0.008
   0.42857143  0.33333333  0.50000000       0.008
  -0.42857143  0.33333333  0.50000000       0.008
  -0.28571429  0.33333333  0.50000000       0.008
  -0.14285714  0.33333333  0.50000000       0.008
   0.00000000  0.50000000  0.50000000       0.004
   0.14285714  0.50000000  0.50000000       0.008
   0.28571429  0.50000000  0.50000000       0.008
   0.42857143  0.50000000  0.50000000       0.008
 
 position of ions in fractional coordinates (direct lattice) 
   0.99818247  0.00363506  0.00000000
   0.33515086  0.32969827  0.00000000
   0.50243030  0.99513939  0.50000000
   0.83090303  0.33819394  0.50000000
   0.16666667  0.66666667  0.50000000
   0.75708770  0.02037255  0.28697129
   0.11079358  0.31296078  0.28697129
   0.42189016  0.66666667  0.29552609
   0.22253975  0.02037255  0.71302871
   0.57624563  0.31296078  0.71302871
   0.91144318  0.66666667  0.70447391
 
 position of ions in cartesian coordinates  (Angst):
   4.88774212  0.01548502  0.00000000
   2.44387102  1.40448441  0.00000000
   4.07263481  4.23920260  2.36358260
   4.07263486  1.44067519  2.36358260
   1.62876381  2.83993891  2.36358260
   3.28241257  0.08678520  1.35656070
   0.83854147  1.33318424  1.35656070
   3.20956674  2.83993891  1.39700065
  -0.02488495  0.08678520  3.37060450
   2.41898608  1.33318424  3.37060450
   4.93570299  2.83993891  3.33016455
 


--------------------------------------------------------------------------------------------------------


 k-point  1 :   0.0000 0.0000 0.0000  plane waves:    2479
 k-point  2 :   0.1429 0.0000-0.0000  plane waves:    2490
 k-point  3 :   0.2857 0.0000-0.0000  plane waves:    2490
 k-point  4 :   0.4286 0.0000 0.0000  plane waves:    2490
 k-point  5 :   0.0000 0.1667 0.0000  plane waves:    2497
 k-point  6 :   0.1429 0.1667-0.0000  plane waves:    2491
 k-point  7 :   0.2857 0.1667-0.0000  plane waves:    2483
 k-point  8 :   0.4286 0.1667 0.0000  plane waves:    2489
 k-point  9 :  -0.4286 0.1667 0.0000  plane waves:    2500
 k-point 10 :  -0.2857 0.1667 0.0000  plane waves:    2498
 k-point 11 :  -0.1429 0.1667 0.0000  plane waves:    2498
 k-point 12 :   0.0000 0.3333 0.0000  plane waves:    2500
 k-point 13 :   0.1429 0.3333-0.0000  plane waves:    2501
 k-point 14 :   0.2857 0.3333-0.0000  plane waves:    2494
 k-point 15 :   0.4286 0.3333 0.0000  plane waves:    2487
 k-point 16 :  -0.4286 0.3333 0.0000  plane waves:    2496
 k-point 17 :  -0.2857 0.3333 0.0000  plane waves:    2498
 k-point 18 :  -0.1429 0.3333 0.0000  plane waves:    2497
 k-point 19 :   0.0000 0.5000 0.0000  plane waves:    2500
 k-point 20 :   0.1429 0.5000-0.0000  plane waves:    2503
 k-point 21 :   0.2857 0.5000-0.0000  plane waves:    2510
 k-point 22 :   0.4286 0.5000 0.0000  plane waves:    2502
 k-point 23 :   0.0000 0.0000 0.1667  plane waves:    2488
 k-point 24 :   0.1429 0.0000 0.1667  plane waves:    2485
 k-point 25 :   0.2857 0.0000 0.1667  plane waves:    2490
 k-point 26 :   0.4286 0.0000 0.1667  plane waves:    2501
 k-point 27 :  -0.4286 0.0000 0.1667  plane waves:    2499
 k-point 28 :  -0.2857-0.0000 0.1667  plane waves:    2493
 k-point 29 :  -0.1429-0.0000 0.1667  plane waves:    2493
 k-point 30 :   0.0000 0.1667 0.1667  plane waves:    2492
 k-point 31 :   0.1429 0.1667 0.1667  plane waves:    2481
 k-point 32 :   0.2857 0.1667 0.1667  plane waves:    2482
 k-point 33 :   0.4286 0.1667 0.1667  plane waves:    2500
 k-point 34 :  -0.4286 0.1667 0.1667  plane waves:    2507
 k-point 35 :  -0.2857 0.1667 0.1667  plane waves:    2509
 k-point 36 :  -0.1429 0.1667 0.1667  plane waves:    2500
 k-point 37 :   0.0000 0.3333 0.1667  plane waves:    2500
 k-point 38 :   0.1429 0.3333 0.1667  plane waves:    2498
 k-point 39 :   0.2857 0.3333 0.1667  plane waves:    2484
 k-point 40 :   0.4286 0.3333 0.1667  plane waves:    2500
 k-point 41 :  -0.4286 0.3333 0.1667  plane waves:    2503
 k-point 42 :  -0.2857 0.3333 0.1667  plane waves:    2510
 k-point 43 :  -0.1429 0.3333 0.1667  plane waves:    2498
 k-point 44 :   0.0000 0.5000 0.1667  plane waves:    2494
 k-point 45 :   0.1429 0.5000 0.1667  plane waves:    2510
 k-point 46 :   0.2857 0.5000 0.1667  plane waves:    2501
 k-point 47 :   0.4286 0.5000 0.1667  plane waves:    2501
 k-point 48 :  -0.4286 0.5000 0.1667  plane waves:    2498
 k-point 49 :  -0.2857 0.5000 0.1667  plane waves:    2507
 k-point 50 :  -0.1429 0.5000 0.1667  plane waves:    2493
 k-point 51 :   0.1429-0.3333 0.1667  plane waves:    2502
 k-point 52 :   0.2857-0.3333 0.1667  plane waves:    2506
 k-point 53 :   0.4286-0.3333 0.1667  plane waves:    2492
 k-point 54 :  -0.4286-0.3333 0.1667  plane waves:    2496
 k-point 55 :  -0.2857-0.3333 0.1667  plane waves:    2500
 k-point 56 :  -0.1429-0.3333 0.1667  plane waves:    2492
 k-point 57 :   0.1429-0.1667 0.1667  plane waves:    2498
 k-point 58 :   0.2857-0.1667 0.1667  plane waves:    2500
 k-point 59 :   0.4286-0.1667 0.1667  plane waves:    2491
 k-point 60 :  -0.4286-0.1667 0.1667  plane waves:    2499
 k-point 61 :  -0.2857-0.1667 0.1667  plane waves:    2493
 k-point 62 :  -0.1429-0.1667 0.1667  plane waves:    2495
 k-point 63 :   0.0000 0.0000 0.3333  plane waves:    2487
 k-point 64 :   0.1429 0.0000 0.3333  plane waves:    2485
 k-point 65 :   0.2857 0.0000 0.3333  plane waves:    2497
 k-point 66 :   0.4286 0.0000 0.3333  plane waves:    2493
 k-point 67 :  -0.4286 0.0000 0.3333  plane waves:    2499
 k-point 68 :  -0.2857-0.0000 0.3333  plane waves:    2497
 k-point 69 :  -0.1429-0.0000 0.3333  plane waves:    2498
 k-point 70 :   0.0000 0.1667 0.3333  plane waves:    2493
 k-point 71 :   0.1429 0.1667 0.3333  plane waves:    2487
 k-point 72 :   0.2857 0.1667 0.3333  plane waves:    2495
 k-point 73 :   0.4286 0.1667 0.3333  plane waves:    2507
 k-point 74 :  -0.4286 0.1667 0.3333  plane waves:    2505
 k-point 75 :  -0.2857 0.1667 0.3333  plane waves:    2505
 k-point 76 :  -0.1429 0.1667 0.3333  plane waves:    2496
 k-point 77 :   0.0000 0.3333 0.3333  plane waves:    2500
 k-point 78 :   0.1429 0.3333 0.3333  plane waves:    2495
 k-point 79 :   0.2857 0.3333 0.3333  plane waves:    2491
 k-point 80 :   0.4286 0.3333 0.3333  plane waves:    2498
 k-point 81 :  -0.4286 0.3333 0.3333  plane waves:    2514
 k-point 82 :  -0.2857 0.3333 0.3333  plane waves:    2509
 k-point 83 :  -0.1429 0.3333 0.3333  plane waves:    2498
 k-point 84 :   0.0000 0.5000 0.3333  plane waves:    2505
 k-point 85 :   0.1429 0.5000 0.3333  plane waves:    2507
 k-point 86 :   0.2857 0.5000 0.3333  plane waves:    2510
 k-point 87 :   0.4286 0.5000 0.3333  plane waves:    2496
 k-point 88 :  -0.4286 0.5000 0.3333  plane waves:    2501
 k-point 89 :  -0.2857 0.5000 0.3333  plane waves:    2510
 k-point 90 :  -0.1429 0.5000 0.3333  plane waves:    2497
 k-point 91 :   0.1429-0.3333 0.3333  plane waves:    2505
 k-point 92 :   0.2857-0.3333 0.3333  plane waves:    2522
 k-point 93 :   0.4286-0.3333 0.3333  plane waves:    2519
 k-point 94 :  -0.4286-0.3333 0.3333  plane waves:    2515
 k-point 95 :  -0.2857-0.3333 0.3333  plane waves:    2505
 k-point 96 :  -0.1429-0.3333 0.3333  plane waves:    2499
 k-point 97 :   0.1429-0.1667 0.3333  plane waves:    2485
 k-point 98 :   0.2857-0.1667 0.3333  plane waves:    2505
 k-point 99 :   0.4286-0.1667 0.3333  plane waves:    2509
 k-point ** :  -0.4286-0.1667 0.3333  plane waves:    2524
 k-point ** :  -0.2857-0.1667 0.3333  plane waves:    2498
 k-point ** :  -0.1429-0.1667 0.3333  plane waves:    2495
 k-point ** :   0.0000 0.0000 0.5000  plane waves:    2476
 k-point ** :   0.1429 0.0000 0.5000  plane waves:    2495
 k-point ** :   0.2857 0.0000 0.5000  plane waves:    2501
 k-point ** :   0.4286 0.0000 0.5000  plane waves:    2505
 k-point ** :   0.0000 0.1667 0.5000  plane waves:    2492
 k-point ** :   0.1429 0.1667 0.5000  plane waves:    2494
 k-point ** :   0.2857 0.1667 0.5000  plane waves:    2501
 k-point ** :   0.4286 0.1667 0.5000  plane waves:    2501
 k-point ** :  -0.4286 0.1667 0.5000  plane waves:    2513
 k-point ** :  -0.2857 0.1667 0.5000  plane waves:    2503
 k-point ** :  -0.1429 0.1667 0.5000  plane waves:    2487
 k-point ** :   0.0000 0.3333 0.5000  plane waves:    2498
 k-point ** :   0.1429 0.3333 0.5000  plane waves:    2496
 k-point ** :   0.2857 0.3333 0.5000  plane waves:    2500
 k-point ** :   0.4286 0.3333 0.5000  plane waves:    2501
 k-point ** :  -0.4286 0.3333 0.5000  plane waves:    2513
 k-point ** :  -0.2857 0.3333 0.5000  plane waves:    2514
 k-point ** :  -0.1429 0.3333 0.5000  plane waves:    2512
 k-point ** :   0.0000 0.5000 0.5000  plane waves:    2504
 k-point ** :   0.1429 0.5000 0.5000  plane waves:    2508
 k-point ** :   0.2857 0.5000 0.5000  plane waves:    2510
 k-point ** :   0.4286 0.5000 0.5000  plane waves:    2503

 maximum and minimum number of plane-waves per node :      2524     2476

 maximum number of plane-waves:      2524
 maximum index in each direction: 
   IXMAX=    9   IYMAX=    9   IZMAX=    9
   IXMIN=   -9   IYMIN=   -9   IZMIN=   -9

 The following grids will avoid any aliasing or wrap around errors in the Hartre
 e energy
  - symmetry arguments have not been applied
  - exchange correlation energies might require even more grid points
  - we recommend to set PREC=Normal or Accurate and rely on VASP defaults
 WARNING: aliasing errors must be expected set NGX to    40 to avoid them
 WARNING: aliasing errors must be expected set NGY to    40 to avoid them
 WARNING: aliasing errors must be expected set NGZ to    40 to avoid them

 serial   3D FFT for wavefunctions
 parallel 3D FFT for charge:
    minimum data exchange during FFTs selected (reduces bandwidth)


 total amount of memory used by VASP MPI-rank0    74376. kBytes
=======================================================================

   base      :      30000. kBytes
   nonlr-proj:       5431. kBytes
   fftplans  :       1071. kBytes
   grid      :       6106. kBytes
   one-center:        342. kBytes
   wavefun   :      31426. kBytes
 
     INWAV:  cpu time    0.0000: real time    0.0000
 Broyden mixing: mesh for mixing (old mesh)
   NGX = 17   NGY = 17   NGZ = 19
  (NGX  = 72   NGY  = 72   NGZ  = 72)
  gives a total of   5491 points

 initial charge density was supplied:
 charge density of overlapping atoms calculated
 number of electron      72.0000000 magnetization       7.5000000
 keeping initial charge density in first step


--------------------------------------------------------------------------------------------------------


 Maximum index for non-local projection operator         6183
 Maximum index for augmentation-charges         1282 (set IRDMAX)


--------------------------------------------------------------------------------------------------------


 First call to EWALD:  gamma=   0.384
 Maximum number of real-space cells 3x 3x 3
 Maximum number of reciprocal cells 3x 3x 3

    FEWALD:  cpu time    0.0012: real time    0.0012


--------------------------------------- Iteration      1(   1)  ---------------------------------------


    POTLOK:  cpu time    0.0328: real time    0.7952
    SETDIJ:  cpu time    0.0058: real time    0.0058
     EDDAV:  cpu time    7.2959: real time    7.3278
    --------------------------------------------
      LOOP:  cpu time    7.3365: real time    8.1309

 eigenvalue-minimisations  : 23808
 total energy-change (2. order) : 0.6243346E+03  (-0.3436278E+04)
 number of electron      72.0000000 magnetization       7.5000000
 augmentation part       72.0000000 magnetization       7.5000000

 Free energy of the ion-electron system (eV)
  ---------------------------------------------------
  alpha Z        PSCENC =       224.79397398
  Ewald energy   TEWEN  =     -4352.70241620
  -Hartree energ DENC   =     -2004.69738626
  -exchange      EXHF   =         0.00000000
  -V(xc)+E(xc)   XCENC  =       293.38292848
  PAW double counting   =      5121.46913532    -5361.11212292
  entropy T*S    EENTRO =        -0.00228827
  eigenvalues    EBANDS =       486.10450556
  atomic energy  EATOM  =      6217.09824741
  Solvation  Ediel_sol  =         0.00000000
  ---------------------------------------------------
  free energy    TOTEN  =       624.33457710 eV

  energy without entropy =      624.33686536  energy(sigma->0) =      624.33572123


--------------------------------------------------------------------------------------------------------




--------------------------------------- Iteration      1(   2)  ---------------------------------------


     EDDAV:  cpu time    7.7480: real time    7.7720
    --------------------------------------------
      LOOP:  cpu time    7.7481: real time    7.7720

 eigenvalue-minimisations  : 25920
 total energy-change (2. order) :-0.6447460E+03  (-0.6071273E+03)
 number of electron      72.0000000 magnetization       7.5000000
 augmentation part       72.0000000 magnetization       7.5000000

 Free energy of the ion-electron system (eV)
  ---------------------------------------------------
  alpha Z        PSCENC =       224.79397398
  Ewald energy   TEWEN  =     -4352.70241620
  -Hartree energ DENC   =     -2004.69738626
  -exchange      EXHF   =         0.00000000
  -V(xc)+E(xc)   XCENC  =       293.38292848
  PAW double counting   =      5121.46913532    -5361.11212292
  entropy T*S    EENTRO =        -0.01455105
  eigenvalues    EBANDS =      -158.62925927
  atomic energy  EATOM  =      6217.09824741
  Solvation  Ediel_sol  =         0.00000000
  ---------------------------------------------------
  free energy    TOTEN  =       -20.41145052 eV

  energy without entropy =      -20.39689946  energy(sigma->0) =      -20.40417499


--------------------------------------------------------------------------------------------------------




--------------------------------------- Iteration      1(   3)  ---------------------------------------


     EDDAV:  cpu time    9.0579: real time    9.0793
    --------------------------------------------
      LOOP:  cpu time    9.0579: real time    9.0793

 eigenvalue-minimisations  : 30752
 total energy-change (2. order) :-0.6457756E+02  (-0.6289711E+02)
 number of electron      72.0000000 magnetization       7.5000000
 augmentation part       72.0000000 magnetization       7.5000000

 Free energy of the ion-electron system (eV)
  ---------------------------------------------------
  alpha Z        PSCENC =       224.79397398
  Ewald energy   TEWEN  =     -4352.70241620
  -Hartree energ DENC   =     -2004.69738626
  -exchange      EXHF   =         0.00000000
  -V(xc)+E(xc)   XCENC  =       293.38292848
  PAW double counting   =      5121.46913532    -5361.11212292
  entropy T*S    EENTRO =        -0.01095634
  eigenvalues    EBANDS =      -223.21041319
  atomic energy  EATOM  =      6217.09824741
  Solvation  Ediel_sol  =         0.00000000
  ---------------------------------------------------
  free energy    TOTEN  =       -84.98900973 eV

  energy without entropy =      -84.97805339  energy(sigma->0) =      -84.98353156


--------------------------------------------------------------------------------------------------------




--------------------------------------- Iteration      1(   4)  ---------------------------------------


     EDDAV:  cpu time   11.5193: real time   11.5465
    --------------------------------------------
      LOOP:  cpu time   11.5192: real time   11.5465

 eigenvalue-minimisations  : 40160
 total energy-change (2. order) :-0.3288950E+01  (-0.3283319E+01)
 number of electron      72.0000000 magnetization       7.5000000
 augmentation part       72.0000000 magnetization       7.5000000

 Free energy of the ion-electron system (eV)
  ---------------------------------------------------
  alpha Z        PSCENC =       224.79397398
  Ewald energy   TEWEN  =     -4352.70241620
  -Hartree energ DENC   =     -2004.69738626
  -exchange      EXHF   =         0.00000000
  -V(xc)+E(xc)   XCENC  =       293.38292848
  PAW double counting   =      5121.46913532    -5361.11212292
  entropy T*S    EENTRO =        -0.01097789
  eigenvalues    EBANDS =      -226.49934207
  atomic energy  EATOM  =      6217.09824741
  Solvation  Ediel_sol  =         0.00000000
  ---------------------------------------------------
  free energy    TOTEN  =       -88.27796016 eV

  energy without entropy =      -88.26698227  energy(sigma->0) =      -88.27247122


--------------------------------------------------------------------------------------------------------




--------------------------------------- Iteration      1(   5)  ---------------------------------------


     EDDAV:  cpu time    9.5758: real time    9.5985
    CHARGE:  cpu time    0.2975: real time    0.2982
    MIXING:  cpu time    0.0008: real time    0.0009
    --------------------------------------------
      LOOP:  cpu time    9.8720: real time    9.8955

 eigenvalue-minimisations  : 32816
 total energy-change (2. order) :-0.6242976E-01  (-0.6236284E-01)
 number of electron      71.9999994 magnetization       9.9274773
 augmentation part       21.5373198 magnetization       7.4565219

 Broyden mixing:
  rms(total) = 0.49964E+01    rms(broyden)= 0.49958E+01
  rms(prec ) = 0.84548E+01
  weight for this iteration     100.00

 Free energy of the ion-electron system (eV)
  ---------------------------------------------------
  alpha Z        PSCENC =       224.79397398
  Ewald energy   TEWEN  =     -4352.70241620
  -Hartree energ DENC   =     -2004.69738626
  -exchange      EXHF   =         0.00000000
  -V(xc)+E(xc)   XCENC  =       293.38292848
  PAW double counting   =      5121.46913532    -5361.11212292
  entropy T*S    EENTRO =        -0.01099542
  eigenvalues    EBANDS =      -226.56175430
  atomic energy  EATOM  =      6217.09824741
  Solvation  Ediel_sol  =         0.00000000
  ---------------------------------------------------
  free energy    TOTEN  =       -88.34038992 eV

  energy without entropy =      -88.32939450  energy(sigma->0) =      -88.33489221


--------------------------------------------------------------------------------------------------------




--------------------------------------- Iteration      1(   6)  ---------------------------------------


    POTLOK:  cpu time    0.0227: real time    0.0228
    SETDIJ:  cpu time    0.0077: real time    0.0077
     EDDAV:  cpu time    9.8455: real time    9.8689
    CHARGE:  cpu time    0.2807: real time    0.2814
    MIXING:  cpu time    0.0007: real time    0.0007
    --------------------------------------------
      LOOP:  cpu time   10.1573: real time   10.1815

 eigenvalue-minimisations  : 31520
 total energy-change (2. order) :-0.1239973E+01  (-0.2505481E+02)
 number of electron      71.9999996 magnetization       6.4862686
 augmentation part       27.4208521 magnetization       5.6437329

 Broyden mixing:
  rms(total) = 0.78614E+01    rms(broyden)= 0.78609E+01
  rms(prec ) = 0.10690E+02
  weight for this iteration     100.00

 eigenvalues of (default mixing * dielectric matrix)
  average eigenvalue GAMMA=   0.2759
  0.2759

 Free energy of the ion-electron system (eV)
  ---------------------------------------------------
  alpha Z        PSCENC =       224.79397398
  Ewald energy   TEWEN  =     -4352.70241620
  -Hartree energ DENC   =     -1911.16642117
  -exchange      EXHF   =         0.00000000
  -V(xc)+E(xc)   XCENC  =       297.70835881
  PAW double counting   =      5619.65793799    -5827.68697694
  entropy T*S    EENTRO =        -0.00826017
  eigenvalues    EBANDS =      -357.27480639
  atomic energy  EATOM  =      6217.09824741
  Solvation  Ediel_sol  =         0.00000000
  ---------------------------------------------------
  free energy    TOTEN  =       -89.58036268 eV

  energy without entropy =      -89.57210252  energy(sigma->0) =      -89.57623260


--------------------------------------------------------------------------------------------------------




--------------------------------------- Iteration      1(   7)  ---------------------------------------


    POTLOK:  cpu time    0.0199: real time    0.0199
    SETDIJ:  cpu time    0.0043: real time    0.0043
     EDDAV:  cpu time    8.6659: real time    8.6865
    CHARGE:  cpu time    0.2859: real time    0.2865
    MIXING:  cpu time    0.0009: real time    0.0009
    --------------------------------------------
      LOOP:  cpu time    8.9768: real time    8.9981

 eigenvalue-minimisations  : 28768
 total energy-change (2. order) : 0.2414699E+02  (-0.5983633E+01)
 number of electron      71.9999993 magnetization       2.5975250
 augmentation part       23.9572212 magnetization       2.2595784

 Broyden mixing:
  rms(total) = 0.20129E+01    rms(broyden)= 0.20119E+01
  rms(prec ) = 0.22650E+01
  weight for this iteration     100.00

 eigenvalues of (default mixing * dielectric matrix)
  average eigenvalue GAMMA=   0.5689
  0.5689  0.5689

 Free energy of the ion-electron system (eV)
  ---------------------------------------------------
  alpha Z        PSCENC =       224.79397398
  Ewald energy   TEWEN  =     -4352.70241620
  -Hartree energ DENC   =     -1961.83247790
  -exchange      EXHF   =         0.00000000
  -V(xc)+E(xc)   XCENC  =       293.50566893
  PAW double counting   =      5920.20593500    -6159.79798532
  entropy T*S    EENTRO =        -0.00364902
  eigenvalues    EBANDS =      -246.70066909
  atomic energy  EATOM  =      6217.09824741
  Solvation  Ediel_sol  =         0.00000000
  ---------------------------------------------------
  free energy    TOTEN  =       -65.43337220 eV

  energy without entropy =      -65.42972319  energy(sigma->0) =      -65.43154770


--------------------------------------------------------------------------------------------------------




--------------------------------------- Iteration      1(   8)  ---------------------------------------


    POTLOK:  cpu time    0.0267: real time    0.0268
    SETDIJ:  cpu time    0.0063: real time    0.0063
     EDDAV:  cpu time   12.3034: real time   12.3326
    CHARGE:  cpu time    0.3515: real time    0.3523
    MIXING:  cpu time    0.0009: real time    0.0009
    --------------------------------------------
      LOOP:  cpu time   12.6888: real time   12.7188

 eigenvalue-minimisations  : 39472
 total energy-change (2. order) :-0.1718821E+01  (-0.1291745E+01)
 number of electron      71.9999993 magnetization       1.9274613
 augmentation part       24.0304012 magnetization       1.2890245

 Broyden mixing:
  rms(total) = 0.17009E+01    rms(broyden)= 0.17006E+01
  rms(prec ) = 0.26773E+01
  weight for this iteration     100.00

 eigenvalues of (default mixing * dielectric matrix)
  average eigenvalue GAMMA=   0.6495
  0.7872  0.7872  0.3740

 Free energy of the ion-electron system (eV)
  ---------------------------------------------------
  alpha Z        PSCENC =       224.79397398
  Ewald energy   TEWEN  =     -4352.70241620
  -Hartree energ DENC   =     -1947.55846684
  -exchange      EXHF   =         0.00000000
  -V(xc)+E(xc)   XCENC  =       291.46003242
  PAW double counting   =      6166.93259097    -6410.19092396
  entropy T*S    EENTRO =        -0.00873494
  eigenvalues    EBANDS =      -256.97649652
  atomic energy  EATOM  =      6217.09824741
  Solvation  Ediel_sol  =         0.00000000
  ---------------------------------------------------
  free energy    TOTEN  =       -67.15219368 eV

  energy without entropy =      -67.14345875  energy(sigma->0) =      -67.14782622


--------------------------------------------------------------------------------------------------------




--------------------------------------- Iteration      1(   9)  ---------------------------------------


    POTLOK:  cpu time    0.0277: real time    0.0278
    SETDIJ:  cpu time    0.0065: real time    0.0065
     EDDAV:  cpu time   11.6232: real time   11.6508
    CHARGE:  cpu time    0.3135: real time    0.3142
    MIXING:  cpu time    0.0009: real time    0.0009
    --------------------------------------------
      LOOP:  cpu time   11.9719: real time   12.0002

 eigenvalue-minimisations  : 35264
 total energy-change (2. order) :-0.9099454E+00  (-0.2456309E+01)
 number of electron      71.9999995 magnetization       0.9692510
 augmentation part       23.8407526 magnetization       0.6894274

 Broyden mixing:
  rms(total) = 0.18919E+01    rms(broyden)= 0.18912E+01
  rms(prec ) = 0.33179E+01
  weight for this iteration     100.00

 eigenvalues of (default mixing * dielectric matrix)
  average eigenvalue GAMMA=   0.6295
  1.2069  0.7016  0.4170  0.1926

 Free energy of the ion-electron system (eV)
  ---------------------------------------------------
  alpha Z        PSCENC =       224.79397398
  Ewald energy   TEWEN  =     -4352.70241620
  -Hartree energ DENC   =     -1947.16051808
  -exchange      EXHF   =         0.00000000
  -V(xc)+E(xc)   XCENC  =       291.20101035
  PAW double counting   =      6287.01889111    -6532.53152740
  entropy T*S    EENTRO =        -0.01234074
  eigenvalues    EBANDS =      -255.76745950
  atomic energy  EATOM  =      6217.09824741
  Solvation  Ediel_sol  =         0.00000000
  ---------------------------------------------------
  free energy    TOTEN  =       -68.06213908 eV

  energy without entropy =      -68.04979834  energy(sigma->0) =      -68.05596871


--------------------------------------------------------------------------------------------------------




--------------------------------------- Iteration      1(  10)  ---------------------------------------


    POTLOK:  cpu time    0.0276: real time    0.0277
    SETDIJ:  cpu time    0.0066: real time    0.0067
     EDDAV:  cpu time   10.3918: real time   10.4164
    CHARGE:  cpu time    0.4623: real time    0.4634
    MIXING:  cpu time    0.0011: real time    0.0011
    --------------------------------------------
      LOOP:  cpu time   10.8895: real time   10.9153

 eigenvalue-minimisations  : 31120
 total energy-change (2. order) : 0.1505723E+01  (-0.3804975E+00)
 number of electron      71.9999993 magnetization       1.2074887
 augmentation part       23.9785484 magnetization       0.6597245

 Broyden mixing:
  rms(total) = 0.46560E+00    rms(broyden)= 0.46458E+00
  rms(prec ) = 0.62287E+00
  weight for this iteration     100.00

 eigenvalues of (default mixing * dielectric matrix)
  average eigenvalue GAMMA=   0.6708
  1.5526  0.5964  0.5964  0.4430  0.1656

 Free energy of the ion-electron system (eV)
  ---------------------------------------------------
  alpha Z        PSCENC =       224.79397398
  Ewald energy   TEWEN  =     -4352.70241620
  -Hartree energ DENC   =     -1944.92785506
  -exchange      EXHF   =         0.00000000
  -V(xc)+E(xc)   XCENC  =       290.94808138
  PAW double counting   =      6451.89804683    -6699.73944014
  entropy T*S    EENTRO =        -0.01085209
  eigenvalues    EBANDS =      -253.91420175
  atomic energy  EATOM  =      6217.09824741
  Solvation  Ediel_sol  =         0.00000000
  ---------------------------------------------------
  free energy    TOTEN  =       -66.55641566 eV

  energy without entropy =      -66.54556356  energy(sigma->0) =      -66.55098961


--------------------------------------------------------------------------------------------------------




--------------------------------------- Iteration      1(  11)  ---------------------------------------


    POTLOK:  cpu time    0.0279: real time    0.0280
    SETDIJ:  cpu time    0.0065: real time    0.0065
     EDDAV:  cpu time   11.0074: real time   11.0335
    CHARGE:  cpu time    0.3615: real time    0.3623
    MIXING:  cpu time    0.0010: real time    0.0010
    --------------------------------------------
      LOOP:  cpu time   11.4043: real time   11.4313

 eigenvalue-minimisations  : 35568
 total energy-change (2. order) :-0.9516344E-02  (-0.6918474E-01)
 number of electron      71.9999993 magnetization       1.6284572
 augmentation part       23.8580831 magnetization       0.9905185

 Broyden mixing:
  rms(total) = 0.35591E+00    rms(broyden)= 0.35577E+00
  rms(prec ) = 0.42087E+00
  weight for this iteration     100.00

 eigenvalues of (default mixing * dielectric matrix)
  average eigenvalue GAMMA=   0.6622
  1.5798  0.6417  0.6417  0.4722  0.4722  0.1655

 Free energy of the ion-electron system (eV)
  ---------------------------------------------------
  alpha Z        PSCENC =       224.79397398
  Ewald energy   TEWEN  =     -4352.70241620
  -Hartree energ DENC   =     -1947.32289253
  -exchange      EXHF   =         0.00000000
  -V(xc)+E(xc)   XCENC  =       291.04772199
  PAW double counting   =      6547.12939935    -6796.53024925
  entropy T*S    EENTRO =        -0.00580565
  eigenvalues    EBANDS =      -250.07391110
  atomic energy  EATOM  =      6217.09824741
  Solvation  Ediel_sol  =         0.00000000
  ---------------------------------------------------
  free energy    TOTEN  =       -66.56593200 eV

  energy without entropy =      -66.56012635  energy(sigma->0) =      -66.56302918


--------------------------------------------------------------------------------------------------------




--------------------------------------- Iteration      1(  12)  ---------------------------------------


    POTLOK:  cpu time    0.0275: real time    0.0276
    SETDIJ:  cpu time    0.0068: real time    0.0068
     EDDAV:  cpu time   12.7377: real time   12.7680
    CHARGE:  cpu time    0.3626: real time    0.3634
    MIXING:  cpu time    0.0010: real time    0.0010
    --------------------------------------------
      LOOP:  cpu time   13.1356: real time   13.1668

 eigenvalue-minimisations  : 39136
 total energy-change (2. order) :-0.2827891E-01  (-0.6729299E-02)
 number of electron      71.9999993 magnetization       2.0745132
 augmentation part       23.8835400 magnetization       1.4314753

 Broyden mixing:
  rms(total) = 0.16855E+00    rms(broyden)= 0.16851E+00
  rms(prec ) = 0.19859E+00
  weight for this iteration     100.00

 eigenvalues of (default mixing * dielectric matrix)
  average eigenvalue GAMMA=   0.8016
  1.9113  0.9500  0.9500  0.5800  0.5800  0.4742  0.1655

 Free energy of the ion-electron system (eV)
  ---------------------------------------------------
  alpha Z        PSCENC =       224.79397398
  Ewald energy   TEWEN  =     -4352.70241620
  -Hartree energ DENC   =     -1947.89989522
  -exchange      EXHF   =         0.00000000
  -V(xc)+E(xc)   XCENC  =       291.16839245
  PAW double counting   =      6598.12643775    -6847.93606017
  entropy T*S    EENTRO =        -0.00459480
  eigenvalues    EBANDS =      -249.23829612
  atomic energy  EATOM  =      6217.09824741
  Solvation  Ediel_sol  =         0.00000000
  ---------------------------------------------------
  free energy    TOTEN  =       -66.59421091 eV

  energy without entropy =      -66.58961612  energy(sigma->0) =      -66.59191351


--------------------------------------------------------------------------------------------------------




--------------------------------------- Iteration      1(  13)  ---------------------------------------


    POTLOK:  cpu time    0.0245: real time    0.0246
    SETDIJ:  cpu time    0.0045: real time    0.0045
     EDDAV:  cpu time   12.6898: real time   12.7198
    CHARGE:  cpu time    0.3964: real time    0.3974
    MIXING:  cpu time    0.0013: real time    0.0013
    --------------------------------------------
      LOOP:  cpu time   13.1166: real time   13.1476

 eigenvalue-minimisations  : 38848
 total energy-change (2. order) :-0.4522903E-02  (-0.3278470E-02)
 number of electron      71.9999993 magnetization       1.9838806
 augmentation part       23.8823727 magnetization       1.3731112

 Broyden mixing:
  rms(total) = 0.67267E-01    rms(broyden)= 0.67236E-01
  rms(prec ) = 0.75493E-01
  weight for this iteration     100.00

 eigenvalues of (default mixing * dielectric matrix)
  average eigenvalue GAMMA=   0.8654
  2.1492  0.9622  0.9622  0.8396  0.8396  0.5024  0.5024  0.1655

 Free energy of the ion-electron system (eV)
  ---------------------------------------------------
  alpha Z        PSCENC =       224.79397398
  Ewald energy   TEWEN  =     -4352.70241620
  -Hartree energ DENC   =     -1949.58925327
  -exchange      EXHF   =         0.00000000
  -V(xc)+E(xc)   XCENC  =       291.35240449
  PAW double counting   =      6683.56025495    -6934.18033672
  entropy T*S    EENTRO =        -0.00440725
  eigenvalues    EBANDS =      -246.92720121
  atomic energy  EATOM  =      6217.09824741
  Solvation  Ediel_sol  =         0.00000000
  ---------------------------------------------------
  free energy    TOTEN  =       -66.59873381 eV

  energy without entropy =      -66.59432656  energy(sigma->0) =      -66.59653019


--------------------------------------------------------------------------------------------------------




--------------------------------------- Iteration      1(  14)  ---------------------------------------


    POTLOK:  cpu time    0.0255: real time    0.0256
    SETDIJ:  cpu time    0.0050: real time    0.0050
     EDDAV:  cpu time   12.0246: real time   12.0531
    CHARGE:  cpu time    0.3713: real time    0.3722
    MIXING:  cpu time    0.0010: real time    0.0010
    --------------------------------------------
      LOOP:  cpu time   12.4275: real time   12.4570

 eigenvalue-minimisations  : 36704
 total energy-change (2. order) :-0.3279155E-02  (-0.8581458E-03)
 number of electron      71.9999993 magnetization       2.0214571
 augmentation part       23.8820802 magnetization       1.4049722

 Broyden mixing:
  rms(total) = 0.29480E-01    rms(broyden)= 0.29468E-01
  rms(prec ) = 0.42515E-01
  weight for this iteration     100.00

 eigenvalues of (default mixing * dielectric matrix)
  average eigenvalue GAMMA=   0.8900
  2.2958  1.0448  1.0448  0.9179  0.9179  0.5173  0.5173  0.5883  0.1655

 Free energy of the ion-electron system (eV)
  ---------------------------------------------------
  alpha Z        PSCENC =       224.79397398
  Ewald energy   TEWEN  =     -4352.70241620
  -Hartree energ DENC   =     -1949.68037789
  -exchange      EXHF   =         0.00000000
  -V(xc)+E(xc)   XCENC  =       291.32652472
  PAW double counting   =      6710.53850197    -6961.29692728
  entropy T*S    EENTRO =        -0.00447057
  eigenvalues    EBANDS =      -246.67506910
  atomic energy  EATOM  =      6217.09824741
  Solvation  Ediel_sol  =         0.00000000
  ---------------------------------------------------
  free energy    TOTEN  =       -66.60201297 eV

  energy without entropy =      -66.59754239  energy(sigma->0) =      -66.59977768


--------------------------------------------------------------------------------------------------------




--------------------------------------- Iteration      1(  15)  ---------------------------------------


    POTLOK:  cpu time    0.0266: real time    0.0266
    SETDIJ:  cpu time    0.0065: real time    0.0065
     EDDAV:  cpu time   12.0549: real time   12.0835
    CHARGE:  cpu time    0.3657: real time    0.3665
    MIXING:  cpu time    0.0013: real time    0.0013
    --------------------------------------------
      LOOP:  cpu time   12.4550: real time   12.4845

 eigenvalue-minimisations  : 36912
 total energy-change (2. order) :-0.4943385E-04  (-0.1198823E-03)
 number of electron      71.9999993 magnetization       1.9996744
 augmentation part       23.8849282 magnetization       1.3881534

 Broyden mixing:
  rms(total) = 0.14416E-01    rms(broyden)= 0.14411E-01
  rms(prec ) = 0.15948E-01
  weight for this iteration     100.00

 eigenvalues of (default mixing * dielectric matrix)
  average eigenvalue GAMMA=   0.9261
  2.4177  1.3100  0.9550  0.9550  1.0452  0.1655  0.5095  0.5095  0.6984  0.6949

 Free energy of the ion-electron system (eV)
  ---------------------------------------------------
  alpha Z        PSCENC =       224.79397398
  Ewald energy   TEWEN  =     -4352.70241620
  -Hartree energ DENC   =     -1949.78283795
  -exchange      EXHF   =         0.00000000
[...]
     20       0.5542      1.00000
     21       1.2778      1.00000
     22       1.3708      1.00000
     23       1.4105      1.00000
     24       2.0240      1.00000
     25       2.3475      1.00000
     26       2.4560      1.00000
     27       3.0164      1.00000
     28       3.0903      1.00000
     29       3.1319      1.00000
     30       3.3103      1.00000
     31       3.5660      1.00000
     32       3.5920      1.00000
     33       3.8044      1.00000
     34       3.8588      1.00000
     35       3.9789      1.00000
     36       5.3899      0.00000
     37       5.5484      0.00000
     38       5.6205      0.00000
     39       6.1816      0.00000
     40       6.2374      0.00000
     41       6.2946      0.00000
     42      12.9312      0.00000
     43      13.8348      0.00000
     44      14.3273      0.00000
     45      15.2221      0.00000
     46      15.6455      0.00000
     47      15.9275      0.00000
     48      17.1532      0.00000

 k-point   120 :      -0.1429    0.3333    0.5000
  band No.  band energies     occupation 
      1     -38.7274      1.00000
      2     -38.7153      1.00000
      3     -14.3671      1.00000
      4     -13.8632      1.00000
      5     -13.5784      1.00000
      6     -13.2088      1.00000
      7     -13.0490      1.00000
      8     -12.9925      1.00000
      9      -2.1458      1.00000
     10      -1.6312      1.00000
     11      -1.3879      1.00000
     12      -1.1943      1.00000
     13      -0.8387      1.00000
     14      -0.6270      1.00000
     15      -0.4316      1.00000
     16      -0.2940      1.00000
     17       0.0139      1.00000
     18       0.0569      1.00000
     19       0.4666      1.00000
     20       0.5787      1.00000
     21       0.9046      1.00000
     22       1.2832      1.00000
     23       1.4743      1.00000
     24       1.7424      1.00000
     25       2.3629      1.00000
     26       2.5988      1.00000
     27       3.0189      1.00000
     28       3.0725      1.00000
     29       3.1913      1.00000
     30       3.2079      1.00000
     31       3.6132      1.00000
     32       3.6881      1.00000
     33       3.7684      1.00000
     34       3.8642      1.00000
     35       4.1217      1.00000
     36       5.3995      0.00000
     37       5.5650      0.00000
     38       5.6197      0.00000
     39       5.9923      0.00000
     40       6.1607      0.00000
     41       6.1998      0.00000
     42      13.2241      0.00000
     43      14.2458      0.00000
     44      14.6042      0.00000
     45      14.7924      0.00000
     46      15.8996      0.00000
     47      16.0488      0.00000
     48      16.9301      0.00000

 k-point   121 :       0.0000    0.5000    0.5000
  band No.  band energies     occupation 
      1     -38.7272      1.00000
      2     -38.7154      1.00000
      3     -14.1909      1.00000
      4     -14.1163      1.00000
      5     -13.4926      1.00000
      6     -13.1783      1.00000
      7     -13.0557      1.00000
      8     -13.0334      1.00000
      9      -2.3300      1.00000
     10      -1.4776      1.00000
     11      -1.4197      1.00000
     12      -0.8862      1.00000
     13      -0.7661      1.00000
     14      -0.6438      1.00000
     15      -0.3278      1.00000
     16      -0.1875      1.00000
     17      -0.1544      1.00000
     18      -0.1178      1.00000
     19       0.4523      1.00000
     20       0.4886      1.00000
     21       0.7066      1.00000
     22       1.2979      1.00000
     23       1.5485      1.00000
     24       1.6734      1.00000
     25       2.6046      1.00000
     26       2.6141      1.00000
     27       2.9180      1.00000
     28       3.0557      1.00000
     29       3.1220      1.00000
     30       3.1821      1.00000
     31       3.7003      1.00000
     32       3.8032      1.00000
     33       3.8089      1.00000
     34       3.8820      1.00000
     35       4.0768      1.00000
     36       5.3007      0.00001
     37       5.6222      0.00000
     38       5.6375      0.00000
     39       5.8295      0.00000
     40       6.0137      0.00000
     41       6.2580      0.00000
     42      13.4462      0.00000
     43      14.7028      0.00000
     44      14.7438      0.00000
     45      15.0879      0.00000
     46      15.2418      0.00000
     47      15.9072      0.00000
     48      16.7951      0.00000

 k-point   122 :       0.1429    0.5000    0.5000
  band No.  band energies     occupation 
      1     -38.7269      1.00000
      2     -38.7157      1.00000
      3     -14.3076      1.00000
      4     -13.9226      1.00000
      5     -13.5822      1.00000
      6     -13.2105      1.00000
      7     -13.0475      1.00000
      8     -12.9946      1.00000
      9      -2.1637      1.00000
     10      -1.5963      1.00000
     11      -1.4203      1.00000
     12      -1.1405      1.00000
     13      -0.8286      1.00000
     14      -0.6497      1.00000
     15      -0.4167      1.00000
     16      -0.2895      1.00000
     17      -0.0040      1.00000
     18       0.0181      1.00000
     19       0.4527      1.00000
     20       0.5528      1.00000
     21       0.9178      1.00000
     22       1.3605      1.00000
     23       1.4363      1.00000
     24       1.7480      1.00000
     25       2.4139      1.00000
     26       2.6007      1.00000
     27       2.9942      1.00000
     28       3.0698      1.00000
     29       3.1903      1.00000
     30       3.2026      1.00000
     31       3.6512      1.00000
     32       3.6869      1.00000
     33       3.7711      1.00000
     34       3.8633      1.00000
     35       4.0874      1.00000
     36       5.3867      0.00000
     37       5.5611      0.00000
     38       5.5949      0.00000
     39       6.0045      0.00000
     40       6.1464      0.00000
     41       6.2198      0.00000
     42      13.2368      0.00000
     43      14.2748      0.00000
     44      14.7119      0.00000
     45      14.7873      0.00000
     46      15.7936      0.00000
     47      15.9685      0.00000
     48      16.9153      0.00000

 k-point   123 :       0.2857    0.5000    0.5000
  band No.  band energies     occupation 
      1     -38.7261      1.00000
      2     -38.7166      1.00000
      3     -14.3438      1.00000
      4     -13.8221      1.00000
      5     -13.6491      1.00000
      6     -13.2482      1.00000
      7     -13.0253      1.00000
      8     -12.9687      1.00000
      9      -2.0791      1.00000
     10      -1.7382      1.00000
     11      -1.3601      1.00000
     12      -1.2382      1.00000
     13      -0.9630      1.00000
     14      -0.7253      1.00000
     15      -0.4414      1.00000
     16      -0.3020      1.00000
     17       0.0538      1.00000
     18       0.1352      1.00000
     19       0.4855      1.00000
     20       0.6750      1.00000
     21       1.0285      1.00000
     22       1.1680      1.00000
     23       1.4925      1.00000
     24       1.9586      1.00000
     25       2.1396      1.00000
     26       2.6128      1.00000
     27       3.0642      1.00000
     28       3.1062      1.00000
     29       3.1416      1.00000
     30       3.2888      1.00000
     31       3.5089      1.00000
     32       3.6411      1.00000
     33       3.7410      1.00000
     34       3.9423      1.00000
     35       4.0777      1.00000
     36       5.4349      0.00000
     37       5.4713      0.00000
     38       5.8102      0.00000
     39       6.1101      0.00000
     40       6.1676      0.00000
     41       6.2594      0.00000
     42      12.9485      0.00000
     43      13.7392      0.00000
     44      14.3870      0.00000
     45      14.8272      0.00000
     46      15.9655      0.00000
     47      16.1241      0.00000
     48      17.2296      0.00000

 k-point   124 :       0.4286    0.5000    0.5000
  band No.  band energies     occupation 
      1     -38.7253      1.00000
      2     -38.7174      1.00000
      3     -14.2665      1.00000
      4     -14.0482      1.00000
      5     -13.4431      1.00000
      6     -13.3080      1.00000
      7     -13.0042      1.00000
      8     -12.9786      1.00000
      9      -2.4025      1.00000
     10      -1.5286      1.00000
     11      -1.2974      1.00000
     12      -1.2044      1.00000
     13      -0.8780      1.00000
     14      -0.7778      1.00000
     15      -0.4058      1.00000
     16      -0.2541      1.00000
     17       0.0739      1.00000
     18       0.1642      1.00000
     19       0.3935      1.00000
     20       0.7287      1.00000
     21       0.9049      1.00000
     22       1.0569      1.00000
     23       1.3910      1.00000
     24       1.8661      1.00000
     25       2.3841      1.00000
     26       2.6531      1.00000
     27       2.9644      1.00000
     28       3.0590      1.00000
     29       3.1298      1.00000
     30       3.3008      1.00000
     31       3.6406      1.00000
     32       3.6891      1.00000
     33       3.7986      1.00000
     34       3.9602      1.00000
     35       4.0641      1.00000
     36       5.4295      0.00000
     37       5.5394      0.00000
     38       5.8998      0.00000
     39       5.9713      0.00000
     40       6.1358      0.00000
     41       6.3522      0.00000
     42      12.8591      0.00000
     43      13.4321      0.00000
     44      14.1052      0.00000
     45      15.1008      0.00000
     46      15.7148      0.00000
     47      16.2021      0.00000
     48      17.3803      0.00000


--------------------------------------------------------------------------------------------------------


 soft charge-density along one line, spin component           1
         0         1         2         3         4         5         6         7         8         9
 total charge-density along one line
 
 soft charge-density along one line, spin component           2
         0         1         2         3         4         5         6         7         8         9
 total charge-density along one line
 
 pseudopotential strength for first ion, spin component:           1
-36.793   3.902   0.001  -0.000  -0.000
  3.902 -10.418   0.006  -0.000  -0.000
  0.001   0.006   0.083   0.000   0.000
 -0.000  -0.000   0.000   0.083  -0.000
 -0.000  -0.000   0.000  -0.000   0.083
 pseudopotential strength for first ion, spin component:           2
-36.786   3.908   0.001  -0.000  -0.000
  3.908 -10.423   0.006  -0.000  -0.000
  0.001   0.006   0.091   0.000   0.000
 -0.000  -0.000   0.000   0.091  -0.000
 -0.000  -0.000   0.000  -0.000   0.091
 total augmentation occupancy for first ion, spin component:           1
  2.003   0.027  -0.004   0.000   0.000
  0.027   0.642   0.012   0.000  -0.000
 -0.004   0.012   0.023   0.000  -0.000
  0.000   0.000   0.000   0.028   0.000
  0.000  -0.000  -0.000   0.000   0.024
 total augmentation occupancy for first ion, spin component:           2
 -0.000  -0.000   0.000   0.000  -0.000
 -0.000   0.036   0.002   0.000  -0.000
  0.000   0.002   0.001   0.000  -0.000
  0.000   0.000   0.000   0.003  -0.000
 -0.000  -0.000  -0.000  -0.000   0.002


------------------------ aborting loop because EDIFF is reached ----------------------------------------


    CHARGE:  cpu time    0.3613: real time    0.3622
    FORLOC:  cpu time    0.0026: real time    0.0026
    FORNL :  cpu time    2.7754: real time    2.7820
    STRESS:  cpu time    8.5788: real time    8.5991
    FORCOR:  cpu time    0.0252: real time    0.0253
    FORHAR:  cpu time    0.0046: real time    0.0046
    MIXING:  cpu time    0.0011: real time    0.0011
    OFIELD:  cpu time    0.0000: real time    0.0000

  FORCE on cell =-STRESS in cart. coord.  units (eV):
  Direction    XX          YY          ZZ          XY          YZ          ZX
  --------------------------------------------------------------------------------------
  Alpha Z   224.79397   224.79397   224.79397
  Ewald    -787.40974  -816.55897 -2748.73471     0.00001     0.00002    -0.49191
  Hartree  1146.38706  1127.88747  -324.27702    -0.00000     0.00001     0.34561
  E(xc)    -365.36531  -365.36403  -365.59916     0.00002     0.00000     0.00123
  Local   -1718.06612 -1671.99086  1684.38481     0.00014    -0.00002    -0.52627
  n-local  -180.96178  -181.42255  -187.68793    -0.03664     0.08380    -0.29129
  augment   597.50031   598.47811   606.67491    -0.00004     0.00001     0.42586
  Kinetic  1083.20486  1084.20322  1110.56839    -0.00495    -0.34586     0.52527
  Fock        0.00000     0.00000     0.00000     0.00000     0.00000     0.00000
  -------------------------------------------------------------------------------------
  Total        0.0832493      0.0263678      0.1232628     -0.0000000      0.0000000     -0.0115051
  in kB        1.3551320      0.4292153      2.0064729     -0.0000000      0.0000000     -0.1872803
  external PRESSURE =       1.2636068 kB  Pullay stress =       0.0000000 kB


 VOLUME and BASIS-vectors are now :
 -----------------------------------------------------------------------------
  energy-cutoff  :      500.00
  volume of cell :       98.43
      direct lattice vectors                 reciprocal lattice vectors
     4.887742120  0.000000000  0.000000000     0.204593445 -0.117373415  0.070556282
     2.443871020  4.259908350  0.000000000     0.000000000  0.234746834  0.000000000
    -1.630214500  0.000000000  4.727165200     0.000000000  0.000000000  0.211543273

  length of vectors
     4.887742120  4.911142913  5.000369001     0.246197452  0.234746834  0.211543273


 FORCES acting on ions
    electron-ion (+dipol)            ewald-force                    non-local-force                 convergence-correction
 -----------------------------------------------------------------------------------------------
   0.141E-05 0.790E+01 -.655E-06   -.147E-05 -.734E+01 -.147E-05   0.514E-08 -.548E+00 0.000E+00   -.253E-06 0.128E-02 -.437E-08
   0.834E-05 -.790E+01 0.111E-05   0.175E-06 0.734E+01 0.254E-05   -.514E-08 0.548E+00 0.000E+00   0.257E-06 -.128E-02 0.248E-08
   -.146E-04 0.511E+02 -.324E-05   0.190E-04 -.506E+02 0.223E-05   0.432E-08 -.460E+00 0.000E+00   -.555E-07 0.657E-02 -.164E-06
   0.296E-05 -.511E+02 0.805E-06   -.974E-05 0.506E+02 0.911E-05   -.432E-08 0.460E+00 0.000E+00   0.601E-07 -.657E-02 0.152E-06
   0.118E-04 0.869E-06 -.202E-05   -.735E-05 -.174E-04 -.757E-05   -.529E-22 0.000E+00 0.000E+00   -.470E-08 0.304E-07 0.119E-07
   0.145E+02 0.438E+02 0.305E+03   -.156E+02 -.475E+02 -.320E+03   0.111E+01 0.372E+01 0.151E+02   -.531E-03 -.956E-04 -.226E-02
   0.145E+02 -.438E+02 0.305E+03   -.156E+02 0.475E+02 -.320E+03   0.111E+01 -.372E+01 0.151E+02   -.531E-03 0.956E-04 -.226E-02
   -.314E+02 -.131E-04 0.303E+03   0.342E+02 -.156E-04 -.321E+03   -.285E+01 0.000E+00 0.181E+02   0.671E-03 0.708E-07 -.331E-02
   -.145E+02 0.438E+02 -.305E+03   0.156E+02 -.475E+02 0.320E+03   -.111E+01 0.372E+01 -.151E+02   0.531E-03 -.956E-04 0.226E-02
   -.145E+02 -.438E+02 -.305E+03   0.156E+02 0.475E+02 0.320E+03   -.111E+01 -.372E+01 -.151E+02   0.531E-03 0.956E-04 0.226E-02
   0.314E+02 -.206E-04 -.303E+03   -.342E+02 -.347E-05 0.321E+03   0.285E+01 0.000E+00 -.181E+02   -.671E-03 -.326E-07 0.331E-02
 -----------------------------------------------------------------------------------------------
   0.935E-05 -.491E-04 -.405E-06   0.000E+00 -.142E-13 -.568E-13   0.888E-15 0.888E-15 -.355E-14   0.688E-08 -.134E-07 -.272E-08
 
 
 POSITION                                       TOTAL-FORCE (eV/Angst)
 -----------------------------------------------------------------------------------
      4.88774      0.01549      0.00000        -0.000000      0.009991      0.000000
      2.44387      1.40448      0.00000         0.000000     -0.009991      0.000000
      4.07263      4.23920      2.36358        -0.000000      0.009731      0.000000
      4.07263      1.44068      2.36358         0.000000     -0.009731      0.000000
      1.62876      2.83994      2.36358         0.000000      0.000000      0.000000
      3.28241      0.08679      1.35656         0.006357      0.003005     -0.003858
      0.83854      1.33318      1.35656         0.006357     -0.003005     -0.003858
      3.20957      2.83994      1.39700        -0.001511      0.000000     -0.007389
     -0.02488      0.08679      3.37060        -0.006357      0.003005      0.003858
      2.41899      1.33318      3.37060        -0.006357     -0.003005      0.003858
      4.93570      2.83994      3.33016         0.001511      0.000000      0.007389
 -----------------------------------------------------------------------------------
    total drift:                                0.000009     -0.000049     -0.000000


--------------------------------------------------------------------------------------------------------



  FREE ENERGIE OF THE ION-ELECTRON SYSTEM (eV)
  ---------------------------------------------------
  free  energy   TOTEN  =       -66.6022357121 eV

  energy  without entropy=      -66.5978216027  energy(sigma->0) =      -66.60002866
 


--------------------------------------------------------------------------------------------------------


    POTLOK:  cpu time    0.0326: real time    0.0327


--------------------------------------------------------------------------------------------------------


     LOOP+:  cpu time  215.7300: real time  217.3879
    4ORBIT:  cpu time    0.0000: real time    0.0000

volume of typ            1:    15.8 %

volume of typ            2:    19.4 %

volume of typ            3:     9.9 %
 
total charge     
 
# of ion       s       p       d       tot
------------------------------------------
    1        2.079   0.254   0.097   2.430
    2        2.079   0.254   0.097   2.430
    3        0.281   0.375   7.839   8.494
    4        0.281   0.375   7.839   8.494
    5        0.266   0.344   7.853   8.464
    6        1.266   2.772   0.006   4.044
    7        1.266   2.773   0.006   4.044
    8        1.261   2.785   0.007   4.053
    9        1.266   2.773   0.006   4.044
   10        1.266   2.772   0.006   4.044
   11        1.261   2.785   0.007   4.053
--------------------------------------------------
tot          12.57   18.26   23.76   54.59
 
magnetization (x)
 
# of ion       s       p       d       tot
------------------------------------------
    1        0.005   0.012   0.001   0.019
    2        0.005   0.012   0.001   0.019
    3       -0.001  -0.000   0.355   0.355
    4       -0.001  -0.000   0.355   0.355
    5       -0.000  -0.000   0.709   0.708
    6        0.011   0.089   0.000   0.100
    7        0.010   0.090   0.000   0.100
    8        0.004  -0.000   0.000   0.004
    9        0.010   0.090   0.000   0.100
   10        0.011   0.089   0.000   0.100
   11        0.004  -0.000   0.000   0.004
--------------------------------------------------
tot           0.06    0.38    1.42    1.86
 

 total amount of memory used by VASP MPI-rank0    74376. kBytes
=======================================================================

   base      :      30000. kBytes
   nonlr-proj:       5431. kBytes
   fftplans  :       1071. kBytes
   grid      :       6106. kBytes
   one-center:        342. kBytes
   wavefun   :      31426. kBytes
 
  
  
 General timing and accounting informations for this job:
 ========================================================
  
                  Total CPU time used (sec):      221.309
                            User time (sec):      219.792
                          System time (sec):        1.516
                         Elapsed time (sec):      225.974
  
                   Maximum memory used (kb):      112648.
                   Average memory used (kb):           0.
  
                          Minor page faults:        30592
                          Major page faults:           49
                 Voluntary context switches:         1208
