 vasp.5.4.4.18Apr17-6-g9f103f2a35 (build May 12 2020 04:58:55) complex          
  
 MD_VERSION_INFO: Compiled 2020-05-12T11:58:55-UTC in devlin.sd.materialsdesign.
 com:/home/medea2/data/build/wwolf/vasp-gpu5.4.4/13047/x86_64/src/src/build/std 
 from svn 13047
 
 This VASP executable licensed from Materials Design, Inc.
 
 executed on                        Lin64 date 2023.03.16  11:58:56
 running on   16 total cores
 distrk:  each k-point on   16 cores,    1 groups
 distr:  one band on NCORES_PER_BAND=   1 cores,   16 groups


--------------------------------------------------------------------------------------------------------


 INCAR:
 POTCAR:    PAW_PBE Li_sv 10Sep2004               
 POTCAR:    PAW_PBE Ni 02Aug2007                  
 POTCAR:    PAW_PBE O 08Apr2002                   

 ----------------------------------------------------------------------------- 
|                                                                             |
|           W    W    AA    RRRRR   N    N  II  N    N   GGGG   !!!           |
|           W    W   A  A   R    R  NN   N  II  NN   N  G    G  !!!           |
|           W    W  A    A  R    R  N N  N  II  N N  N  G       !!!           |
|           W WW W  AAAAAA  RRRRR   N  N N  II  N  N N  G  GGG   !            |
|           WW  WW  A    A  R   R   N   NN  II  N   NN  G    G                |
|           W    W  A    A  R    R  N    N  II  N    N   GGGG   !!!           |
|                                                                             |
|      For optimal performance we recommend to set                            |
|        NCORE= 4 - approx SQRT( number of cores)                             |
|      NCORE specifies how many cores store one orbital (NPAR=cpu/NCORE).     |
|      This setting can  greatly improve the performance of VASP for DFT.     |
|      The default,   NCORE=1            might be grossly inefficient         |
|      on modern multi-core architectures or massively parallel machines.     |
|      Do your own testing !!!!                                               |
|      Unfortunately you need to use the default for GW and RPA calculations. |
|      (for HF NCORE is supported but not extensively tested yet)             |
|                                                                             |
 ----------------------------------------------------------------------------- 

 POTCAR:    PAW_PBE Li_sv 10Sep2004               
  local pseudopotential read in
  atomic valenz-charges read in
  non local Contribution for L=           0  read in
    real space projection operators read in
  non local Contribution for L=           0  read in
    real space projection operators read in
  non local Contribution for L=           1  read in
    real space projection operators read in
    PAW grid and wavefunctions read in
 
   number of l-projection  operators is LMAX  =           3
   number of lm-projection operators is LMMAX =           5
 
 POTCAR:    PAW_PBE Ni 02Aug2007                  
  local pseudopotential read in
  partial core-charges read in
  partial kinetic energy density read in
  atomic valenz-charges read in
  non local Contribution for L=           2  read in
    real space projection operators read in
  non local Contribution for L=           2  read in
    real space projection operators read in
  non local Contribution for L=           0  read in
    real space projection operators read in
  non local Contribution for L=           0  read in
    real space projection operators read in
  non local Contribution for L=           1  read in
    real space projection operators read in
  non local Contribution for L=           1  read in
    real space projection operators read in
    PAW grid and wavefunctions read in
 
   number of l-projection  operators is LMAX  =           6
   number of lm-projection operators is LMMAX =          18
 
 POTCAR:    PAW_PBE O 08Apr2002                   
  local pseudopotential read in
  partial core-charges read in
  partial kinetic energy density read in
  kinetic energy density of atom read in
  atomic valenz-charges read in
  non local Contribution for L=           0  read in
    real space projection operators read in
  non local Contribution for L=           0  read in
    real space projection operators read in
  non local Contribution for L=           1  read in
    real space projection operators read in
  non local Contribution for L=           1  read in
    real space projection operators read in
    PAW grid and wavefunctions read in
 
   number of l-projection  operators is LMAX  =           4
   number of lm-projection operators is LMMAX =           8
 
 Optimization of the real space projectors (new method)

 maximal supplied QI-value         = 22.11
 optimisation between [QCUT,QGAM] = [ 11.28, 22.77] = [ 35.61,145.23] Ry 
 Optimized for a Real-space Cutoff    1.10 Angstroem

   l    n(q)    QCUT    max X(q) W(low)/X(q) W(high)/X(q)  e(spline) 
   0      7    11.276    10.506    0.54E-04    0.58E-04    0.16E-07
   0      7    11.276     8.367    0.11E-03    0.14E-03    0.35E-07
   1      7    11.276     8.983    0.23E-03    0.43E-03    0.86E-07
 Optimization of the real space projectors (new method)

 maximal supplied QI-value         = 16.25
 optimisation between [QCUT,QGAM] = [ 11.38, 22.75] = [ 36.24,144.96] Ry 
 Optimized for a Real-space Cutoff    1.47 Angstroem

   l    n(q)    QCUT    max X(q) W(low)/X(q) W(high)/X(q)  e(spline) 
   2      9    11.376    60.317    0.17E-03    0.16E-04    0.16E-06
   2      9    11.376    55.921    0.17E-03    0.16E-04    0.17E-06
   0     10    11.376    51.690    0.45E-04    0.60E-04    0.21E-06
   0     10    11.376    30.015    0.37E-04    0.55E-04    0.19E-06
   1     10    11.376    18.849    0.83E-04    0.11E-03    0.92E-07
   1     10    11.376    14.624    0.69E-04    0.92E-04    0.82E-07
 Optimization of the real space projectors (new method)

 maximal supplied QI-value         = 24.76
 optimisation between [QCUT,QGAM] = [ 11.39, 22.77] = [ 36.31,145.25] Ry 
 Optimized for a Real-space Cutoff    1.10 Angstroem

   l    n(q)    QCUT    max X(q) W(low)/X(q) W(high)/X(q)  e(spline) 
   0      7    11.387    20.381    0.22E-03    0.48E-03    0.18E-06
   0      7    11.387    15.268    0.22E-03    0.52E-03    0.19E-06
   1      7    11.387     5.964    0.22E-03    0.73E-03    0.24E-06
   1      7    11.387     5.382    0.19E-03    0.60E-03    0.21E-06

 ----------------------------------------------------------------------------- 
|                                                                             |
|  ADVICE TO THIS USER RUNNING 'VASP/VAMP'   (HEAR YOUR MASTER'S VOICE ...):  |
|                                                                             |
|      You enforced a specific xc-type in the INCAR file,                     |
|      a different type was found on the POTCAR file                          |
|          I HOPE YOU KNOW, WHAT YOU ARE  DOING                               |
|                                                                             |
 ----------------------------------------------------------------------------- 

  PAW_PBE Li_sv 10Sep2004               :
 energy of atom  1       EATOM= -202.7858
 kinetic energy error for atom=    0.0143 (will be added to EATOM!!)
  PAW_PBE Ni 02Aug2007                  :
 energy of atom  2       EATOM=-1077.6739
 kinetic energy error for atom=    0.0030 (will be added to EATOM!!)
  PAW_PBE O 08Apr2002                   :
 energy of atom  3       EATOM= -432.3788
 kinetic energy error for atom=    0.0224 (will be added to EATOM!!)
 
 
 POSCAR: ce33                                    
  positions in direct lattice
  No initial velocities read in
 exchange correlation table for  LEXCH =       14
   RHO(1)=    0.500       N(1)  =     2000
   RHO(2)=  100.500       N(2)  =     4000
 


--------------------------------------------------------------------------------------------------------


 ion  position               nearest neighbor table
   1  0.000  1.000  1.000-   9 2.06   9 2.06   9 2.06  14 2.10  14 2.10  14 2.10   6 2.83   6 2.83
                             6 2.83
   2  0.250  0.750  0.250-  11 2.06  11 2.06  11 2.06  10 2.10  10 2.10  10 2.10   6 2.83   6 2.83
                             6 2.83
   3  0.874  0.126  0.378-  12 1.87  12 1.87  12 1.87  10 1.94  10 1.94  10 1.94
   4  0.125  0.875  0.625-   7 1.87  13 1.87   7 1.87  13 1.87   7 1.87  13 1.87
   5  0.376  0.624  0.872-   8 1.87   8 1.87   8 1.87  14 1.94  14 1.94  14 1.94
   6  0.625  0.375  0.125-   9 1.94  11 1.94   9 1.94  11 1.94   9 1.94  11 1.94   1 2.83   2 2.83
                             1 2.83   2 2.83   1 2.83   2 2.83
   7  0.808  0.192  0.575-   4 1.87   4 1.87   4 1.87
   8  0.059  0.941  0.823-   5 1.87   5 1.87   5 1.87
   9  0.311  0.689  0.068-   6 1.94   6 1.94   6 1.94   1 2.06   1 2.06   1 2.06
  10  0.559  0.441  0.322-   3 1.94   3 1.94   3 1.94   2 2.10   2 2.10   2 2.10
  11  0.939  0.061  0.182-   6 1.94   6 1.94   6 1.94   2 2.06   2 2.06   2 2.06
  12  0.191  0.809  0.427-   3 1.87   3 1.87   3 1.87
  13  0.442  0.558  0.675-   4 1.87   4 1.87   4 1.87
  14  0.691  0.309  0.928-   5 1.94   5 1.94   5 1.94   1 2.10   1 2.10   1 2.10
 
  LATTYP: Found a trigonal (rhomboedric) cell.
 ALAT       =    18.5958492087
 COS(alpha) =     0.9884674845
  
  Lattice vectors:
  
 A1 = (  -1.4120921600,   0.8152717100, -18.5242256400)
 A2 = (   1.4120921600,   0.8152717100, -18.5242256400)
 A3 = (  -0.0000000000,  -1.6305436700, -18.5242256400)


Analysis of symmetry for initial positions (statically):
=====================================================================
 Subroutine PRICEL returns:
 Original cell was already a primitive cell.
 

 Routine SETGRP: Setting up the symmetry group for a 
 trigonal (rhombohedral) supercell.


 Subroutine GETGRP returns: Found 12 space group operations
 (whereof  6 operations were pure point group operations)
 out of a pool of 12 trial point group operations.


The static configuration has the point symmetry C_3v.
 The point group associated with its full space group is D_3d.


Analysis of symmetry for dynamics (positions and initial velocities):
=====================================================================
 Subroutine PRICEL returns:
 Original cell was already a primitive cell.
 

 Routine SETGRP: Setting up the symmetry group for a 
 trigonal (rhombohedral) supercell.


 Subroutine GETGRP returns: Found 12 space group operations
 (whereof  6 operations were pure point group operations)
 out of a pool of 12 trial point group operations.


The dynamic configuration has the point symmetry C_3v.
 The point group associated with its full space group is D_3d.


Analysis of structural, dynamic, and magnetic symmetry:
=====================================================================
 Subroutine PRICEL returns:
 Original cell was already a primitive cell.
 

 Routine SETGRP: Setting up the symmetry group for a 
 trigonal (rhombohedral) supercell.


 Subroutine GETGRP returns: Found 12 space group operations
 (whereof  6 operations were pure point group operations)
 out of a pool of 12 trial point group operations.


The magnetic configuration has the point symmetry C_3v.
 The point group associated with its full space group is D_3d.


 Subroutine INISYM returns: Found 12 space group operations
 (whereof  6 operations are pure point group operations),
 and found     1 'primitive' translations

 
 
 KPOINTS: Automatic mesh                          

Automatic generation of k-mesh.
Space group operators:
 irot       det(A)        alpha          n_x          n_y          n_z        tau_x        tau_y        tau_z
    1     1.000000     0.000000     1.000000     0.000000     0.000000     0.000000     0.000000     0.000000
    2    -1.000000   180.000000     0.500000     0.866025    -0.000000     0.000000     0.000000     0.000000
    3     1.000000   120.000000     0.000000     0.000000     1.000000     0.000000     0.000000     0.000000
    4    -1.000000   180.000000     1.000000     0.000000     0.000000     0.000000     0.000000     0.000000
    5     1.000000   120.000000     0.000000    -0.000000    -1.000000     0.000000     0.000000     0.000000
    6    -1.000000   180.000000    -0.500000     0.866025    -0.000000     0.000000     0.000000     0.000000
    7    -1.000000     0.000000     1.000000     0.000000     0.000000     0.250000    -0.250000    -0.750000
    8     1.000000   180.000000     0.500000     0.866025    -0.000000     0.250000    -0.250000    -0.750000
    9    -1.000000   120.000000     0.000000     0.000000     1.000000     0.250000    -0.250000    -0.750000
   10     1.000000   180.000000     1.000000     0.000000     0.000000     0.250000    -0.250000    -0.750000
   11    -1.000000   120.000000     0.000000    -0.000000    -1.000000     0.250000    -0.250000    -0.750000
   12     1.000000   180.000000    -0.500000     0.866025    -0.000000     0.250000    -0.250000    -0.750000
 
 Subroutine IBZKPT returns following result:
 ===========================================
 
 Found     72 irreducible k-points:
 
 Following reciprocal coordinates:
            Coordinates               Weight
  0.000000  0.000000  0.000000      1.000000
  0.090909  0.000000  0.000000      4.000000
  0.181818  0.000000  0.000000      4.000000
  0.272727  0.000000 -0.000000      4.000000
  0.363636  0.000000  0.000000      4.000000
  0.454545  0.000000  0.000000      4.000000
  0.090909  0.090909 -0.000000      2.000000
  0.181818  0.090909  0.000000      4.000000
  0.272727  0.090909 -0.000000      4.000000
  0.363636  0.090909  0.000000      4.000000
  0.454545  0.090909  0.000000      4.000000
 -0.454545  0.090909  0.000000      4.000000
 -0.363636  0.090909 -0.000000      4.000000
 -0.272727  0.090909  0.000000      4.000000
 -0.181818  0.090909 -0.000000      4.000000
 -0.090909  0.090909  0.000000      2.000000
  0.181818  0.181818 -0.000000      2.000000
  0.272727  0.181818  0.000000      4.000000
  0.363636  0.181818  0.000000      4.000000
  0.454545  0.181818  0.000000      4.000000
 -0.454545  0.181818  0.000000      4.000000
 -0.363636  0.181818 -0.000000      4.000000
 -0.272727  0.181818  0.000000      4.000000
 -0.181818  0.181818  0.000000      2.000000
  0.272727  0.272727  0.000000      2.000000
  0.363636  0.272727  0.000000      4.000000
  0.454545  0.272727  0.000000      4.000000
 -0.454545  0.272727  0.000000      4.000000
 -0.363636  0.272727  0.000000      4.000000
 -0.272727  0.272727  0.000000      2.000000
  0.363636  0.363636 -0.000000      2.000000
  0.454545  0.363636  0.000000      4.000000
 -0.454545  0.363636  0.000000      4.000000
 -0.363636  0.363636  0.000000      2.000000
  0.454545  0.454545  0.000000      2.000000
 -0.454545  0.454545  0.000000      2.000000
  0.000000  0.000000  0.500000      1.000000
  0.090909  0.000000  0.500000      4.000000
  0.181818  0.000000  0.500000      4.000000
  0.272727  0.000000  0.500000      4.000000
  0.363636  0.000000  0.500000      4.000000
  0.454545  0.000000  0.500000      4.000000
  0.090909  0.090909  0.500000      2.000000
  0.181818  0.090909  0.500000      4.000000
  0.272727  0.090909  0.500000      4.000000
  0.363636  0.090909  0.500000      4.000000
  0.454545  0.090909  0.500000      4.000000
 -0.454545  0.090909  0.500000      4.000000
 -0.363636  0.090909  0.500000      4.000000
 -0.272727  0.090909  0.500000      4.000000
 -0.181818  0.090909  0.500000      4.000000
 -0.090909  0.090909  0.500000      2.000000
  0.181818  0.181818  0.500000      2.000000
  0.272727  0.181818  0.500000      4.000000
  0.363636  0.181818  0.500000      4.000000
  0.454545  0.181818  0.500000      4.000000
 -0.454545  0.181818  0.500000      4.000000
 -0.363636  0.181818  0.500000      4.000000
 -0.272727  0.181818  0.500000      4.000000
 -0.181818  0.181818  0.500000      2.000000
  0.272727  0.272727  0.500000      2.000000
  0.363636  0.272727  0.500000      4.000000
  0.454545  0.272727  0.500000      4.000000
 -0.454545  0.272727  0.500000      4.000000
 -0.363636  0.272727  0.500000      4.000000
 -0.272727  0.272727  0.500000      2.000000
  0.363636  0.363636  0.500000      2.000000
  0.454545  0.363636  0.500000      4.000000
 -0.454545  0.363636  0.500000      4.000000
 -0.363636  0.363636  0.500000      2.000000
  0.454545  0.454545  0.500000      2.000000
 -0.454545  0.454545  0.500000      2.000000
 
 Following cartesian coordinates:
            Coordinates               Weight
  0.000000  0.000000  0.000000      1.000000
  0.032190  0.018585 -0.001636      4.000000
  0.064379  0.037169 -0.003272      4.000000
  0.096569  0.055754 -0.004908      4.000000
  0.128758  0.074338 -0.006543      4.000000
  0.160948  0.092923 -0.008179      4.000000
  0.032190  0.055754 -0.000000      2.000000
  0.064379  0.074338 -0.001636      4.000000
  0.096569  0.092923 -0.003272      4.000000
  0.128758  0.111508 -0.004908      4.000000
  0.160948  0.130092 -0.006543      4.000000
 -0.160948 -0.055754  0.009815      4.000000
 -0.128758 -0.037169  0.008179      4.000000
 -0.096569 -0.018585  0.006543      4.000000
 -0.064379  0.000000  0.004908      4.000000
 -0.032190  0.018585  0.003272      2.000000
  0.064379  0.111508 -0.000000      2.000000
  0.096569  0.130092 -0.001636      4.000000
  0.128758  0.148677 -0.003272      4.000000
  0.160948  0.167262 -0.004908      4.000000
 -0.160948 -0.018585  0.011451      4.000000
 -0.128758  0.000000  0.009815      4.000000
 -0.096569  0.018585  0.008179      4.000000
 -0.064379  0.037169  0.006543      2.000000
  0.096569  0.167262 -0.000000      2.000000
  0.128758  0.185846 -0.001636      4.000000
  0.160948  0.204431 -0.003272      4.000000
 -0.160948  0.018585  0.013087      4.000000
 -0.128758  0.037169  0.011451      4.000000
 -0.096569  0.055754  0.009815      2.000000
  0.128758  0.223015 -0.000000      2.000000
  0.160948  0.241600 -0.001636      4.000000
 -0.160948  0.055754  0.014723      4.000000
 -0.128758  0.074338  0.013087      2.000000
  0.160948  0.278769 -0.000000      2.000000
 -0.160948  0.092923  0.016359      2.000000
  0.000000  0.000000  0.026992      1.000000
  0.032190  0.018585  0.025356      4.000000
  0.064379  0.037169  0.023720      4.000000
  0.096569  0.055754  0.022084      4.000000
  0.128758  0.074338  0.020448      4.000000
  0.160948  0.092923  0.018812      4.000000
  0.032190  0.055754  0.026992      2.000000
  0.064379  0.074338  0.025356      4.000000
  0.096569  0.092923  0.023720      4.000000
  0.128758  0.111508  0.022084      4.000000
  0.160948  0.130092  0.020448      4.000000
 -0.160948 -0.055754  0.036807      4.000000
 -0.128758 -0.037169  0.035171      4.000000
 -0.096569 -0.018585  0.033535      4.000000
 -0.064379  0.000000  0.031899      4.000000
 -0.032190  0.018585  0.030263      2.000000
  0.064379  0.111508  0.026992      2.000000
  0.096569  0.130092  0.025356      4.000000
  0.128758  0.148677  0.023720      4.000000
  0.160948  0.167262  0.022084      4.000000
 -0.160948 -0.018585  0.038443      4.000000
 -0.128758  0.000000  0.036807      4.000000
 -0.096569  0.018585  0.035171      4.000000
 -0.064379  0.037169  0.033535      2.000000
  0.096569  0.167262  0.026992      2.000000
  0.128758  0.185846  0.025356      4.000000
  0.160948  0.204431  0.023720      4.000000
 -0.160948  0.018585  0.040079      4.000000
 -0.128758  0.037169  0.038443      4.000000
 -0.096569  0.055754  0.036807      2.000000
  0.128758  0.223015  0.026992      2.000000
  0.160948  0.241600  0.025356      4.000000
 -0.160948  0.055754  0.041714      4.000000
 -0.128758  0.074338  0.040079      2.000000
  0.160948  0.278769  0.026992      2.000000
 -0.160948  0.092923  0.043350      2.000000
 


--------------------------------------------------------------------------------------------------------




 Dimension of arrays:
   k-points           NKPTS =     72   k-points in BZ     NKDIM =     72   number of bands    NBANDS=     64
   number of dos      NEDOS =    301   number of ions     NIONS =     14
   non local maximal  LDIM  =      6   non local SUM 2l+1 LMDIM =     18
   total plane-waves  NPLWV =  80640
   max r-space proj   IRMAX =   8511   max aug-charges    IRDMAX=  20626
   dimension x,y,z NGX =    24 NGY =   24 NGZ =  140
   dimension x,y,z NGXF=    48 NGYF=   48 NGZF=  280
   support grid    NGXF=    48 NGYF=   48 NGZF=  280
   ions per type =               2   4   8
   NGX,Y,Z   is equivalent  to a cutoff of  14.13, 14.13, 12.52 a.u.
   NGXF,Y,Z  is equivalent  to a cutoff of  28.26, 28.26, 25.03 a.u.

 SYSTEM =  unknown system                          
 POSCAR =  ce33                                    

 Startparameter for this run:
   NWRITE =      1    write-flag & timer
   PREC   = accura    normal or accurate (medium, high low for compatibility)
   ISTART =      0    job   : 0-new  1-cont  2-samecut
   ICHARG =      2    charge: 1-file 2-atom 10-const
   ISPIN  =      2    spin polarized calculation?
   LNONCOLLINEAR =      F non collinear calculations
   LSORBIT =      F    spin-orbit coupling
   INIWAV =      1    electr: 0-lowe 1-rand  2-diag
   LASPH  =      F    aspherical Exc in radial PAW
   METAGGA=      F    non-selfconsistent MetaGGA calc.

 Electronic Relaxation 1
   ENCUT  =  500.0 eV  36.75 Ry    6.06 a.u.   5.15  5.15 33.90*2*pi/ulx,y,z
   ENINI  =  500.0     initial cutoff
   ENAUG  =  628.9 eV  augmentation charge cutoff
   NELM   =     80;   NELMIN=  2; NELMDL= -5     # of ELM steps 
   EDIFF  = 0.1E-04   stopping-criterion for ELM
   LREAL  =      T    real-space projection
   NLSPLINE    = F    spline interpolate recip. space projectors
   LCOMPAT=      F    compatible to vasp.4.4
   GGA_COMPAT  = T    GGA compatible to vasp.4.4-vasp.4.6
   LMAXPAW     = -100 max onsite density
   LMAXMIX     =    2 max onsite mixed and CHGCAR
   VOSKOWN=      1    Vosko Wilk Nusair interpolation
   ROPT   =   -0.00025  -0.00025  -0.00025
 Ionic relaxation
   EDIFFG = 0.1E-03   stopping-criterion for IOM
   NSW    =      0    number of steps for IOM
   NBLOCK =      1;   KBLOCK =      1    inner block; outer block 
   IBRION =     -1    ionic relax: 0-MD 1-quasi-New 2-CG
   NFREE  =      0    steps in history (QN), initial steepest desc. (CG)
   ISIF   =      2    stress and relaxation
   IWAVPR =     10    prediction:  0-non 1-charg 2-wave 3-comb
   ISYM   =      2    0-nonsym 1-usesym 2-fastsym
   LCORR  =      T    Harris-Foulkes like correction to forces

   POTIM  = 0.5000    time-step for ionic-motion
   TEIN   =    0.0    initial temperature
   TEBEG  =    0.0;   TEEND  =   0.0 temperature during run
   SMASS  =  -3.00    Nose mass-parameter (am)
   estimated Nose-frequenzy (Omega)   =  0.10E-29 period in steps =****** mass=  -0.182E-27a.u.
   SCALEE = 1.0000    scale energy and forces
   NPACO  =    256;   APACO  = 16.0  distance and # of slots for P.C.
   PSTRESS=    0.0 pullay stress

  Mass of Ions in am
   POMASS =   7.01 58.69 16.00
  Ionic Valenz
   ZVAL   =   3.00 10.00  6.00
  Atomic Wigner-Seitz radii
   RWIGS  =   1.23  1.15  0.73
  virtual crystal weights 
   VCA    =   1.00  1.00  1.00
   NELECT =      94.0000    total number of electrons
   NUPDOWN=      -1.0000    fix difference up-down

 DOS related values:
   EMIN   =  10.00;   EMAX   =-10.00  energy-range for DOS
   EFERMI =   0.00
   ISMEAR =     0;   SIGMA  =   0.05  broadening in eV -4-tet -1-fermi 0-gaus

 Electronic relaxation 2 (details)
   IALGO  =     38    algorithm
   LDIAG  =      T    sub-space diagonalisation (order eigenvalues)
   LSUBROT=      F    optimize rotation matrix (better conditioning)
   TURBO    =      0    0=normal 1=particle mesh
   IRESTART =      0    0=no restart 2=restart with 2 vectors
   NREBOOT  =      0    no. of reboots
   NMIN     =      0    reboot dimension
   EREF     =   0.00    reference energy to select bands
   IMIX   =      4    mixing-type and parameters
     AMIX     =   0.40;   BMIX     =  1.00
     AMIX_MAG =   1.60;   BMIX_MAG =  1.00
     AMIN     =   0.10
     WC   =   100.;   INIMIX=   1;  MIXPRE=   1;  MAXMIX= -45

 Intra band minimization:
   WEIMIN = 0.0000     energy-eigenvalue tresh-hold
   EBREAK =  0.39E-07  absolut break condition
   DEPER  =   0.30     relativ break condition  

   TIME   =   0.40     timestep for ELM

  volume/ion in A,a.u.               =       9.14        61.68
  Fermi-wavevector in a.u.,A,eV,Ry     =   1.477175  2.791455 29.688526  2.182045
  Thomas-Fermi vector in A             =   2.591611
 
 Write flags
   LWAVE        =      F    write WAVECAR
   LDOWNSAMPLE  =      F    k-point downsampling of WAVECAR
   LCHARG       =      T    write CHGCAR
   LVTOT        =      F    write LOCPOT, total local potential
   LVHAR        =      F    write LOCPOT, Hartree potential only
   LELF         =      F    write electronic localiz. function (ELF)
   LORBIT       =      0    0 simple, 1 ext, 2 COOP (PROOUT), +10 PAW based schemes


 Dipole corrections
   LMONO  =      F    monopole corrections only (constant potential shift)
   LDIPOL =      F    correct potential (dipole corrections)
   IDIPOL =      0    1-x, 2-y, 3-z, 4-all directions 
   EPSILON=  1.0000000 bulk dielectric constant

 Exchange correlation treatment:
   GGA     =    PS    GGA type
   LEXCH   =    14    internal setting for exchange type
   VOSKOWN=      1    Vosko Wilk Nusair interpolation
   LHFCALC =     F    Hartree Fock is set to
   LHFONE  =     F    Hartree Fock one center treatment
   AEXX    =    0.0000 exact exchange contribution

 Linear response parameters
   LEPSILON=     F    determine dielectric tensor
   LRPA    =     F    only Hartree local field effects (RPA)
   LNABLA  =     F    use nabla operator in PAW spheres
   LVEL    =     F    velocity operator in full k-point grid
   LINTERFAST=   F  fast interpolation
   KINTER  =     0    interpolate to denser k-point grid
   CSHIFT  =0.1000    complex shift for real part using Kramers Kronig
   OMEGAMAX=  -1.0    maximum frequency
   DEG_THRESHOLD= 0.2000000E-02 threshold for treating states as degnerate
   RTIME   =   -0.100 relaxation time in fs
  (WPLASMAI=    0.000 imaginary part of plasma frequency in eV, 0.658/RTIME)
   DFIELD  = 0.0000000 0.0000000 0.0000000 field for delta impulse in time
 
 Orbital magnetization related:
   ORBITALMAG=     F  switch on orbital magnetization
   LCHIMAG   =     F  perturbation theory with respect to B field
   DQ        =  0.001000  dq finite difference perturbation B field
   LLRAUG    =     F  two centre corrections for induced B field



--------------------------------------------------------------------------------------------------------


 Static calculation
 charge density and potential will be updated during run
 spin polarized calculation
 Variant of blocked Davidson
 Davidson routine will perform the subspace rotation
 perform sub-space diagonalisation
    after iterative eigenvector-optimisation
 modified Broyden-mixing scheme, WC =      100.0
 initial mixing is a Kerker type mixing with AMIX =  0.4000 and BMIX =      1.0000
 Hartree-type preconditioning will be used
 using additional bands           17
 real space projection scheme for non local part
 use partial core corrections
 calculate Harris-corrections to forces 
   (improved forces if not selfconsistent)
 use gradient corrections 
 use of overlap-Matrix (Vanderbilt PP)
 Gauss-broadening in eV      SIGMA  =   0.05


--------------------------------------------------------------------------------------------------------


  energy-cutoff  :      500.00
  volume of cell :      127.95
      direct lattice vectors                 reciprocal lattice vectors
     2.824184320  0.000000000  0.000000000     0.354084538  0.204430802 -0.017994455
    -1.412092160  2.445815380  0.000000000     0.000000000  0.408861604  0.017994453
     1.412092160 -0.815271710 18.524225640     0.000000000  0.000000000  0.053983363

  length of vectors
     2.824184320  2.824184332 18.595849209     0.409257392  0.409257391  0.053983363


 
 k-points in units of 2pi/SCALE and weight: Automatic mesh                          
   0.00000000  0.00000000  0.00000000       0.004
   0.03218950  0.01858462 -0.00163586       0.017
   0.06437901  0.03716924 -0.00327172       0.017
   0.09656851  0.05575386 -0.00490758       0.017
   0.12875801  0.07433847 -0.00654344       0.017
   0.16094752  0.09292309 -0.00817930       0.017
   0.03218950  0.05575386 -0.00000000       0.008
   0.06437901  0.07433847 -0.00163586       0.017
   0.09656851  0.09292309 -0.00327172       0.017
   0.12875801  0.11150771 -0.00490758       0.017
   0.16094752  0.13009233 -0.00654344       0.017
  -0.16094752 -0.05575386  0.00981516       0.017
  -0.12875801 -0.03716924  0.00817930       0.017
  -0.09656851 -0.01858462  0.00654344       0.017
  -0.06437901  0.00000000  0.00490758       0.017
  -0.03218950  0.01858462  0.00327172       0.008
   0.06437901  0.11150771 -0.00000000       0.008
   0.09656851  0.13009233 -0.00163586       0.017
   0.12875801  0.14867695 -0.00327172       0.017
   0.16094752  0.16726157 -0.00490758       0.017
  -0.16094752 -0.01858462  0.01145102       0.017
  -0.12875801  0.00000000  0.00981516       0.017
  -0.09656851  0.01858462  0.00817930       0.017
  -0.06437901  0.03716924  0.00654344       0.008
   0.09656851  0.16726157 -0.00000000       0.008
   0.12875801  0.18584618 -0.00163586       0.017
   0.16094752  0.20443080 -0.00327172       0.017
  -0.16094752  0.01858462  0.01308688       0.017
  -0.12875801  0.03716924  0.01145102       0.017
  -0.09656851  0.05575386  0.00981516       0.008
   0.12875801  0.22301542 -0.00000000       0.008
   0.16094752  0.24160004 -0.00163586       0.017
  -0.16094752  0.05575386  0.01472274       0.017
  -0.12875801  0.07433847  0.01308688       0.008
   0.16094752  0.27876928 -0.00000000       0.008
  -0.16094752  0.09292309  0.01635859       0.008
   0.00000000  0.00000000  0.02699168       0.004
   0.03218950  0.01858462  0.02535582       0.017
   0.06437901  0.03716924  0.02371996       0.017
   0.09656851  0.05575386  0.02208410       0.017
   0.12875801  0.07433847  0.02044824       0.017
   0.16094752  0.09292309  0.01881238       0.017
   0.03218950  0.05575386  0.02699168       0.008
   0.06437901  0.07433847  0.02535582       0.017
   0.09656851  0.09292309  0.02371996       0.017
   0.12875801  0.11150771  0.02208410       0.017
   0.16094752  0.13009233  0.02044824       0.017
  -0.16094752 -0.05575386  0.03680684       0.017
  -0.12875801 -0.03716924  0.03517098       0.017
  -0.09656851 -0.01858462  0.03353512       0.017
  -0.06437901  0.00000000  0.03189926       0.017
  -0.03218950  0.01858462  0.03026340       0.008
   0.06437901  0.11150771  0.02699168       0.008
   0.09656851  0.13009233  0.02535582       0.017
   0.12875801  0.14867695  0.02371996       0.017
   0.16094752  0.16726157  0.02208410       0.017
  -0.16094752 -0.01858462  0.03844270       0.017
  -0.12875801  0.00000000  0.03680684       0.017
  -0.09656851  0.01858462  0.03517098       0.017
  -0.06437901  0.03716924  0.03353512       0.008
   0.09656851  0.16726157  0.02699168       0.008
   0.12875801  0.18584618  0.02535582       0.017
   0.16094752  0.20443080  0.02371996       0.017
  -0.16094752  0.01858462  0.04007856       0.017
  -0.12875801  0.03716924  0.03844270       0.017
  -0.09656851  0.05575386  0.03680684       0.008
   0.12875801  0.22301542  0.02699168       0.008
   0.16094752  0.24160004  0.02535582       0.017
  -0.16094752  0.05575386  0.04171442       0.017
  -0.12875801  0.07433847  0.04007856       0.008
   0.16094752  0.27876928  0.02699168       0.008
  -0.16094752  0.09292309  0.04335028       0.008
 
 k-points in reciprocal lattice and weights: Automatic mesh                          
   0.00000000  0.00000000  0.00000000       0.004
   0.09090909  0.00000000  0.00000000       0.017
   0.18181818  0.00000000  0.00000000       0.017
   0.27272727  0.00000000 -0.00000000       0.017
   0.36363636  0.00000000  0.00000000       0.017
   0.45454545  0.00000000  0.00000000       0.017
   0.09090909  0.09090909 -0.00000000       0.008
   0.18181818  0.09090909  0.00000000       0.017
   0.27272727  0.09090909 -0.00000000       0.017
   0.36363636  0.09090909  0.00000000       0.017
   0.45454545  0.09090909  0.00000000       0.017
  -0.45454545  0.09090909  0.00000000       0.017
  -0.36363636  0.09090909 -0.00000000       0.017
  -0.27272727  0.09090909  0.00000000       0.017
  -0.18181818  0.09090909 -0.00000000       0.017
  -0.09090909  0.09090909  0.00000000       0.008
   0.18181818  0.18181818 -0.00000000       0.008
   0.27272727  0.18181818  0.00000000       0.017
   0.36363636  0.18181818  0.00000000       0.017
   0.45454545  0.18181818  0.00000000       0.017
  -0.45454545  0.18181818  0.00000000       0.017
  -0.36363636  0.18181818 -0.00000000       0.017
  -0.27272727  0.18181818  0.00000000       0.017
  -0.18181818  0.18181818  0.00000000       0.008
   0.27272727  0.27272727  0.00000000       0.008
   0.36363636  0.27272727  0.00000000       0.017
   0.45454545  0.27272727  0.00000000       0.017
  -0.45454545  0.27272727  0.00000000       0.017
  -0.36363636  0.27272727  0.00000000       0.017
  -0.27272727  0.27272727  0.00000000       0.008
   0.36363636  0.36363636 -0.00000000       0.008
   0.45454545  0.36363636  0.00000000       0.017
  -0.45454545  0.36363636  0.00000000       0.017
  -0.36363636  0.36363636  0.00000000       0.008
   0.45454545  0.45454545  0.00000000       0.008
  -0.45454545  0.45454545  0.00000000       0.008
   0.00000000  0.00000000  0.50000000       0.004
   0.09090909  0.00000000  0.50000000       0.017
   0.18181818  0.00000000  0.50000000       0.017
   0.27272727  0.00000000  0.50000000       0.017
   0.36363636  0.00000000  0.50000000       0.017
   0.45454545  0.00000000  0.50000000       0.017
   0.09090909  0.09090909  0.50000000       0.008
   0.18181818  0.09090909  0.50000000       0.017
   0.27272727  0.09090909  0.50000000       0.017
   0.36363636  0.09090909  0.50000000       0.017
   0.45454545  0.09090909  0.50000000       0.017
  -0.45454545  0.09090909  0.50000000       0.017
  -0.36363636  0.09090909  0.50000000       0.017
  -0.27272727  0.09090909  0.50000000       0.017
  -0.18181818  0.09090909  0.50000000       0.017
  -0.09090909  0.09090909  0.50000000       0.008
   0.18181818  0.18181818  0.50000000       0.008
   0.27272727  0.18181818  0.50000000       0.017
   0.36363636  0.18181818  0.50000000       0.017
   0.45454545  0.18181818  0.50000000       0.017
  -0.45454545  0.18181818  0.50000000       0.017
  -0.36363636  0.18181818  0.50000000       0.017
  -0.27272727  0.18181818  0.50000000       0.017
  -0.18181818  0.18181818  0.50000000       0.008
   0.27272727  0.27272727  0.50000000       0.008
   0.36363636  0.27272727  0.50000000       0.017
   0.45454545  0.27272727  0.50000000       0.017
  -0.45454545  0.27272727  0.50000000       0.017
  -0.36363636  0.27272727  0.50000000       0.017
  -0.27272727  0.27272727  0.50000000       0.008
   0.36363636  0.36363636  0.50000000       0.008
   0.45454545  0.36363636  0.50000000       0.017
  -0.45454545  0.36363636  0.50000000       0.017
  -0.36363636  0.36363636  0.50000000       0.008
   0.45454545  0.45454545  0.50000000       0.008
  -0.45454545  0.45454545  0.50000000       0.008
 
 position of ions in fractional coordinates (direct lattice) 
   0.00002952  0.99997048  0.99991145
   0.24997048  0.75002952  0.25008855
   0.87391247  0.12608753  0.37826259
   0.12500000  0.87500000  0.62500000
   0.37608753  0.62391247  0.87173741
   0.62500000  0.37500000  0.12500000
   0.80819493  0.19180507  0.57541522
   0.05913073  0.94086927  0.82260782
   0.31065195  0.68934805  0.06804416
   0.55937759  0.44062241  0.32186722
   0.93934805  0.06065195  0.18195584
   0.19086927  0.80913073  0.42739218
   0.44180507  0.55819493  0.67458478
   0.69062241  0.30937759  0.92813278
 
 position of ions in cartesian coordinates  (Angst):
   0.00000001  1.63054366 18.52258532
  -0.00000001  1.63054362  4.63269673
   2.82418432  0.00000003  7.00702157
   0.00000000  1.63054364 11.57764103
   1.41209216  0.81527187 16.14826048
   1.41209216  0.81527180  2.31552821
   2.82418433  0.00000004 10.65912137
   0.00000001  1.63054365 15.23817287
   0.00000001  1.63054358  1.26046537
   1.41209215  0.81527183  5.96234101
   2.82418431  0.00000002  3.37059104
  -0.00000001  1.63054363  7.91710918
   1.41209215  0.81527186 12.49616068
   2.82418433  0.00000007 17.19294104
 


--------------------------------------------------------------------------------------------------------


 k-point  1 :   0.0000 0.0000 0.0000  plane waves:    3229
 k-point  2 :   0.0909 0.0000 0.0000  plane waves:    3221
 k-point  3 :   0.1818 0.0000 0.0000  plane waves:    3220
 k-point  4 :   0.2727 0.0000-0.0000  plane waves:    3252
 k-point  5 :   0.3636 0.0000 0.0000  plane waves:    3254
 k-point  6 :   0.4545 0.0000 0.0000  plane waves:    3264
 k-point  7 :   0.0909 0.0909-0.0000  plane waves:    3205
 k-point  8 :   0.1818 0.0909 0.0000  plane waves:    3238
 k-point  9 :   0.2727 0.0909-0.0000  plane waves:    3257
 k-point 10 :   0.3636 0.0909 0.0000  plane waves:    3263
 k-point 11 :   0.4545 0.0909 0.0000  plane waves:    3263
 k-point 12 :  -0.4545 0.0909 0.0000  plane waves:    3267
 k-point 13 :  -0.3636 0.0909-0.0000  plane waves:    3264
 k-point 14 :  -0.2727 0.0909 0.0000  plane waves:    3238
 k-point 15 :  -0.1818 0.0909-0.0000  plane waves:    3212
 k-point 16 :  -0.0909 0.0909 0.0000  plane waves:    3223
 k-point 17 :   0.1818 0.1818-0.0000  plane waves:    3243
 k-point 18 :   0.2727 0.1818 0.0000  plane waves:    3253
 k-point 19 :   0.3636 0.1818 0.0000  plane waves:    3251
 k-point 20 :   0.4545 0.1818 0.0000  plane waves:    3253
 k-point 21 :  -0.4545 0.1818 0.0000  plane waves:    3254
 k-point 22 :  -0.3636 0.1818-0.0000  plane waves:    3248
 k-point 23 :  -0.2727 0.1818 0.0000  plane waves:    3233
 k-point 24 :  -0.1818 0.1818 0.0000  plane waves:    3214
 k-point 25 :   0.2727 0.2727 0.0000  plane waves:    3259
 k-point 26 :   0.3636 0.2727 0.0000  plane waves:    3239
 k-point 27 :   0.4545 0.2727 0.0000  plane waves:    3254
 k-point 28 :  -0.4545 0.2727 0.0000  plane waves:    3249
 k-point 29 :  -0.3636 0.2727 0.0000  plane waves:    3256
 k-point 30 :  -0.2727 0.2727 0.0000  plane waves:    3262
 k-point 31 :   0.3636 0.3636-0.0000  plane waves:    3239
 k-point 32 :   0.4545 0.3636 0.0000  plane waves:    3258
 k-point 33 :  -0.4545 0.3636 0.0000  plane waves:    3268
 k-point 34 :  -0.3636 0.3636 0.0000  plane waves:    3271
 k-point 35 :   0.4545 0.4545 0.0000  plane waves:    3266
 k-point 36 :  -0.4545 0.4545 0.0000  plane waves:    3257
 k-point 37 :   0.0000 0.0000 0.5000  plane waves:    3242
 k-point 38 :   0.0909 0.0000 0.5000  plane waves:    3214
 k-point 39 :   0.1818 0.0000 0.5000  plane waves:    3225
 k-point 40 :   0.2727 0.0000 0.5000  plane waves:    3253
 k-point 41 :   0.3636 0.0000 0.5000  plane waves:    3267
 k-point 42 :   0.4545 0.0000 0.5000  plane waves:    3259
 k-point 43 :   0.0909 0.0909 0.5000  plane waves:    3218
 k-point 44 :   0.1818 0.0909 0.5000  plane waves:    3238
 k-point 45 :   0.2727 0.0909 0.5000  plane waves:    3261
 k-point 46 :   0.3636 0.0909 0.5000  plane waves:    3272
 k-point 47 :   0.4545 0.0909 0.5000  plane waves:    3263
 k-point 48 :  -0.4545 0.0909 0.5000  plane waves:    3270
 k-point 49 :  -0.3636 0.0909 0.5000  plane waves:    3257
 k-point 50 :  -0.2727 0.0909 0.5000  plane waves:    3232
 k-point 51 :  -0.1818 0.0909 0.5000  plane waves:    3214
 k-point 52 :  -0.0909 0.0909 0.5000  plane waves:    3213
 k-point 53 :   0.1818 0.1818 0.5000  plane waves:    3256
 k-point 54 :   0.2727 0.1818 0.5000  plane waves:    3254
 k-point 55 :   0.3636 0.1818 0.5000  plane waves:    3253
 k-point 56 :   0.4545 0.1818 0.5000  plane waves:    3256
 k-point 57 :  -0.4545 0.1818 0.5000  plane waves:    3251
 k-point 58 :  -0.3636 0.1818 0.5000  plane waves:    3249
 k-point 59 :  -0.2727 0.1818 0.5000  plane waves:    3238
 k-point 60 :  -0.1818 0.1818 0.5000  plane waves:    3224
 k-point 61 :   0.2727 0.2727 0.5000  plane waves:    3260
 k-point 62 :   0.3636 0.2727 0.5000  plane waves:    3240
 k-point 63 :   0.4545 0.2727 0.5000  plane waves:    3250
 k-point 64 :  -0.4545 0.2727 0.5000  plane waves:    3251
 k-point 65 :  -0.3636 0.2727 0.5000  plane waves:    3258
 k-point 66 :  -0.2727 0.2727 0.5000  plane waves:    3252
 k-point 67 :   0.3636 0.3636 0.5000  plane waves:    3240
 k-point 68 :   0.4545 0.3636 0.5000  plane waves:    3255
 k-point 69 :  -0.4545 0.3636 0.5000  plane waves:    3267
 k-point 70 :  -0.3636 0.3636 0.5000  plane waves:    3259
 k-point 71 :   0.4545 0.4545 0.5000  plane waves:    3258
 k-point 72 :  -0.4545 0.4545 0.5000  plane waves:    3260

 maximum and minimum number of plane-waves per node :      3272     3205

 maximum number of plane-waves:      3272
 maximum index in each direction: 
   IXMAX=    5   IYMAX=    5   IZMAX=   33
   IXMIN=   -5   IYMIN=   -5   IZMIN=  -34

 The following grids will avoid any aliasing or wrap around errors in the Hartre
 e energy
  - symmetry arguments have not been applied
  - exchange correlation energies might require even more grid points
  - we recommend to set PREC=Normal or Accurate and rely on VASP defaults
 NGX is ok and might be reduce to    24
 NGY is ok and might be reduce to    24
 NGZ is ok and might be reduce to   140

 serial   3D FFT for wavefunctions
 parallel 3D FFT for charge:
    minimum data exchange during FFTs selected (reduces bandwidth)


 total amount of memory used by VASP MPI-rank0    83300. kBytes
=======================================================================

   base      :      30000. kBytes
   nonlr-proj:       9433. kBytes
   fftplans  :       1691. kBytes
   grid      :      10038. kBytes
   one-center:        435. kBytes
   wavefun   :      31703. kBytes
 
     INWAV:  cpu time    0.0000: real time    0.0000
 Broyden mixing: mesh for mixing (old mesh)
   NGX = 11   NGY = 11   NGZ = 67
  (NGX  = 48   NGY  = 48   NGZ  =280)
  gives a total of   8107 points

 initial charge density was supplied:
 charge density of overlapping atoms calculated
 number of electron      94.0000000 magnetization      10.0000000
 keeping initial charge density in first step


--------------------------------------------------------------------------------------------------------


 Maximum index for non-local projection operator         8217
 Maximum index for augmentation-charges         1265 (set IRDMAX)


--------------------------------------------------------------------------------------------------------


 First call to EWALD:  gamma=   0.352
 Maximum number of real-space cells 5x 5x 1
 Maximum number of reciprocal cells 2x 2x 9

    FEWALD:  cpu time    0.0014: real time    0.0014


--------------------------------------- Iteration      1(   1)  ---------------------------------------


    POTLOK:  cpu time    0.0516: real time    0.0531
    SETDIJ:  cpu time    0.0068: real time    0.0068
     EDDAV:  cpu time   13.9843: real time   14.0177
    --------------------------------------------
      LOOP:  cpu time   14.0446: real time   14.0796

 eigenvalue-minimisations  : 18432
 total energy-change (2. order) : 0.9174101E+03  (-0.4427544E+04)
 number of electron      94.0000000 magnetization      10.0000000
 augmentation part       94.0000000 magnetization      10.0000000

 Free energy of the ion-electron system (eV)
  ---------------------------------------------------
  alpha Z        PSCENC =       297.24529368
  Ewald energy   TEWEN  =     -5548.32500339
  -Hartree energ DENC   =     -2814.40139420
  -exchange      EXHF   =         0.00000000
  -V(xc)+E(xc)   XCENC  =       382.46934831
  PAW double counting   =      6775.46300624    -7084.83456608
  entropy T*S    EENTRO =        -0.00531996
  eigenvalues    EBANDS =       754.34594882
  atomic energy  EATOM  =      8155.45276952
  Solvation  Ediel_sol  =         0.00000000
  ---------------------------------------------------
  free energy    TOTEN  =       917.41008293 eV

  energy without entropy =      917.41540289  energy(sigma->0) =      917.41274291


--------------------------------------------------------------------------------------------------------




--------------------------------------- Iteration      1(   2)  ---------------------------------------


     EDDAV:  cpu time   12.2811: real time   12.3103
    --------------------------------------------
      LOOP:  cpu time   12.2808: real time   12.3100

 eigenvalue-minimisations  : 20192
 total energy-change (2. order) :-0.9193338E+03  (-0.8288696E+03)
 number of electron      94.0000000 magnetization      10.0000000
 augmentation part       94.0000000 magnetization      10.0000000

 Free energy of the ion-electron system (eV)
  ---------------------------------------------------
  alpha Z        PSCENC =       297.24529368
  Ewald energy   TEWEN  =     -5548.32500339
  -Hartree energ DENC   =     -2814.40139420
  -exchange      EXHF   =         0.00000000
  -V(xc)+E(xc)   XCENC  =       382.46934831
  PAW double counting   =      6775.46300624    -7084.83456608
  entropy T*S    EENTRO =        -0.01313032
  eigenvalues    EBANDS =      -164.98001099
  atomic energy  EATOM  =      8155.45276952
  Solvation  Ediel_sol  =         0.00000000
  ---------------------------------------------------
  free energy    TOTEN  =        -1.92368724 eV

  energy without entropy =       -1.91055692  energy(sigma->0) =       -1.91712208


--------------------------------------------------------------------------------------------------------




--------------------------------------- Iteration      1(   3)  ---------------------------------------


     EDDAV:  cpu time   12.2339: real time   12.2629
    --------------------------------------------
      LOOP:  cpu time   12.2340: real time   12.2630

 eigenvalue-minimisations  : 22784
 total energy-change (2. order) :-0.1081269E+03  (-0.1053051E+03)
 number of electron      94.0000000 magnetization      10.0000000
 augmentation part       94.0000000 magnetization      10.0000000

 Free energy of the ion-electron system (eV)
  ---------------------------------------------------
  alpha Z        PSCENC =       297.24529368
  Ewald energy   TEWEN  =     -5548.32500339
  -Hartree energ DENC   =     -2814.40139420
  -exchange      EXHF   =         0.00000000
  -V(xc)+E(xc)   XCENC  =       382.46934831
  PAW double counting   =      6775.46300624    -7084.83456608
  entropy T*S    EENTRO =        -0.01772832
  eigenvalues    EBANDS =      -273.10232528
  atomic energy  EATOM  =      8155.45276952
  Solvation  Ediel_sol  =         0.00000000
  ---------------------------------------------------
  free energy    TOTEN  =      -110.05059953 eV

  energy without entropy =     -110.03287121  energy(sigma->0) =     -110.04173537


--------------------------------------------------------------------------------------------------------




--------------------------------------- Iteration      1(   4)  ---------------------------------------


     EDDAV:  cpu time   15.8799: real time   15.9177
    --------------------------------------------
      LOOP:  cpu time   15.8798: real time   15.9176

 eigenvalue-minimisations  : 28944
 total energy-change (2. order) :-0.5053583E+01  (-0.5034912E+01)
 number of electron      94.0000000 magnetization      10.0000000
 augmentation part       94.0000000 magnetization      10.0000000

 Free energy of the ion-electron system (eV)
  ---------------------------------------------------
  alpha Z        PSCENC =       297.24529368
  Ewald energy   TEWEN  =     -5548.32500339
  -Hartree energ DENC   =     -2814.40139420
  -exchange      EXHF   =         0.00000000
  -V(xc)+E(xc)   XCENC  =       382.46934831
  PAW double counting   =      6775.46300624    -7084.83456608
  entropy T*S    EENTRO =        -0.01731267
  eigenvalues    EBANDS =      -278.15632409
  atomic energy  EATOM  =      8155.45276952
  Solvation  Ediel_sol  =         0.00000000
  ---------------------------------------------------
  free energy    TOTEN  =      -115.10418268 eV

  energy without entropy =     -115.08687001  energy(sigma->0) =     -115.09552634


--------------------------------------------------------------------------------------------------------




--------------------------------------- Iteration      1(   5)  ---------------------------------------


     EDDAV:  cpu time   14.6109: real time   14.6456
    CHARGE:  cpu time    0.4376: real time    0.4387
    MIXING:  cpu time    0.0011: real time    0.0011
    --------------------------------------------
      LOOP:  cpu time   15.0480: real time   15.0838

 eigenvalue-minimisations  : 27968
 total energy-change (2. order) :-0.1535285E+00  (-0.1533996E+00)
 number of electron      93.9999974 magnetization       9.9999995
 augmentation part       27.7259677 magnetization       7.5646373

 Broyden mixing:
  rms(total) = 0.59547E+01    rms(broyden)= 0.59542E+01
  rms(prec ) = 0.66797E+01
  weight for this iteration     100.00

 Free energy of the ion-electron system (eV)
  ---------------------------------------------------
  alpha Z        PSCENC =       297.24529368
  Ewald energy   TEWEN  =     -5548.32500339
  -Hartree energ DENC   =     -2814.40139420
  -exchange      EXHF   =         0.00000000
  -V(xc)+E(xc)   XCENC  =       382.46934831
  PAW double counting   =      6775.46300624    -7084.83456608
  entropy T*S    EENTRO =        -0.01736865
  eigenvalues    EBANDS =      -278.30979658
  atomic energy  EATOM  =      8155.45276952
  Solvation  Ediel_sol  =         0.00000000
  ---------------------------------------------------
  free energy    TOTEN  =      -115.25771116 eV

  energy without entropy =     -115.24034250  energy(sigma->0) =     -115.24902683


--------------------------------------------------------------------------------------------------------




--------------------------------------- Iteration      1(   6)  ---------------------------------------


    POTLOK:  cpu time    0.0328: real time    0.0329
    SETDIJ:  cpu time    0.0055: real time    0.0055
     EDDAV:  cpu time   14.8417: real time   14.8767
    CHARGE:  cpu time    0.4001: real time    0.4010
    MIXING:  cpu time    0.0037: real time    0.0262
    --------------------------------------------
      LOOP:  cpu time   15.2838: real time   15.3424

 eigenvalue-minimisations  : 31072
 total energy-change (2. order) :-0.9988922E+02  (-0.1533463E+03)
 number of electron      93.9999978 magnetization       9.8759524
 augmentation part       30.9053357 magnetization       8.1367375

 Broyden mixing:
  rms(total) = 0.16803E+02    rms(broyden)= 0.16803E+02
  rms(prec ) = 0.19797E+02
  weight for this iteration     100.00

 eigenvalues of (default mixing * dielectric matrix)
  average eigenvalue GAMMA=   0.0844
  0.0844

 Free energy of the ion-electron system (eV)
  ---------------------------------------------------
  alpha Z        PSCENC =       297.24529368
  Ewald energy   TEWEN  =     -5548.32500339
  -Hartree energ DENC   =     -2705.68769881
  -exchange      EXHF   =         0.00000000
  -V(xc)+E(xc)   XCENC  =       384.23117653
  PAW double counting   =      7440.63657990    -7706.53510770
  entropy T*S    EENTRO =        -0.00992318
  eigenvalues    EBANDS =      -532.15501538
  atomic energy  EATOM  =      8155.45276952
  Solvation  Ediel_sol  =         0.00000000
  ---------------------------------------------------
  free energy    TOTEN  =      -215.14692884 eV

  energy without entropy =     -215.13700565  energy(sigma->0) =     -215.14196724


--------------------------------------------------------------------------------------------------------




--------------------------------------- Iteration      1(   7)  ---------------------------------------


    POTLOK:  cpu time    0.0416: real time    0.0417
    SETDIJ:  cpu time    0.0055: real time    0.0055
     EDDAV:  cpu time   12.4179: real time   12.4505
    CHARGE:  cpu time    0.3997: real time    0.4006
    MIXING:  cpu time    0.0020: real time    0.0200
    --------------------------------------------
      LOOP:  cpu time   12.8666: real time   12.9183

 eigenvalue-minimisations  : 23088
 total energy-change (2. order) : 0.6061875E+02  (-0.1966098E+02)
 number of electron      93.9999972 magnetization       9.6728141
 augmentation part       34.1949418 magnetization       8.5306930

 Broyden mixing:
  rms(total) = 0.11057E+02    rms(broyden)= 0.11056E+02
  rms(prec ) = 0.11626E+02
  weight for this iteration     100.00

 eigenvalues of (default mixing * dielectric matrix)
  average eigenvalue GAMMA=   0.1783
  0.1783  0.1783

 Free energy of the ion-electron system (eV)
  ---------------------------------------------------
  alpha Z        PSCENC =       297.24529368
  Ewald energy   TEWEN  =     -5548.32500339
  -Hartree energ DENC   =     -2694.19260889
  -exchange      EXHF   =         0.00000000
  -V(xc)+E(xc)   XCENC  =       383.06876232
  PAW double counting   =      7882.22366283    -8154.96867851
  entropy T*S    EENTRO =        -0.00777806
  eigenvalues    EBANDS =      -475.02459817
  atomic energy  EATOM  =      8155.45276952
  Solvation  Ediel_sol  =         0.00000000
  ---------------------------------------------------
  free energy    TOTEN  =      -154.52817867 eV

  energy without entropy =     -154.52040061  energy(sigma->0) =     -154.52428964


--------------------------------------------------------------------------------------------------------




--------------------------------------- Iteration      1(   8)  ---------------------------------------


    POTLOK:  cpu time    0.0357: real time    0.0358
    SETDIJ:  cpu time    0.0059: real time    0.0059
     EDDAV:  cpu time   12.8162: real time   12.8513
    CHARGE:  cpu time    0.3722: real time    0.3731
    MIXING:  cpu time    0.0014: real time    0.0065
    --------------------------------------------
      LOOP:  cpu time   13.2314: real time   13.2726

 eigenvalue-minimisations  : 24688
 total energy-change (2. order) :-0.1207304E+02  (-0.1415361E+02)
 number of electron      93.9999978 magnetization       9.3979683
 augmentation part       31.3925412 magnetization       8.6750766

 Broyden mixing:
  rms(total) = 0.11197E+02    rms(broyden)= 0.11197E+02
  rms(prec ) = 0.14374E+02
  weight for this iteration     100.00

 eigenvalues of (default mixing * dielectric matrix)
  average eigenvalue GAMMA=   0.2147
  0.2744  0.2744  0.0953

 Free energy of the ion-electron system (eV)
  ---------------------------------------------------
  alpha Z        PSCENC =       297.24529368
  Ewald energy   TEWEN  =     -5548.32500339
  -Hartree energ DENC   =     -2724.08010057
  -exchange      EXHF   =         0.00000000
  -V(xc)+E(xc)   XCENC  =       382.13214408
  PAW double counting   =      7803.25084538    -8090.67950473
  entropy T*S    EENTRO =        -0.00908016
  eigenvalues    EBANDS =      -441.58858445
  atomic energy  EATOM  =      8155.45276952
  Solvation  Ediel_sol  =         0.00000000
  ---------------------------------------------------
  free energy    TOTEN  =      -166.60122065 eV

  energy without entropy =     -166.59214048  energy(sigma->0) =     -166.59668057


--------------------------------------------------------------------------------------------------------




--------------------------------------- Iteration      1(   9)  ---------------------------------------


    POTLOK:  cpu time    0.0350: real time    0.0351
    SETDIJ:  cpu time    0.0054: real time    0.0054
     EDDAV:  cpu time   15.2111: real time   15.2523
    CHARGE:  cpu time    0.3831: real time    0.3973
    MIXING:  cpu time    0.0012: real time    0.0012
    --------------------------------------------
      LOOP:  cpu time   15.6358: real time   15.6913

 eigenvalue-minimisations  : 30096
 total energy-change (2. order) : 0.5073189E+02  (-0.5968209E+01)
 number of electron      93.9999973 magnetization       8.6385408
 augmentation part       32.3525731 magnetization       8.2317355

 Broyden mixing:
  rms(total) = 0.69344E+01    rms(broyden)= 0.69342E+01
  rms(prec ) = 0.78919E+01
  weight for this iteration     100.00

 eigenvalues of (default mixing * dielectric matrix)
  average eigenvalue GAMMA=   0.3776
  0.5712  0.5712  0.2647  0.1034

 Free energy of the ion-electron system (eV)
  ---------------------------------------------------
  alpha Z        PSCENC =       297.24529368
  Ewald energy   TEWEN  =     -5548.32500339
  -Hartree energ DENC   =     -2719.40708306
  -exchange      EXHF   =         0.00000000
  -V(xc)+E(xc)   XCENC  =       381.49550502
  PAW double counting   =      7407.52543139    -7698.96666780
  entropy T*S    EENTRO =        -0.00616964
  eigenvalues    EBANDS =      -390.88340537
  atomic energy  EATOM  =      8155.45276952
  Solvation  Ediel_sol  =         0.00000000
  ---------------------------------------------------
  free energy    TOTEN  =      -115.86932963 eV

  energy without entropy =     -115.86315999  energy(sigma->0) =     -115.86624481


--------------------------------------------------------------------------------------------------------




--------------------------------------- Iteration      1(  10)  ---------------------------------------


    POTLOK:  cpu time    0.0369: real time    0.0370
    SETDIJ:  cpu time    0.0064: real time    0.0064
     EDDAV:  cpu time   14.0207: real time   14.0580
    CHARGE:  cpu time    0.3895: real time    0.3904
    MIXING:  cpu time    0.0012: real time    0.0012
    --------------------------------------------
      LOOP:  cpu time   14.4546: real time   14.4930

 eigenvalue-minimisations  : 27456
 total energy-change (2. order) : 0.2055628E+00  (-0.1449636E+02)
 number of electron      93.9999979 magnetization       8.1427732
 augmentation part       34.0650702 magnetization       6.3842007

 Broyden mixing:
  rms(total) = 0.78266E+01    rms(broyden)= 0.78262E+01
  rms(prec ) = 0.91358E+01
  weight for this iteration     100.00

 eigenvalues of (default mixing * dielectric matrix)
  average eigenvalue GAMMA=   0.3650
  0.6131  0.6131  0.3118  0.1850  0.1018

 Free energy of the ion-electron system (eV)
  ---------------------------------------------------
  alpha Z        PSCENC =       297.24529368
  Ewald energy   TEWEN  =     -5548.32500339
  -Hartree energ DENC   =     -2706.65925230
  -exchange      EXHF   =         0.00000000
  -V(xc)+E(xc)   XCENC  =       381.63541629
  PAW double counting   =      7350.90082041    -7647.13038001
  entropy T*S    EENTRO =        -0.01677012
  eigenvalues    EBANDS =      -398.76666097
  atomic energy  EATOM  =      8155.45276952
  Solvation  Ediel_sol  =         0.00000000
  ---------------------------------------------------
  free energy    TOTEN  =      -115.66376688 eV

  energy without entropy =     -115.64699676  energy(sigma->0) =     -115.65538182


--------------------------------------------------------------------------------------------------------




--------------------------------------- Iteration      1(  11)  ---------------------------------------


    POTLOK:  cpu time    0.0327: real time    0.0327
    SETDIJ:  cpu time    0.0055: real time    0.0055
     EDDAV:  cpu time   14.7424: real time   14.7846
    CHARGE:  cpu time    0.3933: real time    0.3942
    MIXING:  cpu time    0.0013: real time    0.0013
    --------------------------------------------
      LOOP:  cpu time   15.1751: real time   15.2184

 eigenvalue-minimisations  : 28784
 total energy-change (2. order) : 0.8129534E+00  (-0.1894956E+02)
 number of electron      93.9999977 magnetization       7.4744688
 augmentation part       29.5760060 magnetization       6.6416297

 Broyden mixing:
  rms(total) = 0.85295E+01    rms(broyden)= 0.85292E+01
  rms(prec ) = 0.10591E+02
  weight for this iteration     100.00

 eigenvalues of (default mixing * dielectric matrix)
  average eigenvalue GAMMA=   0.3749
  0.6311  0.6311  0.3672  0.2574  0.2574  0.1051

 Free energy of the ion-electron system (eV)
  ---------------------------------------------------
  alpha Z        PSCENC =       297.24529368
  Ewald energy   TEWEN  =     -5548.32500339
  -Hartree energ DENC   =     -2744.29450946
  -exchange      EXHF   =         0.00000000
  -V(xc)+E(xc)   XCENC  =       381.69780627
  PAW double counting   =      7554.60992804    -7868.18097594
  entropy T*S    EENTRO =        -0.01159595
  eigenvalues    EBANDS =      -343.04452621
  atomic energy  EATOM  =      8155.45276952
  Solvation  Ediel_sol  =         0.00000000
  ---------------------------------------------------
  free energy    TOTEN  =      -114.85081343 eV

  energy without entropy =     -114.83921748  energy(sigma->0) =     -114.84501546


--------------------------------------------------------------------------------------------------------




--------------------------------------- Iteration      1(  12)  ---------------------------------------


    POTLOK:  cpu time    0.0342: real time    0.0343
    SETDIJ:  cpu time    0.0055: real time    0.0055
     EDDAV:  cpu time   14.9928: real time   15.0282
    CHARGE:  cpu time    0.4094: real time    0.4245
    MIXING:  cpu time    0.0013: real time    0.0014
    --------------------------------------------
      LOOP:  cpu time   15.4432: real time   15.4939

 eigenvalue-minimisations  : 28752
 total energy-change (2. order) : 0.6297840E+01  (-0.3577838E+01)
 number of electron      93.9999981 magnetization       6.9869875
 augmentation part       30.6671354 magnetization       5.7460817

 Broyden mixing:
  rms(total) = 0.77364E+01    rms(broyden)= 0.77361E+01
  rms(prec ) = 0.10103E+02
  weight for this iteration     100.00

 eigenvalues of (default mixing * dielectric matrix)
  average eigenvalue GAMMA=   0.3496
  0.7943  0.4300  0.4300  0.2967  0.2967  0.1022  0.0970

 Free energy of the ion-electron system (eV)
  ---------------------------------------------------
  alpha Z        PSCENC =       297.24529368
  Ewald energy   TEWEN  =     -5548.32500339
  -Hartree energ DENC   =     -2730.96128470
  -exchange      EXHF   =         0.00000000
  -V(xc)+E(xc)   XCENC  =       382.15363358
  PAW double counting   =      7672.94711146    -7988.53606029
  entropy T*S    EENTRO =        -0.00964604
  eigenvalues    EBANDS =      -348.51978749
  atomic energy  EATOM  =      8155.45276952
  Solvation  Ediel_sol  =         0.00000000
  ---------------------------------------------------
  free energy    TOTEN  =      -108.55297367 eV

  energy without entropy =     -108.54332762  energy(sigma->0) =     -108.54815065


--------------------------------------------------------------------------------------------------------




--------------------------------------- Iteration      1(  13)  ---------------------------------------


    POTLOK:  cpu time    0.0337: real time    0.0338
    SETDIJ:  cpu time    0.0060: real time    0.0060
     EDDAV:  cpu time   14.9231: real time   14.9640
    CHARGE:  cpu time    0.5000: real time    0.5012
    MIXING:  cpu time    0.0017: real time    0.0017
    --------------------------------------------
      LOOP:  cpu time   15.4645: real time   15.5066

 eigenvalue-minimisations  : 26208
 total energy-change (2. order) : 0.2319157E+02  (-0.1283570E+01)
 number of electron      93.9999978 magnetization       6.7426357
 augmentation part       32.5102454 magnetization       4.6405862

 Broyden mixing:
  rms(total) = 0.43216E+01    rms(broyden)= 0.43214E+01
  rms(prec ) = 0.59445E+01
  weight for this iteration     100.00

 eigenvalues of (default mixing * dielectric matrix)
  average eigenvalue GAMMA=   0.4125
  1.1352  0.5886  0.4529  0.4529  0.2115  0.2115  0.1058  0.1418

 Free energy of the ion-electron system (eV)
  ---------------------------------------------------
  alpha Z        PSCENC =       297.24529368
  Ewald energy   TEWEN  =     -5548.32500339
  -Hartree energ DENC   =     -2726.89287695
  -exchange      EXHF   =         0.00000000
  -V(xc)+E(xc)   XCENC  =       383.43998217
  PAW double counting   =      7814.17160073    -8133.09700256
  entropy T*S    EENTRO =        -0.02265996
  eigenvalues    EBANDS =      -327.33350457
  atomic energy  EATOM  =      8155.45276952
  Solvation  Ediel_sol  =         0.00000000
  ---------------------------------------------------
  free energy    TOTEN  =       -85.36140134 eV

  energy without entropy =      -85.33874138  energy(sigma->0) =      -85.35007136


--------------------------------------------------------------------------------------------------------




--------------------------------------- Iteration      1(  14)  ---------------------------------------


    POTLOK:  cpu time    0.0405: real time    0.0406
    SETDIJ:  cpu time    0.0066: real time    0.0067
     EDDAV:  cpu time   17.2531: real time   17.2941
    CHARGE:  cpu time    0.4664: real time    0.4675
    MIXING:  cpu time    0.0018: real time    0.0018
    --------------------------------------------
      LOOP:  cpu time   17.7684: real time   17.8106

 eigenvalue-minimisations  : 27232
 total energy-change (2. order) : 0.5080361E+01  (-0.1985992E+01)
 number of electron      93.9999972 magnetization       6.6005377
 augmentation part       31.2817807 magnetization       5.5672215

 Broyden mixing:
  rms(total) = 0.24076E+01    rms(broyden)= 0.24072E+01
  rms(prec ) = 0.27639E+01
  weight for this iteration     100.00

 eigenvalues of (default mixing * dielectric matrix)
  average eigenvalue GAMMA=   0.3944
  0.8633  0.8633  0.4757  0.4757  0.2071  0.2071  0.2113  0.1059  0.1400

 Free energy of the ion-electron system (eV)
  ---------------------------------------------------
  alpha Z        PSCENC =       297.24529368
  Ewald energy   TEWEN  =     -5548.32500339
  -Hartree energ DENC   =     -2739.29011185
  -exchange      EXHF   =         0.00000000
  -V(xc)+E(xc)   XCENC  =       382.08129714
  PAW double counting   =      7878.94420295    -8201.37260519
  entropy T*S    EENTRO =        -0.00857677
  eigenvalues    EBANDS =      -305.00830689
  atomic energy  EATOM  =      8155.45276952
  Solvation  Ediel_sol  =         0.00000000
  ---------------------------------------------------
  free energy    TOTEN  =       -80.28104079 eV

  energy without entropy =      -80.27246402  energy(sigma->0) =      -80.27675241


--------------------------------------------------------------------------------------------------------




--------------------------------------- Iteration      1(  15)  ---------------------------------------


    POTLOK:  cpu time    0.0408: real time    0.0409
    SETDIJ:  cpu time    0.0071: real time    0.0071
     EDDAV:  cpu time   15.6653: real time   15.7024
    CHARGE:  cpu time    0.4863: real time    0.4874
    MIXING:  cpu time    0.0018: real time    0.0018
    --------------------------------------------
      LOOP:  cpu time   16.2013: real time   16.2396

 eigenvalue-minimisations  : 23568
 total energy-change (2. order) : 0.3252833E+00  (-0.1186684E+00)
 number of electron      93.9999972 magnetization       6.4475558
 augmentation part       31.3685927 magnetization       5.3901455

 Broyden mixing:
  rms(total) = 0.22491E+01    rms(broyden)= 0.22491E+01
  rms(prec ) = 0.25093E+01
  weight for this iteration     100.00

 eigenvalues of (default mixing * dielectric matrix)
  average eigenvalue GAMMA=   0.4144
  1.0655  0.6338  0.5280  0.5280  0.3511  0.3511  0.2178  0.2178  0.1058  0.1452

 Free energy of the ion-electron system (eV)
  ---------------------------------------------------
  alpha Z        PSCENC =       297.24529368
  Ewald energy   TEWEN  =     -5548.32500339
  -Hartree energ DENC   =     -2738.79748189
  -exchange      EXHF   =         0.00000000
  -V(xc)+E(xc)   XCENC  =       382.07211469
  PAW double counting   =      7908.23213588    -8231.00077407
  entropy T*S    EENTRO =        -0.00935277
  eigenvalues    EBANDS =      -304.82545913
  atomic energy  EATOM  =      8155.45276952
  Solvation  Ediel_sol  =         0.00000000
  ---------------------------------------------------
  free energy    TOTEN  =       -79.95575747 eV

  energy without entropy =      -79.94640471  energy(sigma->0) =      -79.95108109


--------------------------------------------------------------------------------------------------------




--------------------------------------- Iteration      1(  16)  ---------------------------------------


    POTLOK:  cpu time    0.0397: real time    0.0398
    SETDIJ:  cpu time    0.0064: real time    0.0065
     EDDAV:  cpu time   15.7725: real time   15.8134
    CHARGE:  cpu time    0.4560: real time    0.4571
    MIXING:  cpu time    0.0050: real time    0.0521
    --------------------------------------------
      LOOP:  cpu time   16.2797: real time   16.3689

 eigenvalue-minimisations  : 23888
 total energy-change (2. order) :-0.1670339E+00  (-0.3173547E-01)
 number of electron      93.9999972 magnetization       5.7214819
 augmentation part       31.2336588 magnetization       4.7046582

 Broyden mixing:
  rms(total) = 0.20635E+01    rms(broyden)= 0.20635E+01
  rms(prec ) = 0.23139E+01
  weight for this iteration     100.00

 eigenvalues of (default mixing * dielectric matrix)
  average eigenvalue GAMMA=   0.5227
  1.0426  1.0426  1.1265  0.4535  0.4535  0.5461  0.3898  0.2224  0.2224  0.1058
  0.1441

 Free energy of the ion-electron system (eV)
  ---------------------------------------------------
  alpha Z        PSCENC =       297.24529368
  Ewald energy   TEWEN  =     -5548.32500339
  -Hartree energ DENC   =     -2742.59136810
  -exchange      EXHF   =         0.00000000
  -V(xc)+E(xc)   XCENC  =       382.46307654
  PAW double counting   =      7944.34009721    -8267.68656601
  entropy T*S    EENTRO =        -0.00673229
  eigenvalues    EBANDS =      -301.01435855
  atomic energy  EATOM  =      8155.45276952
  Solvation  Ediel_sol  =         0.00000000
  ---------------------------------------------------
  free energy    TOTEN  =       -80.12279138 eV

  energy without entropy =      -80.11605909  energy(sigma->0) =      -80.11942524


--------------------------------------------------------------------------------------------------------




--------------------------------------- Iteration      1(  17)  ---------------------------------------


    POTLOK:  cpu time    0.0535: real time    0.0536
    SETDIJ:  cpu time    0.0064: real time    0.0064
     EDDAV:  cpu time   15.3410: real time   15.3773
    CHARGE:  cpu time    0.4300: real time    0.4311
    MIXING:  cpu time    0.0028: real time    0.0128
    --------------------------------------------
      LOOP:  cpu time   15.8337: real time   15.8812

 eigenvalue-minimisations  : 23552
 total energy-change (2. order) : 0.1438640E+01  (-0.1911180E+00)
 number of electron      93.9999972 magnetization       5.2759546
 augmentation part       31.2602839 magnetization       4.2993973

 Broyden mixing:
  rms(total) = 0.16265E+01    rms(broyden)= 0.16264E+01
  rms(prec ) = 0.18327E+01
  weight for this iteration     100.00

 eigenvalues of (default mixing * dielectric matrix)
  average eigenvalue GAMMA=   0.5437
  1.1440  1.1440  1.0487  0.6821  0.4724  0.4724  0.4329  0.4329  0.2225  0.2225
  0.1058  0.1441

 Free energy of the ion-electron system (eV)
  ---------------------------------------------------
  alpha Z        PSCENC =       297.24529368
  Ewald energy   TEWEN  =     -5548.32500339
  -Hartree energ DENC   =     -2746.77796951
  -exchange      EXHF   =         0.00000000
  -V(xc)+E(xc)   XCENC  =       384.05510852
  PAW double counting   =      8167.94486499    -8491.93684274
  entropy T*S    EENTRO =        -0.00007024
  eigenvalues    EBANDS =      -296.34230206
  atomic energy  EATOM  =      8155.45276952
  Solvation  Ediel_sol  =         0.00000000
  ---------------------------------------------------
  free energy    TOTEN  =       -78.68415122 eV

  energy without entropy =      -78.68408098  energy(sigma->0) =      -78.68411610


--------------------------------------------------------------------------------------------------------




--------------------------------------- Iteration      1(  18)  ---------------------------------------


    POTLOK:  cpu time    0.0411: real time    0.0412
    SETDIJ:  cpu time    0.0064: real time    0.0064
     EDDAV:  cpu time   15.9075: real time   15.9452
    CHARGE:  cpu time    0.4239: real time    0.4249
    MIXING:  cpu time    0.0019: real time    0.0019
    --------------------------------------------
      LOOP:  cpu time   16.3809: real time   16.4196

 eigenvalue-minimisations  : 25152
 total energy-change (2. order) :-0.2852927E+00  (-0.2309304E-01)
 number of electron      93.9999972 magnetization       3.9567241
 augmentation part       31.2690618 magnetization       2.9822970

 Broyden mixing:
  rms(total) = 0.14646E+01    rms(broyden)= 0.14646E+01
  rms(prec ) = 0.16934E+01
  weight for this iteration     100.00

 eigenvalues of (default mixing * dielectric matrix)
  average eigenvalue GAMMA=   0.6189
  1.3862  1.3862  1.0089  1.0089  0.6983  0.4680  0.4680  0.4636  0.4636  0.2222
  0.2222  0.1058  0.1441

 Free energy of the ion-electron system (eV)
  ---------------------------------------------------
  alpha Z        PSCENC =       297.24529368
  Ewald energy   TEWEN  =     -5548.32500339
  -Hartree energ DENC   =     -2748.78802605
  -exchange      EXHF   =         0.00000000
  -V(xc)+E(xc)   XCENC  =       383.97443745
  PAW double counting   =      8335.82082146    -8660.66894645
  entropy T*S    EENTRO =        -0.00000000
  eigenvalues    EBANDS =      -293.68079017
  atomic energy  EATOM  =      8155.45276952
  Solvation  Ediel_sol  =         0.00000000
  ---------------------------------------------------
  free energy    TOTEN  =       -78.96944396 eV

  energy without entropy =      -78.96944396  energy(sigma->0) =      -78.96944396


--------------------------------------------------------------------------------------------------------




--------------------------------------- Iteration      1(  19)  ---------------------------------------


    POTLOK:  cpu time    0.0387: real time    0.0388
    SETDIJ:  cpu time    0.0063: real time    0.0063
     EDDAV:  cpu time   16.6537: real time   16.6931
    CHARGE:  cpu time    0.5409: real time    0.5421
    MIXING:  cpu time    0.0023: real time    0.0023
    --------------------------------------------
      LOOP:  cpu time   17.2418: real time   17.2826

 eigenvalue-minimisations  : 25296
 total energy-change (2. order) :-0.5197165E+01  (-0.2002922E+00)
 number of electron      93.9999971 magnetization       4.0547341
 augmentation part       31.1555710 magnetization       3.7101505

 Broyden mixing:
  rms(total) = 0.28969E+01    rms(broyden)= 0.28966E+01
  rms(prec ) = 0.38794E+01
  weight for this iteration     100.00

 eigenvalues of (default mixing * dielectric matrix)
  average eigenvalue GAMMA=   0.5949
  1.1985  1.1985  1.1719  1.1719  0.4679  0.4679  0.5866  0.5866  0.3918  0.3918
  0.2222  0.2222  0.1058  0.1441

 Free energy of the ion-electron system (eV)
  ---------------------------------------------------
  alpha Z        PSCENC =       297.24529368
  Ewald energy   TEWEN  =     -5548.32500339
  -Hartree energ DENC   =     -2749.22860209
  -exchange      EXHF   =         0.00000000
  -V(xc)+E(xc)   XCENC  =       381.58048575
  PAW double counting   =      8912.10045036    -9237.96859963
  entropy T*S    EENTRO =        -0.00783757
  eigenvalues    EBANDS =      -295.01556538
  atomic energy  EATOM  =      8155.45276952
  Solvation  Ediel_sol  =         0.00000000
  ---------------------------------------------------
  free energy    TOTEN  =       -84.16660874 eV

  energy without entropy =      -84.15877117  energy(sigma->0) =      -84.16268996


--------------------------------------------------------------------------------------------------------




--------------------------------------- Iteration      1(  20)  ---------------------------------------


    POTLOK:  cpu time    0.0434: real time    0.0435
    SETDIJ:  cpu time    0.0086: real time    0.0086
     EDDAV:  cpu time   16.7125: real time   16.7522
    CHARGE:  cpu time    0.4617: real time    0.4628
    MIXING:  cpu time    0.0026: real time    0.0026
    --------------------------------------------
      LOOP:  cpu time   17.2288: real time   17.2698

 eigenvalue-minimisations  : 24272
 total energy-change (2. order) : 0.1529961E+01  (-0.1664640E+00)
 number of electron      93.9999971 magnetization       4.1071826
 augmentation part       31.1478653 magnetization       3.6809476

 Broyden mixing:
  rms(total) = 0.22763E+01    rms(broyden)= 0.22763E+01
  rms(prec ) = 0.28842E+01
  weight for this iteration     100.00

 eigenvalues of (default mixing * dielectric matrix)
  average eigenvalue GAMMA=   0.5706
  1.2662  1.2662  1.1075  1.1075  0.6223  0.6223  0.4663  0.4663  0.3990  0.3990
  0.2222  0.2222  0.1058  0.1441  0.1417

 Free energy of the ion-electron system (eV)
  ---------------------------------------------------
  alpha Z        PSCENC =       297.24529368
  Ewald energy   TEWEN  =     -5548.32500339
  -Hartree energ DENC   =     -2749.69497586
  -exchange      EXHF   =         0.00000000
  -V(xc)+E(xc)   XCENC  =       381.61883204
  PAW double counting   =      8785.29127596    -9111.52459127
  entropy T*S    EENTRO =        -0.00837669
  eigenvalues    EBANDS =      -292.69187203
  atomic energy  EATOM  =      8155.45276952
  Solvation  Ediel_sol  =         0.00000000
  ---------------------------------------------------
  free energy    TOTEN  =       -82.63664804 eV

  energy without entropy =      -82.62827136  energy(sigma->0) =      -82.63245970


--------------------------------------------------------------------------------------------------------




--------------------------------------- Iteration      1(  21)  ---------------------------------------


    POTLOK:  cpu time    0.0449: real time    0.0450
    SETDIJ:  cpu time    0.0063: real time    0.0063
     EDDAV:  cpu time   16.4577: real time   16.4967
    CHARGE:  cpu time    0.4528: real time    0.4539
    MIXING:  cpu time    0.0035: real time    0.0203
    --------------------------------------------
      LOOP:  cpu time   16.9651: real time   17.0222

 eigenvalue-minimisations  : 25424
 total energy-change (2. order) :-0.1935261E+00  (-0.8600268E-02)
 number of electron      93.9999971 magnetization       4.1328781
 augmentation part       31.1183315 magnetization       3.6318234

 Broyden mixing:
  rms(total) = 0.21483E+01    rms(broyden)= 0.21483E+01
  rms(prec ) = 0.27428E+01
  weight for this iteration     100.00

 eigenvalues of (default mixing * dielectric matrix)
  average eigenvalue GAMMA=   0.5637
  1.2606  1.2606  0.9903  0.8713  0.8713  0.6856  0.4617  0.4617  0.4174  0.4174
  0.2222  0.2222  0.1058  0.1441  0.3134  0.3134

 Free energy of the ion-electron system (eV)
  ---------------------------------------------------
  alpha Z        PSCENC =       297.24529368
  Ewald energy   TEWEN  =     -5548.32500339
  -Hartree energ DENC   =     -2749.80759248
  -exchange      EXHF   =         0.00000000
  -V(xc)+E(xc)   XCENC  =       381.45002261
  PAW double counting   =      8746.94921997    -9073.15844073
  entropy T*S    EENTRO =        -0.00800949
  eigenvalues    EBANDS =      -292.62843386
  atomic energy  EATOM  =      8155.45276952
  Solvation  Ediel_sol  =         0.00000000
  ---------------------------------------------------
  free energy    TOTEN  =       -82.83017417 eV

[...]
      9     -13.3934      1.00000
     10     -13.2128      1.00000
     11      -2.5329      1.00000
     12      -2.5075      1.00000
     13      -2.2565      1.00000
     14      -2.1581      1.00000
     15      -1.7372      1.00000
     16      -1.5620      1.00000
     17      -1.2314      1.00000
     18      -1.0522      1.00000
     19      -0.7717      1.00000
     20      -0.6597      1.00000
     21      -0.4511      1.00000
     22      -0.2334      1.00000
     23      -0.1260      1.00000
     24       0.1498      1.00000
     25       0.2416      1.00000
     26       0.5148      1.00000
     27       0.5356      1.00000
     28       0.6220      1.00000
     29       0.8283      1.00000
     30       0.8720      1.00000
     31       1.2433      1.00000
     32       1.4846      1.00000
     33       1.5285      1.00000
     34       2.2164      1.00000
     35       2.5903      1.00000
     36       2.6219      1.00000
     37       2.6262      1.00000
     38       2.7544      1.00000
     39       2.7616      1.00000
     40       2.8780      1.00000
     41       3.0264      1.00000
     42       3.2661      1.00000
     43       3.2762      1.00000
     44       3.4209      1.00000
     45       3.4770      1.00000
     46       3.7681      1.00000
     47       5.1769      0.00000
     48       5.2564      0.00000
     49       5.5292      0.00000
     50       5.6002      0.00000
     51       5.6383      0.00000
     52       5.8048      0.00000
     53       5.9016      0.00000
     54       6.0632      0.00000
     55      12.5610      0.00000
     56      13.4183      0.00000
     57      15.3829      0.00000
     58      15.6449      0.00000
     59      15.7027      0.00000
     60      15.9644      0.00000
     61      16.4024      0.00000
     62      16.5920      0.00000
     63      16.6328      0.00000
     64      16.8540      0.00000

 k-point    70 :      -0.3636    0.3636    0.5000
  band No.  band energies     occupation 
      1     -39.2607      1.00000
      2     -39.2607      1.00000
      3     -14.3092      1.00000
      4     -14.3035      1.00000
      5     -14.0681      1.00000
      6     -13.9660      1.00000
      7     -13.5453      1.00000
      8     -13.5199      1.00000
      9     -13.3952      1.00000
     10     -13.1389      1.00000
     11      -2.3583      1.00000
     12      -2.3337      1.00000
     13      -2.0455      1.00000
     14      -2.0052      1.00000
     15      -1.7299      1.00000
     16      -1.5603      1.00000
     17      -1.1174      1.00000
     18      -0.8579      1.00000
     19      -0.7910      1.00000
     20      -0.7481      1.00000
     21      -0.7452      1.00000
     22      -0.4386      1.00000
     23      -0.0766      1.00000
     24      -0.0398      1.00000
     25       0.1065      1.00000
     26       0.4773      1.00000
     27       0.8456      1.00000
     28       0.8680      1.00000
     29       1.0784      1.00000
     30       1.2397      1.00000
     31       1.4399      1.00000
     32       1.6215      1.00000
     33       1.6647      1.00000
     34       2.4017      1.00000
     35       2.7293      1.00000
     36       2.7541      1.00000
     37       2.8231      1.00000
     38       2.8254      1.00000
     39       2.8553      1.00000
     40       2.9129      1.00000
     41       2.9307      1.00000
     42       3.2652      1.00000
     43       3.2799      1.00000
     44       3.4350      1.00000
     45       3.5156      1.00000
     46       3.8207      1.00000
     47       5.0383      0.00000
     48       5.1765      0.00000
     49       5.4438      0.00000
     50       5.7190      0.00000
     51       5.7253      0.00000
     52       5.7495      0.00000
     53       5.9743      0.00000
     54       6.1814      0.00000
     55      12.3428      0.00000
     56      13.2111      0.00000
     57      14.8209      0.00000
     58      15.2202      0.00000
     59      15.2396      0.00000
     60      15.5117      0.00000
     61      16.3800      0.00000
     62      16.5584      0.00000
     63      16.9569      0.00000
     64      17.0735      0.00000

 k-point    71 :       0.4545    0.4545    0.5000
  band No.  band energies     occupation 
      1     -39.2532      1.00000
      2     -39.2532      1.00000
      3     -13.8544      1.00000
      4     -13.8538      1.00000
      5     -13.6331      1.00000
      6     -13.6327      1.00000
      7     -13.5182      1.00000
      8     -13.5173      1.00000
      9     -13.4661      1.00000
     10     -13.3744      1.00000
     11      -2.7660      1.00000
     12      -2.7658      1.00000
     13      -2.5255      1.00000
     14      -2.3893      1.00000
     15      -1.7083      1.00000
     16      -1.4871      1.00000
     17      -1.2076      1.00000
     18      -0.9996      1.00000
     19      -0.7481      1.00000
     20      -0.6021      1.00000
     21      -0.2424      1.00000
     22      -0.1453      1.00000
     23      -0.0178      1.00000
     24       0.0788      1.00000
     25       0.2849      1.00000
     26       0.4574      1.00000
     27       0.5294      1.00000
     28       0.5664      1.00000
     29       0.9107      1.00000
     30       0.9353      1.00000
     31       1.1135      1.00000
     32       1.3826      1.00000
     33       1.4365      1.00000
     34       2.0917      1.00000
     35       2.4881      1.00000
     36       2.5029      1.00000
     37       2.5215      1.00000
     38       2.6656      1.00000
     39       2.6766      1.00000
     40       2.7105      1.00000
     41       2.9752      1.00000
     42       3.1739      1.00000
     43       3.1971      1.00000
     44       3.2796      1.00000
     45       3.4271      1.00000
     46       3.7247      1.00000
     47       5.2957      0.00000
     48       5.3093      0.00000
     49       5.6208      0.00000
     50       5.6212      0.00000
     51       5.6664      0.00000
     52       5.8927      0.00000
     53       5.9093      0.00000
     54       6.0981      0.00000
     55      12.4804      0.00000
     56      13.4404      0.00000
     57      15.6331      0.00000
     58      15.7165      0.00000
     59      16.1470      0.00000
     60      16.1639      0.00000
     61      16.2744      0.00000
     62      16.4877      0.00000
     63      16.5838      0.00000
     64      16.8456      0.00000

 k-point    72 :      -0.4545    0.4545    0.5000
  band No.  band energies     occupation 
      1     -39.2548      1.00000
      2     -39.2548      1.00000
      3     -13.9487      1.00000
      4     -13.9444      1.00000
      5     -13.6590      1.00000
      6     -13.6496      1.00000
      7     -13.6081      1.00000
      8     -13.5839      1.00000
      9     -13.4368      1.00000
     10     -13.3134      1.00000
     11      -2.8084      1.00000
     12      -2.7947      1.00000
     13      -2.5545      1.00000
     14      -2.4328      1.00000
     15      -1.7421      1.00000
     16      -1.4747      1.00000
     17      -1.0637      1.00000
     18      -0.7309      1.00000
     19      -0.7234      1.00000
     20      -0.6981      1.00000
     21      -0.6244      1.00000
     22      -0.2040      1.00000
     23      -0.1141      1.00000
     24       0.0960      1.00000
     25       0.2624      1.00000
     26       0.5303      1.00000
     27       0.9171      1.00000
     28       0.9503      1.00000
     29       1.1503      1.00000
     30       1.2279      1.00000
     31       1.2698      1.00000
     32       1.3598      1.00000
     33       1.4206      1.00000
     34       2.2647      1.00000
     35       2.4681      1.00000
     36       2.5776      1.00000
     37       2.5778      1.00000
     38       2.5819      1.00000
     39       2.6276      1.00000
     40       2.6809      1.00000
     41       2.8275      1.00000
     42       3.0767      1.00000
     43       3.1022      1.00000
     44       3.1657      1.00000
     45       3.4015      1.00000
     46       3.7327      1.00000
     47       5.2510      0.00000
     48       5.3168      0.00000
     49       5.6238      0.00000
     50       5.7585      0.00000
     51       5.7853      0.00000
     52       5.8900      0.00000
     53       6.0188      0.00000
     54       6.2411      0.00000
     55      12.2085      0.00000
     56      13.2470      0.00000
     57      15.2692      0.00000
     58      15.4660      0.00000
     59      15.7601      0.00000
     60      15.9472      0.00000
     61      16.1805      0.00000
     62      16.4918      0.00000
     63      16.7350      0.00000
     64      16.7550      0.00000


--------------------------------------------------------------------------------------------------------


 soft charge-density along one line, spin component           1
         0         1         2         3         4         5         6         7         8         9
 total charge-density along one line
 
 soft charge-density along one line, spin component           2
         0         1         2         3         4         5         6         7         8         9
 total charge-density along one line
 
 pseudopotential strength for first ion, spin component:           1
-37.091   3.823   0.000   0.001  -0.000
  3.823 -10.334   0.000   0.004  -0.000
  0.000   0.000   0.069  -0.000  -0.000
  0.001   0.004  -0.000   0.069   0.000
 -0.000  -0.000  -0.000   0.000   0.069
 pseudopotential strength for first ion, spin component:           2
-37.083   3.829   0.000   0.001  -0.000
  3.829 -10.340   0.000   0.004  -0.000
  0.000   0.000   0.078  -0.000  -0.000
  0.001   0.004  -0.000   0.078   0.000
 -0.000  -0.000  -0.000   0.000   0.078
 total augmentation occupancy for first ion, spin component:           1
  2.004   0.030  -0.000  -0.003  -0.000
  0.030   0.706   0.000   0.008   0.000
 -0.000   0.000   0.027   0.000   0.000
 -0.003   0.008   0.000   0.029   0.000
 -0.000   0.000   0.000   0.000   0.027
 total augmentation occupancy for first ion, spin component:           2
 -0.000  -0.000   0.000   0.000   0.000
 -0.000   0.043   0.000   0.004   0.000
  0.000   0.000   0.002   0.000   0.000
  0.000   0.004   0.000   0.002   0.000
  0.000  -0.000   0.000   0.000   0.002


------------------------ aborting loop because EDIFF is reached ----------------------------------------


    CHARGE:  cpu time    0.3777: real time    0.3786
    FORLOC:  cpu time    0.0041: real time    0.0057
    FORNL :  cpu time    3.2952: real time    3.3065
    STRESS:  cpu time    9.9973: real time   10.0272
    FORCOR:  cpu time    0.0319: real time    0.0320
    FORHAR:  cpu time    0.0064: real time    0.0065
    MIXING:  cpu time    0.0048: real time    0.0048
    OFIELD:  cpu time    0.0000: real time    0.0000

  FORCE on cell =-STRESS in cart. coord.  units (eV):
  Direction    XX          YY          ZZ          XY          YZ          ZX
  --------------------------------------------------------------------------------------
  Alpha Z   297.24529   297.24529   297.24529
  Ewald    -784.25214  -784.25218 -3979.83438    -0.00001    -0.00002     0.00001
  Hartree  1709.46071  1709.46071  -683.47794     0.00001     0.00000    -0.00001
  E(xc)    -477.53011  -477.53012  -478.00095    -0.00001    -0.00000     0.00000
  Local   -2713.59376 -2713.59385  2823.96082    -0.00009    -0.00002     0.00006
  n-local  -228.83763  -232.49974  -238.74182     1.05893    -4.93645    -2.86830
  augment   782.60619   782.60611   797.90316    -0.00007     0.00001    -0.00001
  Kinetic  1419.76170  1413.80536  1460.95091     1.71970     8.41216     4.85869
  Fock        0.00000     0.00000     0.00000     0.00000     0.00000     0.00000
  -------------------------------------------------------------------------------------
  Total        0.0509173      0.0509173      0.0050901      0.0000000      0.0000000      0.0000000
  in kB        0.6375568      0.6375568      0.0637348      0.0000000      0.0000000      0.0000000
  external PRESSURE =       0.4462828 kB  Pullay stress =       0.0000000 kB


 VOLUME and BASIS-vectors are now :
 -----------------------------------------------------------------------------
  energy-cutoff  :      500.00
  volume of cell :      127.95
      direct lattice vectors                 reciprocal lattice vectors
     2.824184320  0.000000000  0.000000000     0.354084538  0.204430802 -0.017994455
    -1.412092160  2.445815380  0.000000000     0.000000000  0.408861604  0.017994453
     1.412092160 -0.815271710 18.524225640     0.000000000  0.000000000  0.053983363

  length of vectors
     2.824184320  2.824184332 18.595849209     0.409257392  0.409257391  0.053983363


 FORCES acting on ions
    electron-ion (+dipol)            ewald-force                    non-local-force                 convergence-correction
 -----------------------------------------------------------------------------------------------
   -.643E-05 0.362E-05 0.548E+02   -.909E-07 0.976E-07 -.544E+02   0.000E+00 -.169E-08 -.375E+00   0.245E-07 -.141E-07 -.167E-02
   0.423E-05 -.235E-05 -.548E+02   0.909E-07 -.976E-07 0.544E+02   0.000E+00 0.169E-08 0.375E+00   -.245E-07 0.141E-07 0.167E-02
   -.103E-05 0.336E-06 -.351E+03   -.462E-05 0.307E-05 0.353E+03   0.191E-16 -.103E-07 -.228E+01   0.243E-07 -.140E-07 0.489E-01
   -.185E-05 0.107E-05 0.278E-05   -.119E-13 0.241E-13 0.000E+00   -.827E-24 -.414E-24 -.794E-22   0.127E-10 -.729E-11 0.187E-10
   -.176E-05 0.127E-05 0.351E+03   0.462E-05 -.307E-05 -.353E+03   -.694E-17 0.103E-07 0.228E+01   -.243E-07 0.141E-07 -.489E-01
   -.935E-06 0.540E-06 0.171E-05   -.171E-13 0.252E-13 -.227E-12   0.000E+00 -.496E-23 0.132E-22   0.147E-11 -.884E-12 -.552E-11
   -.334E-04 0.177E-04 0.318E+03   -.298E-05 0.405E-05 -.344E+03   0.278E-16 0.119E-06 0.265E+02   0.179E-07 -.104E-07 0.342E-01
   -.374E-04 0.201E-04 0.513E+03   -.261E-05 0.386E-05 -.539E+03   0.555E-16 0.117E-06 0.260E+02   0.117E-07 -.672E-08 -.481E-01
   -.275E-04 0.149E-04 0.298E+03   -.216E-05 0.277E-05 -.309E+03   -.833E-16 0.497E-07 0.110E+02   -.113E-07 0.652E-08 -.233E-02
   -.609E-05 0.256E-05 0.107E+03   0.200E-05 0.436E-06 -.120E+03   0.416E-16 0.584E-07 0.130E+02   -.429E-07 0.248E-07 0.842E-02
   0.249E-04 -.134E-04 -.298E+03   0.216E-05 -.277E-05 0.309E+03   0.971E-16 -.497E-07 -.110E+02   0.113E-07 -.651E-08 0.233E-02
   0.345E-04 -.184E-04 -.513E+03   0.261E-05 -.386E-05 0.539E+03   -.278E-16 -.117E-06 -.260E+02   -.117E-07 0.672E-08 0.481E-01
   0.316E-04 -.167E-04 -.318E+03   0.298E-05 -.405E-05 0.344E+03   0.000E+00 -.119E-06 -.265E+02   -.179E-07 0.104E-07 -.342E-01
   0.450E-05 -.165E-05 -.107E+03   -.200E-05 -.436E-06 0.120E+03   -.694E-16 -.584E-07 -.130E+02   0.429E-07 -.248E-07 -.842E-02
 -----------------------------------------------------------------------------------------------
   -.167E-04 0.965E-05 -.518E-04   -.824E-13 0.961E-13 -.327E-12   0.538E-16 0.226E-16 -.178E-14   -.462E-10 0.267E-10 -.104E-09
 
 
 POSITION                                       TOTAL-FORCE (eV/Angst)
 -----------------------------------------------------------------------------------
      0.00000      1.63054     18.52259         0.000000     -0.000000     -0.004014
     -0.00000      1.63054      4.63270        -0.000000      0.000000      0.004014
      2.82418      0.00000      7.00702        -0.000000      0.000000      0.000105
      0.00000      1.63054     11.57764        -0.000000     -0.000000     -0.000000
      1.41209      0.81527     16.14826        -0.000000     -0.000000     -0.000105
      1.41209      0.81527      2.31553        -0.000000     -0.000000     -0.000000
      2.82418      0.00000     10.65912         0.000000     -0.000000     -0.002061
      0.00000      1.63054     15.23817         0.000000     -0.000000     -0.004151
      0.00000      1.63054      1.26047        -0.000000     -0.000000     -0.001167
      1.41209      0.81527      5.96234         0.000000      0.000000      0.011199
      2.82418      0.00000      3.37059         0.000000      0.000000      0.001167
     -0.00000      1.63054      7.91711        -0.000000      0.000000      0.004151
      1.41209      0.81527     12.49616        -0.000000      0.000000      0.002061
      2.82418      0.00000     17.19294        -0.000000     -0.000000     -0.011199
 -----------------------------------------------------------------------------------
    total drift:                               -0.000017      0.000010     -0.000052


--------------------------------------------------------------------------------------------------------



  FREE ENERGIE OF THE ION-ELECTRON SYSTEM (eV)
  ---------------------------------------------------
  free  energy   TOTEN  =       -84.8530911969 eV

  energy  without entropy=      -84.8453748724  energy(sigma->0) =      -84.84923303
 


--------------------------------------------------------------------------------------------------------


    POTLOK:  cpu time    0.0575: real time    0.0669


--------------------------------------------------------------------------------------------------------


     LOOP+:  cpu time 1031.7338: real time 1035.0930
    4ORBIT:  cpu time    0.0000: real time    0.0000

volume of typ            1:    12.2 %

volume of typ            2:    19.9 %

volume of typ            3:    10.2 %
 
total charge     
 
# of ion       s       p       d       tot
------------------------------------------
    1        2.090   0.285   0.111   2.485
    2        2.090   0.285   0.111   2.485
    3        0.283   0.374   7.836   8.493
    4        0.300   0.411   7.810   8.520
    5        0.283   0.374   7.836   8.493
    6        0.258   0.332   7.865   8.456
    7        1.284   2.721   0.008   4.013
    8        1.286   2.717   0.008   4.011
    9        1.256   2.801   0.005   4.063
   10        1.259   2.795   0.005   4.059
   11        1.256   2.801   0.005   4.063
   12        1.286   2.717   0.008   4.011
   13        1.284   2.721   0.008   4.013
   14        1.259   2.795   0.005   4.059
--------------------------------------------------
tot          15.47   24.13   31.62   71.23
 
magnetization (x)
 
# of ion       s       p       d       tot
------------------------------------------
    1        0.006   0.012   0.000   0.019
    2        0.006   0.012   0.000   0.019
    3       -0.000   0.000   0.315   0.315
    4       -0.000   0.000   0.012   0.013
    5       -0.000   0.000   0.315   0.315
    6       -0.000  -0.000   0.793   0.792
    7        0.000   0.001   0.000   0.002
    8        0.006   0.062   0.000   0.068
    9        0.013   0.078   0.000   0.091
   10        0.006   0.029   0.000   0.035
   11        0.013   0.078   0.000   0.091
   12        0.006   0.062   0.000   0.068
   13        0.000   0.001   0.000   0.002
   14        0.006   0.029   0.000   0.035
--------------------------------------------------
tot           0.06    0.36    1.44    1.86
 

 total amount of memory used by VASP MPI-rank0    83300. kBytes
=======================================================================

   base      :      30000. kBytes
   nonlr-proj:       9433. kBytes
   fftplans  :       1691. kBytes
   grid      :      10038. kBytes
   one-center:        435. kBytes
   wavefun   :      31703. kBytes
 
  
  
 General timing and accounting informations for this job:
 ========================================================
  
                  Total CPU time used (sec):     1038.760
                            User time (sec):     1036.680
                          System time (sec):        2.079
                         Elapsed time (sec):     1045.392
  
                   Maximum memory used (kb):      131848.
                   Average memory used (kb):           0.
  
                          Minor page faults:        33715
                          Major page faults:           56
                 Voluntary context switches:         1224
