 vasp.5.4.4.18Apr17-6-g9f103f2a35 (build May 12 2020 04:58:55) complex          
  
 MD_VERSION_INFO: Compiled 2020-05-12T11:58:55-UTC in devlin.sd.materialsdesign.
 com:/home/medea2/data/build/wwolf/vasp-gpu5.4.4/13047/x86_64/src/src/build/std 
 from svn 13047
 
 This VASP executable licensed from Materials Design, Inc.
 
 executed on                        Lin64 date 2023.03.17  12:44:01
 running on   16 total cores
 distrk:  each k-point on   16 cores,    1 groups
 distr:  one band on NCORES_PER_BAND=   1 cores,   16 groups


--------------------------------------------------------------------------------------------------------


 INCAR:
 POTCAR:    PAW_PBE Li_sv 10Sep2004               
 POTCAR:    PAW_PBE Ni 02Aug2007                  
 POTCAR:    PAW_PBE O 08Apr2002                   

 ----------------------------------------------------------------------------- 
|                                                                             |
|           W    W    AA    RRRRR   N    N  II  N    N   GGGG   !!!           |
|           W    W   A  A   R    R  NN   N  II  NN   N  G    G  !!!           |
|           W    W  A    A  R    R  N N  N  II  N N  N  G       !!!           |
|           W WW W  AAAAAA  RRRRR   N  N N  II  N  N N  G  GGG   !            |
|           WW  WW  A    A  R   R   N   NN  II  N   NN  G    G                |
|           W    W  A    A  R    R  N    N  II  N    N   GGGG   !!!           |
|                                                                             |
|      For optimal performance we recommend to set                            |
|        NCORE= 4 - approx SQRT( number of cores)                             |
|      NCORE specifies how many cores store one orbital (NPAR=cpu/NCORE).     |
|      This setting can  greatly improve the performance of VASP for DFT.     |
|      The default,   NCORE=1            might be grossly inefficient         |
|      on modern multi-core architectures or massively parallel machines.     |
|      Do your own testing !!!!                                               |
|      Unfortunately you need to use the default for GW and RPA calculations. |
|      (for HF NCORE is supported but not extensively tested yet)             |
|                                                                             |
 ----------------------------------------------------------------------------- 

 POTCAR:    PAW_PBE Li_sv 10Sep2004               
  local pseudopotential read in
  atomic valenz-charges read in
  non local Contribution for L=           0  read in
    real space projection operators read in
  non local Contribution for L=           0  read in
    real space projection operators read in
  non local Contribution for L=           1  read in
    real space projection operators read in
    PAW grid and wavefunctions read in
 
   number of l-projection  operators is LMAX  =           3
   number of lm-projection operators is LMMAX =           5
 
 POTCAR:    PAW_PBE Ni 02Aug2007                  
  local pseudopotential read in
  partial core-charges read in
  partial kinetic energy density read in
  atomic valenz-charges read in
  non local Contribution for L=           2  read in
    real space projection operators read in
  non local Contribution for L=           2  read in
    real space projection operators read in
  non local Contribution for L=           0  read in
    real space projection operators read in
  non local Contribution for L=           0  read in
    real space projection operators read in
  non local Contribution for L=           1  read in
    real space projection operators read in
  non local Contribution for L=           1  read in
    real space projection operators read in
    PAW grid and wavefunctions read in
 
   number of l-projection  operators is LMAX  =           6
   number of lm-projection operators is LMMAX =          18
 
 POTCAR:    PAW_PBE O 08Apr2002                   
  local pseudopotential read in
  partial core-charges read in
  partial kinetic energy density read in
  kinetic energy density of atom read in
  atomic valenz-charges read in
  non local Contribution for L=           0  read in
    real space projection operators read in
  non local Contribution for L=           0  read in
    real space projection operators read in
  non local Contribution for L=           1  read in
    real space projection operators read in
  non local Contribution for L=           1  read in
    real space projection operators read in
    PAW grid and wavefunctions read in
 
   number of l-projection  operators is LMAX  =           4
   number of lm-projection operators is LMMAX =           8
 
 Optimization of the real space projectors (new method)

 maximal supplied QI-value         = 22.11
 optimisation between [QCUT,QGAM] = [ 11.28, 22.77] = [ 35.61,145.23] Ry 
 Optimized for a Real-space Cutoff    1.10 Angstroem

   l    n(q)    QCUT    max X(q) W(low)/X(q) W(high)/X(q)  e(spline) 
   0      7    11.276    10.506    0.54E-04    0.58E-04    0.16E-07
   0      7    11.276     8.367    0.11E-03    0.14E-03    0.35E-07
   1      7    11.276     8.983    0.23E-03    0.43E-03    0.86E-07
 Optimization of the real space projectors (new method)

 maximal supplied QI-value         = 16.25
 optimisation between [QCUT,QGAM] = [ 11.38, 22.75] = [ 36.24,144.96] Ry 
 Optimized for a Real-space Cutoff    1.47 Angstroem

   l    n(q)    QCUT    max X(q) W(low)/X(q) W(high)/X(q)  e(spline) 
   2      9    11.376    60.317    0.17E-03    0.16E-04    0.16E-06
   2      9    11.376    55.921    0.17E-03    0.16E-04    0.17E-06
   0     10    11.376    51.690    0.45E-04    0.60E-04    0.21E-06
   0     10    11.376    30.015    0.37E-04    0.55E-04    0.19E-06
   1     10    11.376    18.849    0.83E-04    0.11E-03    0.92E-07
   1     10    11.376    14.624    0.69E-04    0.92E-04    0.82E-07
 Optimization of the real space projectors (new method)

 maximal supplied QI-value         = 24.76
 optimisation between [QCUT,QGAM] = [ 11.39, 22.77] = [ 36.31,145.25] Ry 
 Optimized for a Real-space Cutoff    1.10 Angstroem

   l    n(q)    QCUT    max X(q) W(low)/X(q) W(high)/X(q)  e(spline) 
   0      7    11.387    20.381    0.22E-03    0.48E-03    0.18E-06
   0      7    11.387    15.268    0.22E-03    0.52E-03    0.19E-06
   1      7    11.387     5.964    0.22E-03    0.73E-03    0.24E-06
   1      7    11.387     5.382    0.19E-03    0.60E-03    0.21E-06

 ----------------------------------------------------------------------------- 
|                                                                             |
|  ADVICE TO THIS USER RUNNING 'VASP/VAMP'   (HEAR YOUR MASTER'S VOICE ...):  |
|                                                                             |
|      You enforced a specific xc-type in the INCAR file,                     |
|      a different type was found on the POTCAR file                          |
|          I HOPE YOU KNOW, WHAT YOU ARE  DOING                               |
|                                                                             |
 ----------------------------------------------------------------------------- 

  PAW_PBE Li_sv 10Sep2004               :
 energy of atom  1       EATOM= -202.7858
 kinetic energy error for atom=    0.0143 (will be added to EATOM!!)
  PAW_PBE Ni 02Aug2007                  :
 energy of atom  2       EATOM=-1077.6739
 kinetic energy error for atom=    0.0030 (will be added to EATOM!!)
  PAW_PBE O 08Apr2002                   :
 energy of atom  3       EATOM= -432.3788
 kinetic energy error for atom=    0.0224 (will be added to EATOM!!)
 
 
 POSCAR: ce219565_1                              
  positions in direct lattice
  No initial velocities read in
 exchange correlation table for  LEXCH =       14
   RHO(1)=    0.500       N(1)  =     2000
   RHO(2)=  100.500       N(2)  =     4000
 


--------------------------------------------------------------------------------------------------------


 ion  position               nearest neighbor table
   1  0.982  0.501  0.982-  94 1.95  93 1.98  81 2.12  58 2.19  45 2.24  41 2.80  40 2.82
   2  0.108  0.833  0.223-  47 2.04  60 2.09  42 2.11  59 2.12  65 2.16  66 2.17
   3  0.206  0.165  0.117-  43 1.98  44 2.02  50 2.11  67 2.15  80 2.20  16 2.82  15 2.84  27 2.84

   4  0.336  0.501  0.999-  46 2.05  87 2.09  51 2.11  52 2.13  82 2.16  81 2.17
   5  0.467  0.833  0.244-  72 1.99  71 2.00  66 2.13  53 2.16  48 2.21  30 2.79  29 2.80
   6  0.555  0.165  0.106-  73 2.08  86 2.10  56 2.15  49 2.16  55 2.17  50 2.17
   7  0.993  0.499  0.334-  63 2.08  76 2.10  58 2.11  57 2.13  45 2.19  64 2.20
   8  0.094  0.832  0.565-  77 1.99  78 2.02  83 2.12  84 2.13  60 2.16  33 2.79  32 2.80
   9  0.664  0.501  0.367-  75 1.98  70 1.99  76 2.05  51 2.06  29 2.76  31 2.76
  10  0.907  0.168  0.471-  62 2.00  79 2.04  61 2.07  74 2.14  25 2.80  33 2.83
  11  0.348  0.501  0.656-  88 2.00  69 2.02  64 2.11  63 2.16  87 2.18  28 2.80  38 2.80
  12  0.448  0.833  0.889-  89 2.10  53 2.12  84 2.14  48 2.14  54 2.14  83 2.18
  13  0.558  0.166  0.753-  68 2.03  91 2.05  85 2.09  86 2.17  92 2.20  55 2.28  28 2.83
  14  0.778  0.832  0.856-  90 1.98  95 2.00  89 2.05  42 2.07  39 2.76  41 2.77
  15  1.000  0.999  0.001-  80 1.86  59 1.88  44 1.89  95 1.89  92 1.89  47 1.89  21 2.80  24 2.81
                            18 2.81  27 2.81  33 2.82  39 2.83   3 2.84
  16  0.115  0.332  0.227-  43 1.85  67 1.86  58 1.87  64 1.89  61 2.04  46 2.06  28 2.78  25 2.81
                            19 2.82   3 2.82  40 2.82  34 2.83  22 2.87
  17  0.223  0.668  0.112-  81 1.85  66 1.85  48 1.92  45 1.93  51 2.03  42 2.03  26 2.80  35 2.80
                            29 2.81  41 2.81  20 2.84  23 2.85
  18  0.328  1.000  0.995-  50 1.85  80 1.86  53 1.87  83 1.88  47 2.03  86 2.05  33 2.78  36 2.80
                            15 2.81  27 2.83  30 2.84  21 2.88
  19  0.444  0.333  0.219-  67 1.87  70 1.87  46 1.88  73 1.88  52 1.88  49 1.88  34 2.79  22 2.79
                            37 2.81  16 2.82  31 2.82  28 2.82
  20  0.558  0.665  0.111-  51 1.85  48 1.86  72 1.87  54 1.89  57 1.90  87 1.92  38 2.79  23 2.80
                            29 2.81  32 2.82  17 2.84  35 2.85
  21  0.671  0.998  0.002-  86 1.85  89 1.86  92 1.87  59 1.90  56 1.90  53 1.91  30 2.79  15 2.80
                            24 2.80  39 2.82  36 2.83  18 2.88
  22  0.773  0.335  0.219-  61 1.85  76 1.85  73 1.86  58 1.90  55 1.90  52 1.91  40 2.78  19 2.79
                            37 2.81  31 2.82  25 2.85  16 2.87
  23  0.887  0.669  0.112-  42 1.85  93 1.86  45 1.87  57 1.89  54 1.90  60 1.92  32 2.79  20 2.80
                            41 2.80  26 2.83  38 2.83  17 2.85
  24  0.999  0.002  0.334-  62 1.85  77 1.85  65 1.87  44 1.89  59 1.90  56 1.90  33 2.79  21 2.80
                            15 2.81  27 2.82  30 2.83  36 2.84
  25  0.107  0.333  0.557-  61 1.85  79 1.86  64 1.87  82 1.89  85 2.05  76 2.07  34 2.77  10 2.80
                            16 2.81  31 2.81  37 2.82  22 2.85  28 2.87
  26  0.223  0.669  0.444-  63 1.86  69 1.87  60 1.87  84 1.90  66 1.91  45 1.92  17 2.80  29 2.81
                            38 2.82  35 2.82  23 2.83  32 2.83
  27  0.331  0.002  0.332-  47 1.87  71 1.87  44 1.88  50 1.88  65 1.90  68 1.90  36 2.79  15 2.81
                            24 2.82  18 2.83  30 2.83  39 2.84   3 2.84
  28  0.444  0.335  0.555-  85 1.85  88 1.86  91 1.87  70 1.89  67 1.90  64 1.91  16 2.78  37 2.78
                            31 2.80  11 2.80  19 2.82  13 2.83  25 2.87  40 2.87
  29  0.554  0.667  0.444-  72 1.86  75 1.87  69 1.90  66 1.91  90 1.92  51 1.93   9 2.76   5 2.80
                            26 2.81  17 2.81  38 2.81  20 2.81  32 2.84  41 2.86
  30  0.664  0.998  0.330-  71 1.85  56 1.86  74 1.87  53 1.91  77 2.03  50 2.06   5 2.79  21 2.79
                            39 2.80  24 2.83  27 2.83  18 2.84  33 2.85
  31  0.775  0.336  0.556-  79 1.86  70 1.86  91 1.89  76 1.90  94 2.02  73 2.05   9 2.76  28 2.80
                            25 2.81  40 2.81  19 2.82  22 2.82  34 2.86
  32  0.890  0.668  0.445-  78 1.85  57 1.87  75 1.89  60 1.93  72 1.98  63 2.00  23 2.79  35 2.80
                             8 2.80  41 2.82  20 2.82  26 2.83  29 2.84
  33  0.001  0.999  0.666-  77 1.85  62 1.86  74 1.87  80 1.90  95 1.90  83 1.91  18 2.78  24 2.79
                             8 2.79  39 2.82  15 2.82  10 2.83  30 2.85  36 2.85
  34  0.115  0.333  0.891-  43 1.85  94 1.86  46 1.86  79 1.89  82 1.91  49 1.91  25 2.77  19 2.79
                            37 2.82  16 2.83  40 2.83  31 2.86
  35  0.219  0.665  0.777-  78 1.86  84 1.87  87 1.87  81 1.91  63 1.96  48 1.98  41 2.80  32 2.80
                            17 2.80  26 2.82  38 2.84  20 2.85
  36  0.338  0.001  0.667-  68 1.85  83 1.86  86 1.90  65 1.90  62 2.03  89 2.06  27 2.79  18 2.80
                            39 2.81  21 2.83  24 2.84  33 2.85
  37  0.445  0.333  0.886-  85 1.85  88 1.85  82 1.87  55 1.87  52 1.89  49 1.90  28 2.78  22 2.81
                            19 2.81  34 2.82  25 2.82  40 2.83
  38  0.554  0.665  0.777-  69 1.85  54 1.87  90 1.88  87 1.91  93 2.01  84 2.04  20 2.79  11 2.80
                            29 2.81  26 2.82  23 2.83  35 2.84  41 2.84
  39  0.668  0.997  0.665-  68 1.86  95 1.87  92 1.90  74 1.92  71 1.93  89 1.93  14 2.76  30 2.80
                            36 2.81  33 2.82  21 2.82  15 2.83  27 2.84
  40  0.782  0.334  0.894-  94 1.84  91 1.86  55 1.89  58 1.91  43 2.03  88 2.05  22 2.78  31 2.81
                             1 2.82  16 2.82  37 2.83  34 2.83  28 2.87
  41  0.891  0.666  0.781-  93 1.85  90 1.87  78 1.90  81 1.91  75 1.92  42 1.93  14 2.77  35 2.80
                             1 2.80  23 2.80  17 2.81  32 2.82  38 2.84  29 2.86
  42  0.988  0.740  0.001-  23 1.85  41 1.93  17 2.03  14 2.07   2 2.11
  43  0.022  0.265  0.013-  16 1.85  34 1.85   3 1.98  40 2.03
  44  0.110  0.068  0.221-  27 1.88  15 1.89  24 1.89   3 2.02
  45  0.103  0.600  0.219-  23 1.87  26 1.92  17 1.93   7 2.19   1 2.24
  46  0.232  0.405  0.102-  34 1.86  19 1.88   4 2.05  16 2.06
  47  0.215  0.928  0.122-  27 1.87  15 1.89  18 2.03   2 2.04
  48  0.346  0.736  0.009-  20 1.86  17 1.92  35 1.98  12 2.14   5 2.21
  49  0.337  0.264  0.000-  19 1.88  37 1.90  34 1.91   6 2.16
  50  0.423  0.071  0.206-  18 1.85  27 1.88  30 2.06   3 2.11   6 2.17
  51  0.457  0.594  0.222-  20 1.85  29 1.93  17 2.03   9 2.06   4 2.11
  52  0.551  0.402  0.107-  19 1.88  37 1.89  22 1.91   4 2.13
  53  0.545  0.932  0.104-  18 1.87  30 1.91  21 1.91  12 2.12   5 2.16
  54  0.663  0.733  0.995-  38 1.87  20 1.89  23 1.90  12 2.14
  55  0.663  0.267  0.995-  37 1.87  40 1.89  22 1.90   6 2.17  13 2.28
  56  0.775  0.066  0.224-  30 1.86  21 1.90  24 1.90   6 2.15
  57  0.782  0.600  0.227-  32 1.87  23 1.89  20 1.90   7 2.13
  58  0.899  0.400  0.121-  16 1.87  22 1.90  40 1.91   7 2.11   1 2.19
  59  0.893  0.931  0.114-  15 1.88  21 1.90  24 1.90   2 2.12
  60  0.008  0.737  0.337-  26 1.87  23 1.92  32 1.93   2 2.09   8 2.16
  61  0.984  0.266  0.343-  25 1.85  22 1.85  16 2.04  10 2.07
  62  0.097  0.070  0.549-  24 1.85  33 1.86  10 2.00  36 2.03
  63  0.120  0.594  0.548-  26 1.86  35 1.96  32 2.00   7 2.08  11 2.16
  64  0.219  0.400  0.449-  25 1.87  16 1.89  28 1.91  11 2.11   7 2.20
  65  0.217  0.935  0.442-  24 1.87  27 1.90  36 1.90   2 2.16
  66  0.332  0.736  0.328-  17 1.85  26 1.91  29 1.91   5 2.13   2 2.17
  67  0.334  0.268  0.330-  16 1.86  19 1.87  28 1.90   3 2.15
  68  0.453  0.064  0.561-  36 1.85  39 1.86  27 1.90  13 2.03
  69  0.440  0.602  0.556-  38 1.85  26 1.87  29 1.90  11 2.02
  70  0.555  0.400  0.440-  31 1.86  19 1.87  28 1.89   9 1.99
  71  0.547  0.934  0.432-  30 1.85  27 1.87  39 1.93   5 2.00
  72  0.655  0.734  0.328-  29 1.86  20 1.87  32 1.98   5 1.99
  73  0.658  0.263  0.315-  22 1.86  19 1.88  31 2.05   6 2.08
  74  0.782  0.063  0.551-  33 1.87  30 1.87  39 1.92  10 2.14
  75  0.772  0.601  0.551-  29 1.87  32 1.89  41 1.92   9 1.98
  76  0.866  0.407  0.429-  22 1.85  31 1.90   9 2.05  25 2.07   7 2.10
  77  0.906  0.930  0.451-  33 1.85  24 1.85   8 1.99  30 2.03
  78  0.002  0.731  0.666-  32 1.85  35 1.86  41 1.90   8 2.02
  79  0.992  0.270  0.664-  31 1.86  25 1.86  34 1.89  10 2.04
  80  0.110  0.065  0.891-  15 1.86  18 1.86  33 1.90   3 2.20
  81  0.114  0.599  0.898-  17 1.85  35 1.91  41 1.91   1 2.12   4 2.17
  82  0.228  0.401  0.779-  37 1.87  25 1.89  34 1.91   4 2.16
  83  0.227  0.933  0.772-  36 1.86  18 1.88  33 1.91   8 2.12  12 2.18
  84  0.317  0.738  0.665-  35 1.87  26 1.90  38 2.04   8 2.13  12 2.14
  85  0.351  0.264  0.673-  37 1.85  28 1.85  25 2.05  13 2.09
  86  0.464  0.070  0.888-  21 1.85  36 1.90  18 2.05   6 2.10  13 2.17
  87  0.435  0.597  0.884-  35 1.87  38 1.91  20 1.92   4 2.09  11 2.18
  88  0.540  0.404  0.769-  37 1.85  28 1.86  11 2.00  40 2.05
  89  0.573  0.925  0.792-  21 1.86  39 1.93  14 2.05  36 2.06  12 2.10
  90  0.671  0.731  0.674-  41 1.87  38 1.88  29 1.92  14 1.98
  91  0.666  0.271  0.672-  40 1.86  28 1.87  31 1.89  13 2.05
  92  0.778  0.064  0.889-  21 1.87  15 1.89  39 1.90  13 2.20
  93  0.793  0.598  0.899-  41 1.85  23 1.86   1 1.98  38 2.01
  94  0.903  0.401  0.800-  40 1.84  34 1.86   1 1.95  31 2.02
  95  0.889  0.932  0.778-  39 1.87  15 1.89  33 1.90  14 2.00
 
  LATTYP: Found a triclinic cell.
 ALAT       =    16.7537209001
 B/A-ratio  =     0.8608476055
 C/A-ratio  =     0.5022406543
 COS(alpha) =     0.0005791927
 COS(beta)  =     0.2513722716
 COS(gamma) =     0.8625992962
  
  Lattice vectors:
  
 A1 = (  -4.3423569400,  14.4392751900,  -7.3033165200)
 A2 = (  -0.0416255900,  14.4223404500,   0.0000000000)
 A3 = (   4.1789238000,   0.0169347400,  -7.3033165200)


Analysis of symmetry for initial positions (statically):
=====================================================================
 Subroutine PRICEL returns:
 Original cell was already a primitive cell.
 

 Routine SETGRP: Setting up the symmetry group for a 
 triclinic supercell.


 Subroutine GETGRP returns: Found  1 space group operations
 (whereof  1 operations were pure point group operations)
 out of a pool of  2 trial point group operations.


The static configuration has the point symmetry C_1 .


Analysis of symmetry for dynamics (positions and initial velocities):
=====================================================================
 Subroutine PRICEL returns:
 Original cell was already a primitive cell.
 

 Routine SETGRP: Setting up the symmetry group for a 
 triclinic supercell.


 Subroutine GETGRP returns: Found  1 space group operations
 (whereof  1 operations were pure point group operations)
 out of a pool of  2 trial point group operations.


The dynamic configuration has the point symmetry C_1 .


Analysis of structural, dynamic, and magnetic symmetry:
=====================================================================
 Subroutine PRICEL returns:
 Original cell was already a primitive cell.
 

 Routine SETGRP: Setting up the symmetry group for a 
 triclinic supercell.


 Subroutine GETGRP returns: Found  1 space group operations
 (whereof  1 operations were pure point group operations)
 out of a pool of  2 trial point group operations.


The magnetic configuration has the point symmetry C_1 .


 Subroutine INISYM returns: Found  1 space group operations
 (whereof  1 operations are pure point group operations),
 and found     1 'primitive' translations

 
 
 KPOINTS: Automatic mesh                          

Automatic generation of k-mesh.
Space group operators:
 irot       det(A)        alpha          n_x          n_y          n_z        tau_x        tau_y        tau_z
    1     1.000000     0.000001     1.000000     0.000000     0.000000     0.000000     0.000000     0.000000
 
 Subroutine IBZKPT returns following result:
 ===========================================
 
 Found     20 irreducible k-points:
 
 Following reciprocal coordinates:
            Coordinates               Weight
  0.000000  0.000000  0.000000      1.000000
  0.250000  0.000000  0.000000      2.000000
  0.500000  0.000000  0.000000      1.000000
  0.000000  0.500000  0.000000      1.000000
  0.250000  0.500000  0.000000      2.000000
  0.500000  0.500000  0.000000      1.000000
  0.000000  0.000000  0.250000      2.000000
  0.250000  0.000000  0.250000      2.000000
  0.500000  0.000000  0.250000      2.000000
 -0.250000  0.000000  0.250000      2.000000
  0.000000  0.500000  0.250000      2.000000
  0.250000  0.500000  0.250000      2.000000
  0.500000  0.500000  0.250000      2.000000
 -0.250000  0.500000  0.250000      2.000000
  0.000000  0.000000  0.500000      1.000000
  0.250000  0.000000  0.500000      2.000000
  0.500000  0.000000  0.500000      1.000000
  0.000000  0.500000  0.500000      1.000000
  0.250000  0.500000  0.500000      2.000000
  0.500000  0.500000  0.500000      1.000000
 
 Following cartesian coordinates:
            Coordinates               Weight
  0.000000  0.000000  0.000000      1.000000
  0.029482  0.000085  0.016870      2.000000
  0.058965  0.000170  0.033740      1.000000
  0.000000  0.034668  0.000080      1.000000
  0.029482  0.034754  0.016950      2.000000
  0.058965  0.034839  0.033820      1.000000
  0.000000  0.000000  0.034231      2.000000
  0.029482  0.000085  0.051101      2.000000
  0.058965  0.000170  0.067971      2.000000
 -0.029482 -0.000085  0.017361      2.000000
  0.000000  0.034668  0.034311      2.000000
  0.029482  0.034754  0.051181      2.000000
  0.058965  0.034839  0.068051      2.000000
 -0.029482  0.034583  0.017442      2.000000
  0.000000  0.000000  0.068462      1.000000
  0.029482  0.000085  0.085332      2.000000
  0.058965  0.000170  0.102202      1.000000
  0.000000  0.034668  0.068542      1.000000
  0.029482  0.034754  0.085412      2.000000
  0.058965  0.034839  0.102282      1.000000
 


--------------------------------------------------------------------------------------------------------




 Dimension of arrays:
   k-points           NKPTS =     20   k-points in BZ     NKDIM =     20   number of bands    NBANDS=    416
   number of dos      NEDOS =    301   number of ions     NIONS =     95
   non local maximal  LDIM  =      6   non local SUM 2l+1 LMDIM =     18
   total plane-waves  NPLWV = 442368
   max r-space proj   IRMAX =   6699   max aug-charges    IRDMAX=  16252
   dimension x,y,z NGX =    64 NGY =  108 NGZ =   64
   dimension x,y,z NGXF=   128 NGYF=  216 NGZF=  128
   support grid    NGXF=   128 NGYF=  216 NGZF=  128
   ions per type =              14  27  54
   NGX,Y,Z   is equivalent  to a cutoff of  12.55, 12.45, 12.64 a.u.
   NGXF,Y,Z  is equivalent  to a cutoff of  25.09, 24.90, 25.29 a.u.

 SYSTEM =  unknown system                          
 POSCAR =  ce219565_1                              

 Startparameter for this run:
   NWRITE =      1    write-flag & timer
   PREC   = accura    normal or accurate (medium, high low for compatibility)
   ISTART =      0    job   : 0-new  1-cont  2-samecut
   ICHARG =      2    charge: 1-file 2-atom 10-const
   ISPIN  =      2    spin polarized calculation?
   LNONCOLLINEAR =      F non collinear calculations
   LSORBIT =      F    spin-orbit coupling
   INIWAV =      1    electr: 0-lowe 1-rand  2-diag
   LASPH  =      F    aspherical Exc in radial PAW
   METAGGA=      F    non-selfconsistent MetaGGA calc.

 Electronic Relaxation 1
   ENCUT  =  500.0 eV  36.75 Ry    6.06 a.u.  15.46 26.30 15.34*2*pi/ulx,y,z
   ENINI  =  500.0     initial cutoff
   ENAUG  =  628.9 eV  augmentation charge cutoff
   NELM   =     80;   NELMIN=  2; NELMDL= -5     # of ELM steps 
   EDIFF  = 0.1E-04   stopping-criterion for ELM
   LREAL  =      T    real-space projection
   NLSPLINE    = F    spline interpolate recip. space projectors
   LCOMPAT=      F    compatible to vasp.4.4
   GGA_COMPAT  = T    GGA compatible to vasp.4.4-vasp.4.6
   LMAXPAW     = -100 max onsite density
   LMAXMIX     =    2 max onsite mixed and CHGCAR
   VOSKOWN=      1    Vosko Wilk Nusair interpolation
   ROPT   =   -0.00025  -0.00025  -0.00025
 Ionic relaxation
   EDIFFG = 0.1E-03   stopping-criterion for IOM
   NSW    =      0    number of steps for IOM
   NBLOCK =      1;   KBLOCK =      1    inner block; outer block 
   IBRION =     -1    ionic relax: 0-MD 1-quasi-New 2-CG
   NFREE  =      0    steps in history (QN), initial steepest desc. (CG)
   ISIF   =      2    stress and relaxation
   IWAVPR =     10    prediction:  0-non 1-charg 2-wave 3-comb
   ISYM   =      2    0-nonsym 1-usesym 2-fastsym
   LCORR  =      T    Harris-Foulkes like correction to forces

   POTIM  = 0.5000    time-step for ionic-motion
   TEIN   =    0.0    initial temperature
   TEBEG  =    0.0;   TEEND  =   0.0 temperature during run
   SMASS  =  -3.00    Nose mass-parameter (am)
   estimated Nose-frequenzy (Omega)   =  0.10E-29 period in steps =****** mass=  -0.164E-26a.u.
   SCALEE = 1.0000    scale energy and forces
   NPACO  =    256;   APACO  = 16.0  distance and # of slots for P.C.
   PSTRESS=    0.0 pullay stress

  Mass of Ions in am
   POMASS =   7.01 58.69 16.00
  Ionic Valenz
   ZVAL   =   3.00 10.00  6.00
  Atomic Wigner-Seitz radii
   RWIGS  =   1.23  1.15  0.73
  virtual crystal weights 
   VCA    =   1.00  1.00  1.00
   NELECT =     636.0000    total number of electrons
   NUPDOWN=      -1.0000    fix difference up-down

 DOS related values:
   EMIN   =  10.00;   EMAX   =-10.00  energy-range for DOS
   EFERMI =   0.00
   ISMEAR =     0;   SIGMA  =   0.05  broadening in eV -4-tet -1-fermi 0-gaus

 Electronic relaxation 2 (details)
   IALGO  =     38    algorithm
   LDIAG  =      T    sub-space diagonalisation (order eigenvalues)
   LSUBROT=      F    optimize rotation matrix (better conditioning)
   TURBO    =      0    0=normal 1=particle mesh
   IRESTART =      0    0=no restart 2=restart with 2 vectors
   NREBOOT  =      0    no. of reboots
   NMIN     =      0    reboot dimension
   EREF     =   0.00    reference energy to select bands
   IMIX   =      4    mixing-type and parameters
     AMIX     =   0.40;   BMIX     =  1.00
     AMIX_MAG =   1.60;   BMIX_MAG =  1.00
     AMIN     =   0.10
     WC   =   100.;   INIMIX=   1;  MIXPRE=   1;  MAXMIX= -45

 Intra band minimization:
   WEIMIN = 0.0000     energy-eigenvalue tresh-hold
   EBREAK =  0.60E-08  absolut break condition
   DEPER  =   0.30     relativ break condition  

   TIME   =   0.40     timestep for ELM

  volume/ion in A,a.u.               =       9.40        63.45
  Fermi-wavevector in a.u.,A,eV,Ry     =   1.461894  2.762579 29.077470  2.137134
  Thomas-Fermi vector in A             =   2.578172
 
 Write flags
   LWAVE        =      F    write WAVECAR
   LDOWNSAMPLE  =      F    k-point downsampling of WAVECAR
   LCHARG       =      T    write CHGCAR
   LVTOT        =      F    write LOCPOT, total local potential
   LVHAR        =      F    write LOCPOT, Hartree potential only
   LELF         =      F    write electronic localiz. function (ELF)
   LORBIT       =      0    0 simple, 1 ext, 2 COOP (PROOUT), +10 PAW based schemes


 Dipole corrections
   LMONO  =      F    monopole corrections only (constant potential shift)
   LDIPOL =      F    correct potential (dipole corrections)
   IDIPOL =      0    1-x, 2-y, 3-z, 4-all directions 
   EPSILON=  1.0000000 bulk dielectric constant

 Exchange correlation treatment:
   GGA     =    PS    GGA type
   LEXCH   =    14    internal setting for exchange type
   VOSKOWN=      1    Vosko Wilk Nusair interpolation
   LHFCALC =     F    Hartree Fock is set to
   LHFONE  =     F    Hartree Fock one center treatment
   AEXX    =    0.0000 exact exchange contribution

 Linear response parameters
   LEPSILON=     F    determine dielectric tensor
   LRPA    =     F    only Hartree local field effects (RPA)
   LNABLA  =     F    use nabla operator in PAW spheres
   LVEL    =     F    velocity operator in full k-point grid
   LINTERFAST=   F  fast interpolation
   KINTER  =     0    interpolate to denser k-point grid
   CSHIFT  =0.1000    complex shift for real part using Kramers Kronig
   OMEGAMAX=  -1.0    maximum frequency
   DEG_THRESHOLD= 0.2000000E-02 threshold for treating states as degnerate
   RTIME   =   -0.100 relaxation time in fs
  (WPLASMAI=    0.000 imaginary part of plasma frequency in eV, 0.658/RTIME)
   DFIELD  = 0.0000000 0.0000000 0.0000000 field for delta impulse in time
 
 Orbital magnetization related:
   ORBITALMAG=     F  switch on orbital magnetization
   LCHIMAG   =     F  perturbation theory with respect to B field
   DQ        =  0.001000  dq finite difference perturbation B field
   LLRAUG    =     F  two centre corrections for induced B field



--------------------------------------------------------------------------------------------------------


 Static calculation
 charge density and potential will be updated during run
 spin polarized calculation
 Variant of blocked Davidson
 Davidson routine will perform the subspace rotation
 perform sub-space diagonalisation
    after iterative eigenvector-optimisation
 modified Broyden-mixing scheme, WC =      100.0
 initial mixing is a Kerker type mixing with AMIX =  0.4000 and BMIX =      1.0000
 Hartree-type preconditioning will be used
 using additional bands           98
 real space projection scheme for non local part
 use partial core corrections
 calculate Harris-corrections to forces 
   (improved forces if not selfconsistent)
 use gradient corrections 
 use of overlap-Matrix (Vanderbilt PP)
 Gauss-broadening in eV      SIGMA  =   0.05


--------------------------------------------------------------------------------------------------------


  energy-cutoff  :      500.00
  volume of cell :      893.17
      direct lattice vectors                 reciprocal lattice vectors
     8.479655150  0.000000000  0.000000000     0.117929324  0.000340366  0.067479401
    -0.041625590 14.422340450  0.000000000     0.000000000  0.069336874  0.000160777
    -4.178923800 -0.016934740  7.303316520     0.000000000  0.000000000  0.136924094

  length of vectors
     8.479655150 14.422400520  8.414399747     0.135870935  0.069337060  0.136924094


 
 k-points in units of 2pi/SCALE and weight: Automatic mesh                          
   0.00000000  0.00000000  0.00000000       0.031
   0.02948233  0.00008509  0.01686985       0.062
   0.05896466  0.00017018  0.03373970       0.031
   0.00000000  0.03466844  0.00008039       0.031
   0.02948233  0.03475353  0.01695024       0.062
   0.05896466  0.03483862  0.03382009       0.031
   0.00000000  0.00000000  0.03423102       0.062
   0.02948233  0.00008509  0.05110087       0.062
   0.05896466  0.00017018  0.06797072       0.062
  -0.02948233 -0.00008509  0.01736117       0.062
   0.00000000  0.03466844  0.03431141       0.062
   0.02948233  0.03475353  0.05118126       0.062
   0.05896466  0.03483862  0.06805111       0.062
  -0.02948233  0.03458335  0.01744156       0.062
   0.00000000  0.00000000  0.06846205       0.031
   0.02948233  0.00008509  0.08533190       0.062
   0.05896466  0.00017018  0.10220175       0.031
   0.00000000  0.03466844  0.06854244       0.031
   0.02948233  0.03475353  0.08541229       0.062
   0.05896466  0.03483862  0.10228214       0.031
 
 k-points in reciprocal lattice and weights: Automatic mesh                          
   0.00000000  0.00000000  0.00000000       0.031
   0.25000000  0.00000000  0.00000000       0.062
   0.50000000  0.00000000  0.00000000       0.031
   0.00000000  0.50000000  0.00000000       0.031
   0.25000000  0.50000000  0.00000000       0.062
   0.50000000  0.50000000  0.00000000       0.031
   0.00000000  0.00000000  0.25000000       0.062
   0.25000000  0.00000000  0.25000000       0.062
   0.50000000  0.00000000  0.25000000       0.062
  -0.25000000  0.00000000  0.25000000       0.062
   0.00000000  0.50000000  0.25000000       0.062
   0.25000000  0.50000000  0.25000000       0.062
   0.50000000  0.50000000  0.25000000       0.062
  -0.25000000  0.50000000  0.25000000       0.062
   0.00000000  0.00000000  0.50000000       0.031
   0.25000000  0.00000000  0.50000000       0.062
   0.50000000  0.00000000  0.50000000       0.031
   0.00000000  0.50000000  0.50000000       0.031
   0.25000000  0.50000000  0.50000000       0.062
   0.50000000  0.50000000  0.50000000       0.031
 
 position of ions in fractional coordinates (direct lattice) 
   0.98204994  0.50117178  0.98163071
   0.10825527  0.83347313  0.22305277
   0.20616649  0.16529053  0.11718043
   0.33638989  0.50107022  0.99902502
   0.46650102  0.83254123  0.24435700
   0.55542766  0.16470218  0.10634867
   0.99328949  0.49943918  0.33405292
   0.09355808  0.83182253  0.56526599
   0.66383796  0.50122302  0.36677835
   0.90731821  0.16816366  0.47131187
   0.34835863  0.50107255  0.65580921
   0.44752785  0.83298961  0.88870436
   0.55757240  0.16648830  0.75345683
   0.77804143  0.83200984  0.85593597
   0.99985773  0.99904617  0.00057953
   0.11548550  0.33243873  0.22727538
   0.22317634  0.66765764  0.11191560
   0.32805069  0.99971271  0.99478895
   0.44448062  0.33345057  0.21936614
   0.55750516  0.66506834  0.11133755
   0.67076792  0.99751474  0.00220186
   0.77344163  0.33463467  0.21925879
   0.88749045  0.66895927  0.11211498
   0.99937661  0.00186313  0.33386703
   0.10732039  0.33326211  0.55732849
   0.22302881  0.66853371  0.44405776
   0.33091478  0.00164767  0.33223321
   0.44433176  0.33455094  0.55497985
   0.55384402  0.66686646  0.44374880
   0.66384426  0.99776484  0.33021748
   0.77463371  0.33590968  0.55556130
   0.88982650  0.66769414  0.44531594
   0.00082269  0.99863973  0.66589705
   0.11513585  0.33279668  0.89071028
   0.21876359  0.66509840  0.77686976
   0.33773634  0.00148588  0.66668186
   0.44475268  0.33344870  0.88587695
   0.55390482  0.66477186  0.77742804
   0.66825812  0.99680579  0.66525860
   0.78243765  0.33443899  0.89385569
   0.89072824  0.66612552  0.78069127
   0.98787137  0.74006635  0.00085274
   0.02248576  0.26515616  0.01258099
   0.11043007  0.06759236  0.22068492
   0.10255388  0.60019614  0.21877502
   0.23231477  0.40502342  0.10190432
   0.21549412  0.92824720  0.12203369
   0.34615546  0.73554818  0.00887045
   0.33735200  0.26438954  0.00010071
   0.42318079  0.07085022  0.20629997
   0.45697743  0.59414842  0.22238397
   0.55108302  0.40232183  0.10673439
   0.54466474  0.93191998  0.10357459
   0.66267653  0.73316268  0.99514238
   0.66263759  0.26688613  0.99512222
   0.77451559  0.06616127  0.22429405
   0.78189335  0.60005690  0.22713705
   0.89916891  0.40038141  0.12063937
   0.89329839  0.93133209  0.11400078
   0.00750173  0.73728880  0.33706259
   0.98413971  0.26574173  0.34259307
   0.09673904  0.06961710  0.54947635
   0.11966371  0.59404838  0.54830471
   0.21879786  0.39950863  0.44914843
   0.21662619  0.93458620  0.44194080
   0.33214788  0.73557420  0.32785431
   0.33434840  0.26794844  0.32980411
   0.45310781  0.06427960  0.56127829
   0.43996224  0.60184690  0.55593124
   0.55478404  0.39966104  0.44006585
   0.54693005  0.93365996  0.43197222
   0.65484470  0.73431233  0.32782204
   0.65816346  0.26278307  0.31515577
   0.78161009  0.06303690  0.55088339
   0.77227829  0.60127858  0.55082853
   0.86610558  0.40692804  0.42864656
   0.90587336  0.93026926  0.45103191
   0.00159834  0.73096084  0.66563732
   0.99157340  0.27042794  0.66366119
   0.10986218  0.06450026  0.89090409
   0.11401618  0.59888584  0.89783589
   0.22810116  0.40071505  0.77885203
   0.22656290  0.93336297  0.77241676
   0.31721856  0.73833638  0.66451034
   0.35067613  0.26406183  0.67300536
   0.46437920  0.07020655  0.88751675
   0.43511667  0.59746992  0.88416862
   0.53989396  0.40382374  0.76911229
   0.57285946  0.92486809  0.79235596
   0.67119931  0.73087337  0.67375330
   0.66593504  0.27101749  0.67174846
   0.77768297  0.06429513  0.88935261
   0.79345488  0.59836747  0.89895455
   0.90321778  0.40147640  0.80036497
   0.88850714  0.93222974  0.77814514
 
 position of ions in cartesian coordinates  (Angst):
   4.20442332  7.21144637  7.16915978
  -0.04884698 12.01685590  1.62902498
   1.25165234  2.38189188  0.85580577
  -1.34323651  7.20968707  7.29619593
   2.89996347 12.00305494  1.78461651
   4.25855620  2.37358993  0.77669800
   7.00598119  7.19742479  2.43969421
  -1.60348835 11.98725509  4.12831644
   4.07551450  7.22259774  2.67869838
   5.71716923  2.41733201  3.44213977
   0.19252689  7.21553295  4.78958224
   0.04638035 11.99860977  6.49048923
   1.57245282  2.38839135  5.50273371
   2.98599892 11.98503412  6.25117131
   8.43444105 14.40857417  0.00423249
   0.01567276  4.79069569  1.65986404
   1.39697999  9.62729053  0.81735505
  -1.41700413 14.40135056  7.26525857
   2.83844792  4.80542274  1.60210035
   4.23449650  9.58995655  0.81313337
   5.63715710 14.38645990  0.01608088
   5.62832316  4.82250205  1.60131634
   7.02924718  9.64605970  0.81881119
   7.07908659  0.02121674  2.43833660
  -1.43286563  4.79698140  4.07034637
   0.00769575  9.63430077  3.24309437
   1.41759736  0.01813697  2.42640429
   1.43463571  4.81560912  4.05319351
   2.81425517  9.61026035  3.24083794
   4.20768416 14.38451206  2.41168278
   4.23299595  4.83519548  4.05744002
   5.65668732  9.62217089  3.25228326
  -2.81732587 14.39144538  4.86325693
  -2.75975094  4.78462307  6.50513910
  -1.41912484  9.57911947  5.67372575
   0.07781315  0.01013978  4.86898864
   0.05545708  4.79410858  6.46983976
   1.42043780  9.57440054  5.67780305
   2.84504078 14.36500648  4.85859412
   2.88552541  4.80825576  6.52811103
   4.26289111  9.59386823  5.70163545
   8.34243932 10.67347441  0.00622783
   0.12705921  3.82395936  0.09188295
   0.01136988  0.97110279  1.61173182
  -0.06960612  8.65252817  1.59778322
   1.52723941  5.83965993  0.74423950
   1.27870750 13.38543053  0.89125066
   2.86759237 10.60817605  0.06478370
   2.84920239  3.81311425  0.00073552
   2.72336613  1.01833236  1.50667398
   2.92095357  8.56524478  1.62414052
   4.21021220  5.80061488  0.77951503
   4.14694713 13.43871321  0.75643801
   1.43012595 10.55706930  7.26783978
   1.44928903  3.83227049  7.26769255
   5.62756337  0.95040200  1.63809044
   5.65601983  8.65037839  1.65885377
   7.10383343  5.77239401  0.88106750
   7.05969447 13.43005790  0.83258378
  -1.37563688 10.62772202  2.46167478
   6.90243337  3.82681598  2.50206563
  -1.47880395  0.99473628  4.01299970
  -1.30134422  8.55828258  4.00444285
  -0.03825645  5.75424326  3.28027315
  -0.04882424 13.47143620  3.22763355
   1.41580259 10.60314941  2.39442380
   1.44577938  3.85885848  2.40866380
   1.49398309  0.91755717  4.09919301
   1.38248155  8.67062634  4.06014181
   2.84873956  5.75659518  3.21394019
   2.79373508 13.45824647  3.15482985
   4.15234772 10.58495084  2.39418812
   4.25304872  3.78460982  2.30168234
   4.32306037  0.89981057  4.02327576
   4.22175455  8.66251625  4.02287510
   5.53605671  5.86159571  3.13054150
   5.75794271 13.40902187  3.29402880
  -2.79852094 10.53089370  4.86136004
   5.62355422  3.88896489  4.84692773
  -2.79411177  0.91515748  6.50655456
  -2.81009886  8.62213086  6.55717969
  -1.33722411  5.76605922  5.68820290
  -1.34554730 13.44819784  5.64120408
  -0.11776777 10.63728533  4.85312934
   0.15018281  3.79699244  4.91517116
   0.22598822  0.99751290  6.48181574
  -0.03010402  8.60194143  6.45736329
   1.34724354  5.81105874  5.61707049
   1.50795731 13.32534412  5.78682637
   2.84555195 10.52949473  4.92063361
   2.82843260  3.89733062  4.90599163
   2.87527029  0.91222530  6.49522361
   2.94665380  8.61463580  6.56534962
   4.29759939  5.77667535  5.84531871
   4.24362029 13.43175700  5.68304026
 


--------------------------------------------------------------------------------------------------------


 k-point  1 :   0.0000 0.0000 0.0000  plane waves:   22777
 k-point  2 :   0.2500 0.0000 0.0000  plane waves:   22692
 k-point  3 :   0.5000 0.0000 0.0000  plane waves:   22626
 k-point  4 :   0.0000 0.5000 0.0000  plane waves:   22626
 k-point  5 :   0.2500 0.5000 0.0000  plane waves:   22693
 k-point  6 :   0.5000 0.5000 0.0000  plane waves:   22634
 k-point  7 :   0.0000 0.0000 0.2500  plane waves:   22681
 k-point  8 :   0.2500 0.0000 0.2500  plane waves:   22647
 k-point  9 :   0.5000 0.0000 0.2500  plane waves:   22649
 k-point 10 :  -0.2500 0.0000 0.2500  plane waves:   22679
 k-point 11 :   0.0000 0.5000 0.2500  plane waves:   22689
 k-point 12 :   0.2500 0.5000 0.2500  plane waves:   22677
 k-point 13 :   0.5000 0.5000 0.2500  plane waves:   22679
 k-point 14 :  -0.2500 0.5000 0.2500  plane waves:   22689
 k-point 15 :   0.0000 0.0000 0.5000  plane waves:   22674
 k-point 16 :   0.2500 0.0000 0.5000  plane waves:   22678
 k-point 17 :   0.5000 0.0000 0.5000  plane waves:   22670
 k-point 18 :   0.0000 0.5000 0.5000  plane waves:   22666
 k-point 19 :   0.2500 0.5000 0.5000  plane waves:   22685
 k-point 20 :   0.5000 0.5000 0.5000  plane waves:   22660

 maximum and minimum number of plane-waves per node :     22777    22626

 maximum number of plane-waves:     22777
 maximum index in each direction: 
   IXMAX=   15   IYMAX=   26   IZMAX=   15
   IXMIN=  -15   IYMIN=  -26   IZMIN=  -15

 The following grids will avoid any aliasing or wrap around errors in the Hartre
 e energy
  - symmetry arguments have not been applied
  - exchange correlation energies might require even more grid points
  - we recommend to set PREC=Normal or Accurate and rely on VASP defaults
 NGX is ok and might be reduce to    64
 NGY is ok and might be reduce to   108
 NGZ is ok and might be reduce to    64

 serial   3D FFT for wavefunctions
 parallel 3D FFT for charge:
    minimum data exchange during FFTs selected (reduces bandwidth)


 total amount of memory used by VASP MPI-rank0   543399. kBytes
=======================================================================

   base      :      30000. kBytes
   nonlr-proj:      50132. kBytes
   fftplans  :       9349. kBytes
   grid      :      55332. kBytes
   one-center:       2954. kBytes
   wavefun   :     395632. kBytes
 
     INWAV:  cpu time    0.0000: real time    0.0000
 Broyden mixing: mesh for mixing (old mesh)
   NGX = 31   NGY = 53   NGZ = 31
  (NGX  =128   NGY  =216   NGZ  =128)
  gives a total of  50933 points

 initial charge density was supplied:
 charge density of overlapping atoms calculated
 number of electron     636.0000000 magnetization      67.5000000
 keeping initial charge density in first step


--------------------------------------------------------------------------------------------------------


 Maximum index for non-local projection operator         6464
 Maximum index for augmentation-charges         1073 (set IRDMAX)


--------------------------------------------------------------------------------------------------------


 First call to EWALD:  gamma=   0.184
 Maximum number of real-space cells 3x 2x 3
 Maximum number of reciprocal cells 2x 4x 2

    FEWALD:  cpu time    0.0048: real time    0.0048


--------------------------------------- Iteration      1(   1)  ---------------------------------------


    POTLOK:  cpu time    0.3609: real time    0.3996
    SETDIJ:  cpu time    0.0475: real time    0.0476
     EDDAV:  cpu time  175.9361: real time  176.3528
    --------------------------------------------
      LOOP:  cpu time  176.3475: real time  176.8030

 eigenvalue-minimisations  : 33280
 total energy-change (2. order) : 0.8478266E+04  (-0.2670665E+05)
 number of electron     636.0000000 magnetization      67.5000000
 augmentation part      636.0000000 magnetization      67.5000000

 Free energy of the ion-electron system (eV)
  ---------------------------------------------------
  alpha Z        PSCENC =      1947.51311314
  Ewald energy   TEWEN  =    -36917.62975361
  -Hartree energ DENC   =    -19377.51229102
  -exchange      EXHF   =         0.00000000
  -V(xc)+E(xc)   XCENC  =      2586.17125271
  PAW double counting   =     45774.24717276   -47870.11951943
  entropy T*S    EENTRO =        -0.01474819
  eigenvalues    EBANDS =      7185.79621878
  atomic energy  EATOM  =     55149.81486454
  Solvation  Ediel_sol  =         0.00000000
  ---------------------------------------------------
  free energy    TOTEN  =      8478.26630968 eV

  energy without entropy =     8478.28105787  energy(sigma->0) =     8478.27368377


--------------------------------------------------------------------------------------------------------




--------------------------------------- Iteration      1(   2)  ---------------------------------------


     EDDAV:  cpu time  175.9440: real time  176.3606
    --------------------------------------------
      LOOP:  cpu time  175.9442: real time  176.3608

 eigenvalue-minimisations  : 33408
 total energy-change (2. order) :-0.7333593E+04  (-0.6687665E+04)
 number of electron     636.0000000 magnetization      67.5000000
 augmentation part      636.0000000 magnetization      67.5000000

 Free energy of the ion-electron system (eV)
  ---------------------------------------------------
  alpha Z        PSCENC =      1947.51311314
  Ewald energy   TEWEN  =    -36917.62975361
  -Hartree energ DENC   =    -19377.51229102
  -exchange      EXHF   =         0.00000000
  -V(xc)+E(xc)   XCENC  =      2586.17125271
  PAW double counting   =     45774.24717276   -47870.11951943
  entropy T*S    EENTRO =        -0.03513362
  eigenvalues    EBANDS =      -147.77602231
  atomic energy  EATOM  =     55149.81486454
  Solvation  Ediel_sol  =         0.00000000
  ---------------------------------------------------
  free energy    TOTEN  =      1144.67368315 eV

  energy without entropy =     1144.70881678  energy(sigma->0) =     1144.69124996


--------------------------------------------------------------------------------------------------------




--------------------------------------- Iteration      1(   3)  ---------------------------------------


     EDDAV:  cpu time  182.8408: real time  183.2846
    --------------------------------------------
      LOOP:  cpu time  182.8412: real time  183.2851

 eigenvalue-minimisations  : 34496
 total energy-change (2. order) :-0.1697045E+04  (-0.1512506E+04)
 number of electron     636.0000000 magnetization      67.5000000
 augmentation part      636.0000000 magnetization      67.5000000

 Free energy of the ion-electron system (eV)
  ---------------------------------------------------
  alpha Z        PSCENC =      1947.51311314
  Ewald energy   TEWEN  =    -36917.62975361
  -Hartree energ DENC   =    -19377.51229102
  -exchange      EXHF   =         0.00000000
  -V(xc)+E(xc)   XCENC  =      2586.17125271
  PAW double counting   =     45774.24717276   -47870.11951943
  entropy T*S    EENTRO =        -0.19283473
  eigenvalues    EBANDS =     -1844.66333274
  atomic energy  EATOM  =     55149.81486454
  Solvation  Ediel_sol  =         0.00000000
  ---------------------------------------------------
  free energy    TOTEN  =      -552.37132838 eV

  energy without entropy =     -552.17849365  energy(sigma->0) =     -552.27491101


--------------------------------------------------------------------------------------------------------




--------------------------------------- Iteration      1(   4)  ---------------------------------------


     EDDAV:  cpu time  196.1354: real time  196.5999
    --------------------------------------------
      LOOP:  cpu time  196.1368: real time  196.6012

 eigenvalue-minimisations  : 39616
 total energy-change (2. order) :-0.2074193E+03  (-0.2009371E+03)
 number of electron     636.0000000 magnetization      67.5000000
 augmentation part      636.0000000 magnetization      67.5000000

 Free energy of the ion-electron system (eV)
  ---------------------------------------------------
  alpha Z        PSCENC =      1947.51311314
  Ewald energy   TEWEN  =    -36917.62975361
  -Hartree energ DENC   =    -19377.51229102
  -exchange      EXHF   =         0.00000000
  -V(xc)+E(xc)   XCENC  =      2586.17125271
  PAW double counting   =     45774.24717276   -47870.11951943
  entropy T*S    EENTRO =        -0.18413383
  eigenvalues    EBANDS =     -2052.09129703
  atomic energy  EATOM  =     55149.81486454
  Solvation  Ediel_sol  =         0.00000000
  ---------------------------------------------------
  free energy    TOTEN  =      -759.79059178 eV

  energy without entropy =     -759.60645794  energy(sigma->0) =     -759.69852486


--------------------------------------------------------------------------------------------------------




--------------------------------------- Iteration      1(   5)  ---------------------------------------


     EDDAV:  cpu time  273.0183: real time  273.6647
    CHARGE:  cpu time    7.6039: real time    7.6220
    MIXING:  cpu time    0.0053: real time    0.0054
    --------------------------------------------
      LOOP:  cpu time  280.6226: real time  281.2870

 eigenvalue-minimisations  : 57856
 total energy-change (2. order) :-0.1261182E+02  (-0.1250554E+02)
 number of electron     636.0000017 magnetization      70.7237937
 augmentation part      189.1733285 magnetization      50.8591936

 Broyden mixing:
  rms(total) = 0.15263E+02    rms(broyden)= 0.15262E+02
  rms(prec ) = 0.16803E+02
  weight for this iteration     100.00

 Free energy of the ion-electron system (eV)
  ---------------------------------------------------
  alpha Z        PSCENC =      1947.51311314
  Ewald energy   TEWEN  =    -36917.62975361
  -Hartree energ DENC   =    -19377.51229102
  -exchange      EXHF   =         0.00000000
  -V(xc)+E(xc)   XCENC  =      2586.17125271
  PAW double counting   =     45774.24717276   -47870.11951943
  entropy T*S    EENTRO =        -0.18196409
  eigenvalues    EBANDS =     -2064.70528787
  atomic energy  EATOM  =     55149.81486454
  Solvation  Ediel_sol  =         0.00000000
  ---------------------------------------------------
  free energy    TOTEN  =      -772.40241287 eV

  energy without entropy =     -772.22044878  energy(sigma->0) =     -772.31143083


--------------------------------------------------------------------------------------------------------




--------------------------------------- Iteration      1(   6)  ---------------------------------------


    POTLOK:  cpu time    0.2724: real time    0.2731
    SETDIJ:  cpu time    0.0345: real time    0.0346
     EDDAV:  cpu time  227.9585: real time  228.4983
    CHARGE:  cpu time    7.5397: real time    7.5576
    MIXING:  cpu time    0.0077: real time    0.0078
    --------------------------------------------
      LOOP:  cpu time  235.8129: real time  236.3713

 eigenvalue-minimisations  : 51312
 total energy-change (2. order) :-0.6558104E+02  (-0.1806853E+03)
 number of electron     636.0000046 magnetization      66.4951999
 augmentation part      241.3223403 magnetization      65.9107231

 Broyden mixing:
  rms(total) = 0.27494E+02    rms(broyden)= 0.27493E+02
  rms(prec ) = 0.29131E+02
  weight for this iteration     100.00

 eigenvalues of (default mixing * dielectric matrix)
  average eigenvalue GAMMA=   0.2312
  0.2312

 Free energy of the ion-electron system (eV)
  ---------------------------------------------------
  alpha Z        PSCENC =      1947.51311314
  Ewald energy   TEWEN  =    -36917.62975361
  -Hartree energ DENC   =    -18507.14754619
  -exchange      EXHF   =         0.00000000
  -V(xc)+E(xc)   XCENC  =      2612.30935679
  PAW double counting   =     50374.62852029   -52178.05072039
  entropy T*S    EENTRO =        -0.07409526
  eigenvalues    EBANDS =     -3319.34719219
  atomic energy  EATOM  =     55149.81486454
  Solvation  Ediel_sol  =         0.00000000
  ---------------------------------------------------
  free energy    TOTEN  =      -837.98345288 eV

  energy without entropy =     -837.90935762  energy(sigma->0) =     -837.94640525


--------------------------------------------------------------------------------------------------------




--------------------------------------- Iteration      1(   7)  ---------------------------------------


    POTLOK:  cpu time    0.2666: real time    0.2672
    SETDIJ:  cpu time    0.0346: real time    0.0347
     EDDAV:  cpu time  207.0359: real time  207.5262
    CHARGE:  cpu time    7.4970: real time    7.5148
    MIXING:  cpu time    0.0057: real time    0.0057
    --------------------------------------------
      LOOP:  cpu time  214.8398: real time  215.3486

 eigenvalue-minimisations  : 45296
 total energy-change (2. order) : 0.1856633E+03  (-0.5364987E+02)
 number of electron     636.0000031 magnetization      62.0731797
 augmentation part      228.7671844 magnetization      55.3488135

 Broyden mixing:
  rms(total) = 0.13496E+02    rms(broyden)= 0.13496E+02
  rms(prec ) = 0.15426E+02
  weight for this iteration     100.00

 eigenvalues of (default mixing * dielectric matrix)
  average eigenvalue GAMMA=   0.4245
  0.4245  0.4245

 Free energy of the ion-electron system (eV)
  ---------------------------------------------------
  alpha Z        PSCENC =      1947.51311314
  Ewald energy   TEWEN  =    -36917.62975361
  -Hartree energ DENC   =    -18780.02262014
  -exchange      EXHF   =         0.00000000
  -V(xc)+E(xc)   XCENC  =      2592.12164812
  PAW double counting   =     52127.27658579   -54099.39725015
  entropy T*S    EENTRO =        -0.06850812
  eigenvalues    EBANDS =     -2671.92820438
  atomic energy  EATOM  =     55149.81486454
  Solvation  Ediel_sol  =         0.00000000
  ---------------------------------------------------
  free energy    TOTEN  =      -652.32012481 eV

  energy without entropy =     -652.25161669  energy(sigma->0) =     -652.28587075


--------------------------------------------------------------------------------------------------------




--------------------------------------- Iteration      1(   8)  ---------------------------------------


    POTLOK:  cpu time    0.2760: real time    0.2767
    SETDIJ:  cpu time    0.0354: real time    0.0355
     EDDAV:  cpu time  224.4157: real time  224.9470
    CHARGE:  cpu time    7.4623: real time    7.5098
    MIXING:  cpu time    0.0097: real time    0.0097
    --------------------------------------------
      LOOP:  cpu time  232.1991: real time  232.7787

 eigenvalue-minimisations  : 49792
 total energy-change (2. order) :-0.1685481E+03  (-0.5440064E+02)
 number of electron     636.0000022 magnetization      58.2018047
 augmentation part      206.9961832 magnetization      56.7092917

 Broyden mixing:
  rms(total) = 0.21368E+02    rms(broyden)= 0.21368E+02
  rms(prec ) = 0.30950E+02
  weight for this iteration     100.00

 eigenvalues of (default mixing * dielectric matrix)
  average eigenvalue GAMMA=   0.3874
  0.5150  0.5150  0.1323

 Free energy of the ion-electron system (eV)
  ---------------------------------------------------
  alpha Z        PSCENC =      1947.51311314
  Ewald energy   TEWEN  =    -36917.62975361
  -Hartree energ DENC   =    -18952.94347250
  -exchange      EXHF   =         0.00000000
  -V(xc)+E(xc)   XCENC  =      2580.54813618
  PAW double counting   =     53719.11431505   -55814.90669568
  entropy T*S    EENTRO =        -0.03787243
  eigenvalues    EBANDS =     -2532.34084580
  atomic energy  EATOM  =     55149.81486454
  Solvation  Ediel_sol  =         0.00000000
  ---------------------------------------------------
  free energy    TOTEN  =      -820.86821110 eV

  energy without entropy =     -820.83033868  energy(sigma->0) =     -820.84927489


--------------------------------------------------------------------------------------------------------




--------------------------------------- Iteration      1(   9)  ---------------------------------------


    POTLOK:  cpu time    0.2696: real time    0.2703
    SETDIJ:  cpu time    0.0338: real time    0.0339
     EDDAV:  cpu time  195.5876: real time  196.0506
    CHARGE:  cpu time    7.6359: real time    7.6540
    MIXING:  cpu time    0.0079: real time    0.0079
    --------------------------------------------
      LOOP:  cpu time  203.5348: real time  204.0167

 eigenvalue-minimisations  : 42432
 total energy-change (2. order) : 0.1392289E+03  (-0.4461224E+02)
 number of electron     636.0000016 magnetization      55.2378814
 augmentation part      208.1726237 magnetization      41.3972168

 Broyden mixing:
  rms(total) = 0.14018E+02    rms(broyden)= 0.14017E+02
  rms(prec ) = 0.18988E+02
  weight for this iteration     100.00

 eigenvalues of (default mixing * dielectric matrix)
  average eigenvalue GAMMA=   0.3791
  0.5908  0.5908  0.2275  0.1073

 Free energy of the ion-electron system (eV)
  ---------------------------------------------------
  alpha Z        PSCENC =      1947.51311314
  Ewald energy   TEWEN  =    -36917.62975361
  -Hartree energ DENC   =    -18908.46490273
  -exchange      EXHF   =         0.00000000
  -V(xc)+E(xc)   XCENC  =      2574.89667271
  PAW double counting   =     54674.63165924   -56792.64965004
  entropy T*S    EENTRO =        -0.08603258
  eigenvalues    EBANDS =     -2409.66533169
  atomic energy  EATOM  =     55149.81486454
  Solvation  Ediel_sol  =         0.00000000
  ---------------------------------------------------
  free energy    TOTEN  =      -681.63936102 eV

  energy without entropy =     -681.55332845  energy(sigma->0) =     -681.59634474


--------------------------------------------------------------------------------------------------------




--------------------------------------- Iteration      1(  10)  ---------------------------------------


    POTLOK:  cpu time    0.2698: real time    0.2705
    SETDIJ:  cpu time    0.0338: real time    0.0338
     EDDAV:  cpu time  204.1419: real time  204.6253
    CHARGE:  cpu time    7.1493: real time    7.1663
    MIXING:  cpu time    0.0064: real time    0.0064
    --------------------------------------------
      LOOP:  cpu time  211.6012: real time  212.1023

 eigenvalue-minimisations  : 44624
 total energy-change (2. order) :-0.8411790E+02  (-0.3182515E+02)
 number of electron     636.0000030 magnetization      49.5977964
 augmentation part      201.1920840 magnetization      41.2065293

 Broyden mixing:
  rms(total) = 0.21177E+02    rms(broyden)= 0.21176E+02
  rms(prec ) = 0.29331E+02
  weight for this iteration     100.00

 eigenvalues of (default mixing * dielectric matrix)
  average eigenvalue GAMMA=   0.3494
  0.6444  0.6444  0.2808  0.0957  0.0818

 Free energy of the ion-electron system (eV)
  ---------------------------------------------------
  alpha Z        PSCENC =      1947.51311314
  Ewald energy   TEWEN  =    -36917.62975361
  -Hartree energ DENC   =    -18874.96815133
  -exchange      EXHF   =         0.00000000
  -V(xc)+E(xc)   XCENC  =      2572.14074341
  PAW double counting   =     55751.74977142   -57892.09323421
  entropy T*S    EENTRO =        -0.03784399
  eigenvalues    EBANDS =     -2502.24677120
  atomic energy  EATOM  =     55149.81486454
  Solvation  Ediel_sol  =         0.00000000
  ---------------------------------------------------
  free energy    TOTEN  =      -765.75726182 eV

  energy without entropy =     -765.71941783  energy(sigma->0) =     -765.73833983


--------------------------------------------------------------------------------------------------------




--------------------------------------- Iteration      1(  11)  ---------------------------------------


    POTLOK:  cpu time    0.2767: real time    0.2773
    SETDIJ:  cpu time    0.0351: real time    0.0352
     EDDAV:  cpu time  218.2749: real time  218.7917
    CHARGE:  cpu time    7.2036: real time    7.2206
    MIXING:  cpu time    0.0072: real time    0.0072
    --------------------------------------------
      LOOP:  cpu time  225.7974: real time  226.3321

 eigenvalue-minimisations  : 48000
 total energy-change (2. order) : 0.1553894E+03  (-0.2533419E+02)
 number of electron     636.0000028 magnetization      47.1972177
 augmentation part      212.6913982 magnetization      41.0487724

 Broyden mixing:
  rms(total) = 0.89255E+01    rms(broyden)= 0.89240E+01
  rms(prec ) = 0.10415E+02
  weight for this iteration     100.00

 eigenvalues of (default mixing * dielectric matrix)
  average eigenvalue GAMMA=   0.3877
  0.7637  0.7637  0.3064  0.3064  0.0931  0.0931

 Free energy of the ion-electron system (eV)
  ---------------------------------------------------
  alpha Z        PSCENC =      1947.51311314
  Ewald energy   TEWEN  =    -36917.62975361
  -Hartree energ DENC   =    -18792.72764119
  -exchange      EXHF   =         0.00000000
  -V(xc)+E(xc)   XCENC  =      2570.77009870
  PAW double counting   =     57503.23223209   -59671.08952291
  entropy T*S    EENTRO =        -0.06091633
  eigenvalues    EBANDS =     -2400.19033232
  atomic energy  EATOM  =     55149.81486454
  Solvation  Ediel_sol  =         0.00000000
  ---------------------------------------------------
  free energy    TOTEN  =      -610.36785790 eV

  energy without entropy =     -610.30694157  energy(sigma->0) =     -610.33739973


--------------------------------------------------------------------------------------------------------




--------------------------------------- Iteration      1(  12)  ---------------------------------------


    POTLOK:  cpu time    0.2636: real time    0.2642
    SETDIJ:  cpu time    0.0346: real time    0.0347
     EDDAV:  cpu time  199.5304: real time  200.0029
    CHARGE:  cpu time    7.3860: real time    7.4035
    MIXING:  cpu time    0.0089: real time    0.0090
    --------------------------------------------
      LOOP:  cpu time  207.2237: real time  207.7144

 eigenvalue-minimisations  : 43072
 total energy-change (2. order) :-0.1651093E+01  (-0.1430748E+02)
 number of electron     636.0000040 magnetization      44.6506941
 augmentation part      209.0507579 magnetization      37.8401626

 Broyden mixing:
  rms(total) = 0.10411E+02    rms(broyden)= 0.10411E+02
  rms(prec ) = 0.12192E+02
  weight for this iteration     100.00

 eigenvalues of (default mixing * dielectric matrix)
  average eigenvalue GAMMA=   0.3898
  0.8393  0.8393  0.3502  0.3502  0.1639  0.1023  0.0835

 Free energy of the ion-electron system (eV)
  ---------------------------------------------------
  alpha Z        PSCENC =      1947.51311314
  Ewald energy   TEWEN  =    -36917.62975361
  -Hartree energ DENC   =    -18835.39449944
  -exchange      EXHF   =         0.00000000
  -V(xc)+E(xc)   XCENC  =      2571.34469529
  PAW double counting   =     57723.37754727   -59908.05254819
  entropy T*S    EENTRO =        -0.05706317
  eigenvalues    EBANDS =     -2342.93530686
  atomic energy  EATOM  =     55149.81486454
  Solvation  Ediel_sol  =         0.00000000
  ---------------------------------------------------
  free energy    TOTEN  =      -612.01895103 eV

  energy without entropy =     -611.96188786  energy(sigma->0) =     -611.99041945


--------------------------------------------------------------------------------------------------------




--------------------------------------- Iteration      1(  13)  ---------------------------------------


    POTLOK:  cpu time    0.2762: real time    0.2768
    SETDIJ:  cpu time    0.0342: real time    0.0343
     EDDAV:  cpu time  205.5556: real time  206.0422
    CHARGE:  cpu time    7.4973: real time    7.5151
    MIXING:  cpu time    0.0086: real time    0.0086
    --------------------------------------------
      LOOP:  cpu time  213.3719: real time  213.8771

 eigenvalue-minimisations  : 45104
 total energy-change (2. order) :-0.2930745E+02  (-0.3238328E+02)
 number of electron     636.0000011 magnetization      42.7331986
 augmentation part      206.2325812 magnetization      36.4122833

 Broyden mixing:
  rms(total) = 0.11510E+02    rms(broyden)= 0.11510E+02
  rms(prec ) = 0.13778E+02
  weight for this iteration     100.00

 eigenvalues of (default mixing * dielectric matrix)
  average eigenvalue GAMMA=   0.3663
  0.8452  0.8452  0.3730  0.3730  0.1657  0.1495  0.0893  0.0893

 Free energy of the ion-electron system (eV)
  ---------------------------------------------------
  alpha Z        PSCENC =      1947.51311314
  Ewald energy   TEWEN  =    -36917.62975361
  -Hartree energ DENC   =    -18865.16851052
  -exchange      EXHF   =         0.00000000
  -V(xc)+E(xc)   XCENC  =      2571.43585863
  PAW double counting   =     57939.66173679   -60129.16839569
  entropy T*S    EENTRO =        -0.04098651
  eigenvalues    EBANDS =     -2337.74432792
  atomic energy  EATOM  =     55149.81486454
  Solvation  Ediel_sol  =         0.00000000
  ---------------------------------------------------
  free energy    TOTEN  =      -641.32640115 eV

  energy without entropy =     -641.28541464  energy(sigma->0) =     -641.30590789


--------------------------------------------------------------------------------------------------------




--------------------------------------- Iteration      1(  14)  ---------------------------------------


    POTLOK:  cpu time    0.2698: real time    0.2704
    SETDIJ:  cpu time    0.0340: real time    0.0341
     EDDAV:  cpu time  207.9512: real time  208.4437
    CHARGE:  cpu time    7.6697: real time    7.6878
    MIXING:  cpu time    0.0098: real time    0.0099
    --------------------------------------------
      LOOP:  cpu time  215.9345: real time  216.4459

 eigenvalue-minimisations  : 43552
 total energy-change (2. order) : 0.5039863E+02  (-0.3172645E+01)
 number of electron     636.0000034 magnetization      41.8552875
 augmentation part      208.4259610 magnetization      37.8050605

 Broyden mixing:
  rms(total) = 0.77498E+01    rms(broyden)= 0.77493E+01
  rms(prec ) = 0.90745E+01
  weight for this iteration     100.00

 eigenvalues of (default mixing * dielectric matrix)
  average eigenvalue GAMMA=   0.3500
  0.8592  0.8592  0.3850  0.3850  0.1863  0.1863  0.1023  0.1023  0.0846

 Free energy of the ion-electron system (eV)
  ---------------------------------------------------
  alpha Z        PSCENC =      1947.51311314
  Ewald energy   TEWEN  =    -36917.62975361
  -Hartree energ DENC   =    -18858.39741174
  -exchange      EXHF   =         0.00000000
  -V(xc)+E(xc)   XCENC  =      2571.48033787
  PAW double counting   =     58237.94518172   -60429.95089397
  entropy T*S    EENTRO =        -0.06577330
  eigenvalues    EBANDS =     -2291.63743887
  atomic energy  EATOM  =     55149.81486454
  Solvation  Ediel_sol  =         0.00000000
  ---------------------------------------------------
  free energy    TOTEN  =      -590.92777423 eV

  energy without entropy =     -590.86200093  energy(sigma->0) =     -590.89488758


--------------------------------------------------------------------------------------------------------




--------------------------------------- Iteration      1(  15)  ---------------------------------------


    POTLOK:  cpu time    0.2719: real time    0.2726
    SETDIJ:  cpu time    0.0359: real time    0.0360
     EDDAV:  cpu time  208.7053: real time  209.1994
    CHARGE:  cpu time    7.7056: real time    7.7239
    MIXING:  cpu time    0.0088: real time    0.0088
    --------------------------------------------
      LOOP:  cpu time  216.7275: real time  217.2408

 eigenvalue-minimisations  : 44592
 total energy-change (2. order) : 0.1262476E+02  (-0.1413195E+02)
 number of electron     636.0000032 magnetization      40.1902388
 augmentation part      209.9248864 magnetization      37.5034133

 Broyden mixing:
  rms(total) = 0.54757E+01    rms(broyden)= 0.54750E+01
  rms(prec ) = 0.62321E+01
  weight for this iteration     100.00

 eigenvalues of (default mixing * dielectric matrix)
  average eigenvalue GAMMA=   0.3574
  0.9457  0.9457  0.3946  0.3946  0.2462  0.2462  0.1127  0.1127  0.0876  0.0876

 Free energy of the ion-electron system (eV)
  ---------------------------------------------------
  alpha Z        PSCENC =      1947.51311314
  Ewald energy   TEWEN  =    -36917.62975361
  -Hartree energ DENC   =    -18855.63969810
  -exchange      EXHF   =         0.00000000
  -V(xc)+E(xc)   XCENC  =      2571.38188781
  PAW double counting   =     58296.11529882   -60485.49244685
  entropy T*S    EENTRO =        -0.05792239
  eigenvalues    EBANDS =     -2284.30835534
  atomic energy  EATOM  =     55149.81486454
  Solvation  Ediel_sol  =         0.00000000
  ---------------------------------------------------
  free energy    TOTEN  =      -578.30301198 eV

  energy without entropy =     -578.24508959  energy(sigma->0) =     -578.27405079


--------------------------------------------------------------------------------------------------------




--------------------------------------- Iteration      1(  16)  ---------------------------------------


    POTLOK:  cpu time    0.2804: real time    0.2811
    SETDIJ:  cpu time    0.0336: real time    0.0336
     EDDAV:  cpu time  200.2672: real time  200.7414
    CHARGE:  cpu time    7.7655: real time    7.7839
    MIXING:  cpu time    0.0083: real time    0.0083
    --------------------------------------------
      LOOP:  cpu time  208.3550: real time  208.8483

 eigenvalue-minimisations  : 42688
 total energy-change (2. order) : 0.5333945E+01  (-0.3213414E+01)
 number of electron     636.0000032 magnetization      38.2552409
 augmentation part      210.2384714 magnetization      33.6515878

 Broyden mixing:
  rms(total) = 0.48892E+01    rms(broyden)= 0.48886E+01
  rms(prec ) = 0.55948E+01
  weight for this iteration     100.00

 eigenvalues of (default mixing * dielectric matrix)
  average eigenvalue GAMMA=   0.3626
  1.0300  1.0300  0.3869  0.3869  0.2945  0.2945  0.1402  0.1402  0.0884  0.0984
  0.0984

 Free energy of the ion-electron system (eV)
  ---------------------------------------------------
  alpha Z        PSCENC =      1947.51311314
  Ewald energy   TEWEN  =    -36917.62975361
  -Hartree energ DENC   =    -18871.36681724
  -exchange      EXHF   =         0.00000000
  -V(xc)+E(xc)   XCENC  =      2571.92324300
  PAW double counting   =     58255.96457934   -60441.21418277
  entropy T*S    EENTRO =        -0.06171379
  eigenvalues    EBANDS =     -2267.91239975
  atomic energy  EATOM  =     55149.81486454
  Solvation  Ediel_sol  =         0.00000000
  ---------------------------------------------------
  free energy    TOTEN  =      -572.96906716 eV

  energy without entropy =     -572.90735337  energy(sigma->0) =     -572.93821027


--------------------------------------------------------------------------------------------------------




--------------------------------------- Iteration      1(  17)  ---------------------------------------


    POTLOK:  cpu time    0.2790: real time    0.2797
    SETDIJ:  cpu time    0.0359: real time    0.0360
     EDDAV:  cpu time  192.1977: real time  192.6527
    CHARGE:  cpu time    7.3931: real time    7.4106
    MIXING:  cpu time    0.0092: real time    0.0093
    --------------------------------------------
      LOOP:  cpu time  199.9150: real time  200.3883

 eigenvalue-minimisations  : 39904
 total energy-change (2. order) : 0.4957025E+00  (-0.2785003E+01)
 number of electron     636.0000032 magnetization      36.4163481
 augmentation part      209.0871486 magnetization      31.2290687

 Broyden mixing:
  rms(total) = 0.40030E+01    rms(broyden)= 0.40026E+01
  rms(prec ) = 0.46413E+01
  weight for this iteration     100.00

 eigenvalues of (default mixing * dielectric matrix)
  average eigenvalue GAMMA=   0.3535
  0.9169  0.9169  0.4637  0.4637  0.3561  0.3561  0.1838  0.1838  0.0907  0.0907
  0.1100  0.1100

 Free energy of the ion-electron system (eV)
  ---------------------------------------------------
  alpha Z        PSCENC =      1947.51311314
  Ewald energy   TEWEN  =    -36917.62975361
  -Hartree energ DENC   =    -18905.64894648
  -exchange      EXHF   =         0.00000000
  -V(xc)+E(xc)   XCENC  =      2572.15563808
  PAW double counting   =     58280.03452504   -60464.69575378
  entropy T*S    EENTRO =        -0.04308617
  eigenvalues    EBANDS =     -2233.97396542
  atomic energy  EATOM  =     55149.81486454
  Solvation  Ediel_sol  =         0.00000000
  ---------------------------------------------------
  free energy    TOTEN  =      -572.47336465 eV

  energy without entropy =     -572.43027848  energy(sigma->0) =     -572.45182157


--------------------------------------------------------------------------------------------------------




--------------------------------------- Iteration      1(  18)  ---------------------------------------


    POTLOK:  cpu time    0.2732: real time    0.2739
    SETDIJ:  cpu time    0.0354: real time    0.0355
     EDDAV:  cpu time  200.6624: real time  201.1376
    CHARGE:  cpu time    7.4694: real time    7.4871
    MIXING:  cpu time    0.0084: real time    0.0084
    --------------------------------------------
      LOOP:  cpu time  208.4488: real time  208.9424

 eigenvalue-minimisations  : 43088
 total energy-change (2. order) : 0.1353381E+00  (-0.1708637E+01)
 number of electron     636.0000032 magnetization      34.7035120
 augmentation part      209.6758168 magnetization      28.7157855

 Broyden mixing:
  rms(total) = 0.33511E+01    rms(broyden)= 0.33507E+01
  rms(prec ) = 0.38982E+01
  weight for this iteration     100.00

 eigenvalues of (default mixing * dielectric matrix)
  average eigenvalue GAMMA=   0.3488
  0.7962  0.7962  0.5894  0.5894  0.3904  0.3904  0.2199  0.2199  0.1263  0.1263
  0.0931  0.0931  0.1042

 Free energy of the ion-electron system (eV)
  ---------------------------------------------------
  alpha Z        PSCENC =      1947.51311314
  Ewald energy   TEWEN  =    -36917.62975361
  -Hartree energ DENC   =    -18894.35740272
  -exchange      EXHF   =         0.00000000
  -V(xc)+E(xc)   XCENC  =      2571.21523619
  PAW double counting   =     58637.53707671   -60823.39477259
  entropy T*S    EENTRO =        -0.05711198
  eigenvalues    EBANDS =     -2242.97927624
  atomic energy  EATOM  =     55149.81486454
  Solvation  Ediel_sol  =         0.00000000
  ---------------------------------------------------
  free energy    TOTEN  =      -572.33802656 eV

  energy without entropy =     -572.28091458  energy(sigma->0) =     -572.30947057


--------------------------------------------------------------------------------------------------------




--------------------------------------- Iteration      1(  19)  ---------------------------------------


    POTLOK:  cpu time    0.2772: real time    0.2778
    SETDIJ:  cpu time    0.0355: real time    0.0356
     EDDAV:  cpu time  200.7044: real time  201.1797
    CHARGE:  cpu time    7.4644: real time    7.4821
    MIXING:  cpu time    0.0090: real time    0.0091
    --------------------------------------------
      LOOP:  cpu time  208.4905: real time  208.9843

 eigenvalue-minimisations  : 43824
 total energy-change (2. order) : 0.3212101E+00  (-0.9867139E+00)
 number of electron     636.0000031 magnetization      32.3633354
 augmentation part      209.8032190 magnetization      27.4052383

 Broyden mixing:
  rms(total) = 0.27041E+01    rms(broyden)= 0.27036E+01
  rms(prec ) = 0.31431E+01
  weight for this iteration     100.00

 eigenvalues of (default mixing * dielectric matrix)
  average eigenvalue GAMMA=   0.3766
  0.9068  0.9068  0.7060  0.7060  0.3956  0.3956  0.2790  0.2790  0.1449  0.1449
  0.1119  0.1119  0.0920  0.0920

 Free energy of the ion-electron system (eV)
  ---------------------------------------------------
  alpha Z        PSCENC =      1947.51311314
  Ewald energy   TEWEN  =    -36917.62975361
  -Hartree energ DENC   =    -18895.51684290
  -exchange      EXHF   =         0.00000000
  -V(xc)+E(xc)   XCENC  =      2570.39781725
  PAW double counting   =     58944.90873710   -61133.31550291
  entropy T*S    EENTRO =        -0.03528734
  eigenvalues    EBANDS =     -2238.15396170
  atomic energy  EATOM  =     55149.81486454
  Solvation  Ediel_sol  =         0.00000000
  ---------------------------------------------------
  free energy    TOTEN  =      -572.01681643 eV

  energy without entropy =     -571.98152910  energy(sigma->0) =     -571.99917276


--------------------------------------------------------------------------------------------------------




--------------------------------------- Iteration      1(  20)  ---------------------------------------


    POTLOK:  cpu time    0.2723: real time    0.2730
    SETDIJ:  cpu time    0.0357: real time    0.0357
     EDDAV:  cpu time  202.3730: real time  202.8522
    CHARGE:  cpu time    7.1725: real time    7.1895
    MIXING:  cpu time    0.0091: real time    0.0091
    --------------------------------------------
      LOOP:  cpu time  209.8625: real time  210.3594

 eigenvalue-minimisations  : 43840
 total energy-change (2. order) :-0.1357104E+01  (-0.1138875E+01)
 number of electron     636.0000031 magnetization      31.3824402
 augmentation part      210.1383662 magnetization      25.7178725

 Broyden mixing:
  rms(total) = 0.25012E+01    rms(broyden)= 0.25007E+01
  rms(prec ) = 0.27194E+01
  weight for this iteration     100.00

 eigenvalues of (default mixing * dielectric matrix)
  average eigenvalue GAMMA=   0.3690
  0.9176  0.9176  0.6940  0.6940  0.4167  0.4167  0.2843  0.2843  0.1865  0.1865
  0.1204  0.1204  0.1109  0.0923  0.0923

 Free energy of the ion-electron system (eV)
  ---------------------------------------------------
  alpha Z        PSCENC =      1947.51311314
  Ewald energy   TEWEN  =    -36917.62975361
  -Hartree energ DENC   =    -18894.11031764
  -exchange      EXHF   =         0.00000000
  -V(xc)+E(xc)   XCENC  =      2569.78087086
  PAW double counting   =     59236.09599552   -61423.86278040
  entropy T*S    EENTRO =        -0.04517015
  eigenvalues    EBANDS =     -2240.93074245
  atomic energy  EATOM  =     55149.81486454
  Solvation  Ediel_sol  =         0.00000000
  ---------------------------------------------------
  free energy    TOTEN  =      -573.37392019 eV

  energy without entropy =     -573.32875004  energy(sigma->0) =     -573.35133511


--------------------------------------------------------------------------------------------------------




--------------------------------------- Iteration      1(  21)  ---------------------------------------


    POTLOK:  cpu time    0.2795: real time    0.2801
    SETDIJ:  cpu time    0.0353: real time    0.0353
     EDDAV:  cpu time  200.0476: real time  200.5216
    CHARGE:  cpu time    7.4330: real time    7.4507
    MIXING:  cpu time    0.0105: real time    0.0105
    --------------------------------------------
      LOOP:  cpu time  207.8060: real time  208.2983

 eigenvalue-minimisations  : 44064
 total energy-change (2. order) : 0.5367721E-01  (-0.4335541E+00)
 number of electron     636.0000031 magnetization      30.3779556
 augmentation part      210.1369582 magnetization      25.1380345

 Broyden mixing:
  rms(total) = 0.16711E+01    rms(broyden)= 0.16709E+01
  rms(prec ) = 0.18242E+01
  weight for this iteration     100.00

 eigenvalues of (default mixing * dielectric matrix)
  average eigenvalue GAMMA=   0.3629
  0.9090  0.9090  0.5708  0.5708  0.5057  0.5057  0.3286  0.3286  0.3084  0.1929
  0.1341  0.1341  0.0921  0.0921  0.1119  0.1119

 Free energy of the ion-electron system (eV)
  ---------------------------------------------------
  alpha Z        PSCENC =      1947.51311314
  Ewald energy   TEWEN  =    -36917.62975361
  -Hartree energ DENC   =    -18898.22763633
  -exchange      EXHF   =         0.00000000
  -V(xc)+E(xc)   XCENC  =      2569.60474467
  PAW double counting   =     59296.74306107   -61483.73250156
  entropy T*S    EENTRO =        -0.04731732
  eigenvalues    EBANDS =     -2237.35881757
  atomic energy  EATOM  =     55149.81486454
  Solvation  Ediel_sol  =         0.00000000
  ---------------------------------------------------
  free energy    TOTEN  =      -573.32024298 eV

[...]
   0.158E+02 0.304E+03 0.598E+02   -.184E+02 -.320E+03 -.646E+02   0.253E+01 0.155E+02 0.470E+01   0.265E-01 0.119E-01 0.238E-01
   -.191E+01 -.333E+03 0.439E+02   0.197E+01 0.351E+03 -.473E+02   -.294E-01 -.182E+02 0.334E+01   -.281E-01 -.176E-01 0.223E-01
   -.417E+02 0.354E+03 0.120E+02   0.445E+02 -.374E+03 -.128E+02   -.276E+01 0.200E+02 0.912E+00   0.122E-01 0.235E-01 -.426E-01
   -.338E+02 -.385E+03 0.729E+01   0.353E+02 0.406E+03 -.710E+01   -.156E+01 -.211E+02 -.195E+00   0.974E-03 0.125E-01 0.192E-02
   0.463E+02 0.359E+03 0.418E+02   -.521E+02 -.378E+03 -.448E+02   0.588E+01 0.188E+02 0.299E+01   -.269E-01 -.224E-01 0.722E-02
   0.129E+02 -.311E+03 0.613E+02   -.125E+02 0.329E+03 -.677E+02   -.486E+00 -.184E+02 0.643E+01   0.376E-01 -.296E-01 -.242E-01
   -.341E+02 0.318E+03 0.325E+02   0.371E+02 -.338E+03 -.335E+02   -.298E+01 0.199E+02 0.103E+01   -.482E-03 0.333E-01 -.508E-02
 -----------------------------------------------------------------------------------------------
   -.100E+01 0.646E+00 -.538E+00   0.711E-14 -.455E-12 -.462E-12   0.100E+01 -.590E+00 0.521E+00   -.104E-01 -.513E-01 -.161E-02
 
 
 POSITION                                       TOTAL-FORCE (eV/Angst)
 -----------------------------------------------------------------------------------
      4.20442      7.21145      7.16916         0.007551     -0.008350      0.015509
     -0.04885     12.01686      1.62902         0.004311      0.000793     -0.000937
      1.25165      2.38189      0.85581         0.001630      0.005586     -0.003864
     -1.34324      7.20969      7.29620        -0.000689     -0.004561     -0.003040
      2.89996     12.00305      1.78462        -0.003312      0.003062     -0.006809
      4.25856      2.37359      0.77670         0.000381     -0.002454     -0.000725
      7.00598      7.19742      2.43969        -0.010369      0.001330      0.007162
     -1.60349     11.98726      4.12832        -0.001670     -0.003000      0.000629
      4.07551      7.22260      2.67870         0.001681     -0.004323     -0.001751
      5.71717      2.41733      3.44214        -0.010646      0.004756      0.008959
      0.19253      7.21553      4.78958        -0.003230      0.002855     -0.003221
      0.04638     11.99861      6.49049         0.002842     -0.005547     -0.002245
      1.57245      2.38839      5.50273         0.009693     -0.000662     -0.002452
      2.98600     11.98503      6.25117         0.005763     -0.001709      0.000445
      8.43444     14.40857      0.00423        -0.001206     -0.003060     -0.002106
      0.01567      4.79070      1.65986        -0.000395      0.004156     -0.001241
      1.39698      9.62729      0.81736        -0.000530     -0.000590     -0.000458
     -1.41700     14.40135      7.26526         0.001231     -0.004619     -0.003097
      2.83845      4.80542      1.60210        -0.001930     -0.000716      0.000351
      4.23450      9.58996      0.81313         0.000974      0.000329     -0.002233
      5.63716     14.38646      0.01608         0.000776     -0.000295      0.000639
      5.62832      4.82250      1.60132         0.000071      0.004859     -0.004104
      7.02925      9.64606      0.81881        -0.001388      0.001585      0.003809
      7.07909      0.02122      2.43834        -0.001463      0.003452     -0.003958
     -1.43287      4.79698      4.07035         0.002344      0.009903     -0.002784
      0.00770      9.63430      3.24309         0.001548      0.000624      0.000173
      1.41760      0.01814      2.42640         0.001502      0.001969      0.002792
      1.43464      4.81561      4.05319        -0.005060      0.001805      0.000446
      2.81426      9.61026      3.24084        -0.004278     -0.002789     -0.000339
      4.20768     14.38451      2.41168         0.002902     -0.002788     -0.004212
      4.23300      4.83520      4.05744         0.003471      0.004793     -0.001321
      5.65669      9.62217      3.25228        -0.002394      0.000424     -0.001566
     -2.81733     14.39145      4.86326         0.004316     -0.005308      0.001028
     -2.75975      4.78462      6.50514        -0.002002      0.001815     -0.001077
     -1.41912      9.57912      5.67373        -0.004950     -0.000245      0.000950
      0.07781      0.01014      4.86899        -0.000796      0.000969      0.001900
      0.05546      4.79411      6.46984        -0.003695     -0.001109      0.005232
      1.42044      9.57440      5.67780         0.000496     -0.000151      0.004562
      2.84504     14.36501      4.85859         0.005077     -0.003784     -0.003808
      2.88553      4.80826      6.52811        -0.003100      0.000652      0.004475
      4.26289      9.59387      5.70164         0.005688     -0.002688      0.003922
      8.34244     10.67347      0.00623        -0.001022      0.010483      0.003650
      0.12706      3.82396      0.09188        -0.002354     -0.004530     -0.004239
      0.01137      0.97110      1.61173        -0.000808      0.005863     -0.000222
     -0.06961      8.65253      1.59778         0.002952     -0.002521      0.001921
      1.52724      5.83966      0.74424         0.000943      0.002778      0.001838
      1.27871     13.38543      0.89125        -0.000989     -0.003160     -0.002250
      2.86759     10.60818      0.06478        -0.004866      0.007447      0.002322
      2.84920      3.81311      0.00074        -0.003374     -0.010342     -0.002277
      2.72337      1.01833      1.50667         0.009831      0.001105     -0.001949
      2.92095      8.56524      1.62414        -0.000076     -0.009970     -0.004478
      4.21021      5.80061      0.77952        -0.004360      0.005404      0.001211
      4.14695     13.43871      0.75644         0.002474     -0.012587     -0.005815
      1.43013     10.55707      7.26784         0.000527      0.005381      0.002542
      1.44929      3.83227      7.26769         0.000973     -0.003455      0.001837
      5.62756      0.95040      1.63809        -0.002498      0.005868     -0.004875
      5.65602      8.65038      1.65885        -0.001252     -0.003011     -0.003953
      7.10383      5.77239      0.88107         0.002169      0.006879     -0.000977
      7.05969     13.43006      0.83258        -0.003734     -0.003014      0.000860
     -1.37564     10.62772      2.46167        -0.003392      0.004730     -0.000069
      6.90243      3.82682      2.50207        -0.003041     -0.004707     -0.001813
     -1.47880      0.99474      4.01300        -0.000265      0.010697     -0.001008
     -1.30134      8.55828      4.00444         0.004237     -0.007028      0.001001
     -0.03826      5.75424      3.28027         0.007078      0.007702     -0.000654
     -0.04882     13.47144      3.22763        -0.007304     -0.004377     -0.000024
      1.41580     10.60315      2.39442        -0.001951      0.007274      0.002235
      1.44578      3.85886      2.40866        -0.003878     -0.004294      0.002312
      1.49398      0.91756      4.09919         0.004881      0.002775      0.000538
      1.38248      8.67063      4.06014         0.001451     -0.004411      0.006212
      2.84874      5.75660      3.21394        -0.000507      0.001692      0.004921
      2.79374     13.45825      3.15483         0.004331     -0.005338      0.002604
      4.15235     10.58495      2.39419        -0.007237      0.008446     -0.001687
      4.25305      3.78461      2.30168        -0.001455     -0.002825     -0.001322
      4.32306      0.89981      4.02328         0.005936      0.004693      0.004093
      4.22175      8.66252      4.02288        -0.001387     -0.009243     -0.003383
      5.53606      5.86160      3.13054         0.009417      0.016077     -0.003434
      5.75794     13.40902      3.29403         0.000055     -0.008742     -0.005219
     -2.79852     10.53089      4.86136        -0.003784      0.005679     -0.000329
      5.62355      3.88896      4.84693         0.002435      0.002106     -0.006389
     -2.79411      0.91516      6.50655        -0.001049     -0.002241     -0.002742
     -2.81010      8.62213      6.55718         0.000485     -0.004291      0.000281
     -1.33722      5.76606      5.68820        -0.000452      0.005146      0.004427
     -1.34555     13.44820      5.64120        -0.001973     -0.006401     -0.000355
     -0.11777     10.63729      4.85313        -0.002028      0.009079     -0.001384
      0.15018      3.79699      4.91517        -0.008648     -0.007507      0.002481
      0.22599      0.99751      6.48182         0.001636      0.006787      0.002626
     -0.03010      8.60194      6.45736        -0.000930     -0.001493      0.001235
      1.34724      5.81106      5.61707        -0.005231      0.004464      0.007463
      1.50796     13.32534      5.78683         0.004218     -0.002536     -0.003374
      2.84555     10.52949      4.92063         0.001159      0.005517      0.006777
      2.82843      3.89733      4.90599        -0.002292     -0.010120     -0.000512
      2.87527      0.91223      6.49522         0.003284     -0.001157     -0.004112
      2.94665      8.61464      6.56535         0.004186     -0.009781      0.006412
      4.29760      5.77668      5.84532        -0.000162      0.007266     -0.001800
      4.24362     13.43176      5.68304         0.006498     -0.009225     -0.006793
 -----------------------------------------------------------------------------------
    total drift:                               -0.009511      0.004807     -0.018837


--------------------------------------------------------------------------------------------------------



  FREE ENERGIE OF THE ION-ELECTRON SYSTEM (eV)
  ---------------------------------------------------
  free  energy   TOTEN  =      -579.5813150288 eV

  energy  without entropy=     -579.5380350383  energy(sigma->0) =     -579.55967503
 


--------------------------------------------------------------------------------------------------------


    POTLOK:  cpu time    0.2925: real time    0.2932


--------------------------------------------------------------------------------------------------------


     LOOP+:  cpu time10940.3838: real time10967.4970
    4ORBIT:  cpu time    0.0000: real time    0.0000

volume of typ            1:    12.2 %

volume of typ            2:    19.3 %

volume of typ            3:     9.9 %
 
total charge     
 
# of ion       s       p       d       tot
------------------------------------------
    1        2.079   0.252   0.096   2.428
    2        2.075   0.240   0.091   2.406
    3        2.075   0.238   0.092   2.405
    4        2.074   0.239   0.091   2.404
    5        2.076   0.243   0.092   2.411
    6        2.067   0.220   0.083   2.370
    7        2.069   0.225   0.085   2.379
    8        2.077   0.247   0.094   2.418
    9        2.083   0.264   0.102   2.448
   10        2.072   0.233   0.088   2.393
   11        2.077   0.245   0.094   2.416
   12        2.068   0.222   0.084   2.374
   13        2.069   0.226   0.085   2.381
   14        2.082   0.261   0.100   2.442
   15        0.293   0.401   7.830   8.524
   16        0.276   0.358   7.849   8.483
   17        0.269   0.349   7.853   8.471
   18        0.276   0.360   7.852   8.488
   19        0.297   0.409   7.828   8.534
   20        0.292   0.400   7.833   8.524
   21        0.293   0.402   7.830   8.525
   22        0.295   0.406   7.828   8.528
   23        0.293   0.401   7.831   8.525
   24        0.294   0.404   7.825   8.523
   25        0.276   0.356   7.851   8.483
   26        0.290   0.395   7.833   8.518
   27        0.291   0.397   7.829   8.516
   28        0.293   0.399   7.824   8.516
   29        0.283   0.379   7.832   8.494
   30        0.275   0.355   7.851   8.482
   31        0.271   0.350   7.844   8.465
   32        0.275   0.359   7.848   8.482
   33        0.293   0.400   7.825   8.518
   34        0.294   0.403   7.825   8.521
   35        0.281   0.374   7.846   8.501
   36        0.270   0.349   7.848   8.467
   37        0.300   0.415   7.829   8.544
   38        0.274   0.355   7.850   8.478
   39        0.281   0.374   7.835   8.489
   40        0.272   0.350   7.846   8.468
   41        0.283   0.380   7.831   8.494
   42        1.266   2.770   0.006   4.042
   43        1.271   2.761   0.007   4.039
   44        1.271   2.760   0.007   4.039
   45        1.269   2.765   0.006   4.039
   46        1.269   2.765   0.006   4.040
   47        1.269   2.764   0.006   4.039
   48        1.268   2.765   0.006   4.039
   49        1.268   2.766   0.007   4.041
   50        1.266   2.770   0.006   4.041
   51        1.266   2.772   0.006   4.043
   52        1.268   2.768   0.007   4.043
   53        1.261   2.784   0.006   4.051
   54        1.265   2.775   0.007   4.047
   55        1.266   2.774   0.007   4.046
   56        1.265   2.774   0.007   4.046
   57        1.265   2.775   0.007   4.047
   58        1.261   2.785   0.007   4.052
   59        1.268   2.770   0.007   4.044
   60        1.264   2.778   0.006   4.048
   61        1.273   2.752   0.007   4.032
   62        1.274   2.753   0.007   4.033
   63        1.267   2.766   0.006   4.039
   64        1.261   2.787   0.007   4.055
   65        1.269   2.766   0.007   4.042
   66        1.262   2.782   0.007   4.051
   67        1.270   2.759   0.007   4.037
   68        1.268   2.771   0.008   4.046
   69        1.267   2.773   0.007   4.048
   70        1.267   2.773   0.007   4.047
   71        1.268   2.771   0.007   4.046
   72        1.273   2.758   0.007   4.038
   73        1.269   2.763   0.006   4.038
   74        1.273   2.754   0.007   4.035
   75        1.271   2.762   0.007   4.040
   76        1.264   2.775   0.006   4.045
   77        1.274   2.755   0.007   4.036
   78        1.266   2.776   0.008   4.050
   79        1.266   2.775   0.008   4.048
   80        1.271   2.758   0.008   4.037
   81        1.261   2.786   0.007   4.053
   82        1.265   2.775   0.007   4.047
   83        1.261   2.788   0.007   4.055
   84        1.267   2.767   0.006   4.040
   85        1.276   2.746   0.007   4.028
   86        1.266   2.769   0.006   4.041
   87        1.262   2.781   0.006   4.050
   88        1.274   2.753   0.007   4.034
   89        1.266   2.771   0.006   4.042
   90        1.271   2.765   0.007   4.043
   91        1.270   2.765   0.007   4.042
   92        1.276   2.745   0.007   4.028
   93        1.273   2.758   0.007   4.038
   94        1.271   2.764   0.007   4.042
   95        1.269   2.766   0.007   4.042
--------------------------------------------------
tot         105.19  163.10  213.24  481.54
 
magnetization (x)
 
# of ion       s       p       d       tot
------------------------------------------
    1        0.005   0.012   0.002   0.019
    2        0.004   0.010   0.001   0.015
    3        0.005   0.009   0.001   0.015
    4        0.004   0.008   0.001   0.013
    5        0.005   0.011   0.001   0.017
    6        0.003   0.007   0.001   0.011
    7        0.004   0.007   0.001   0.012
    8        0.005   0.010   0.002   0.016
    9        0.005   0.012   0.002   0.018
   10        0.005   0.011   0.002   0.017
   11        0.005   0.009   0.001   0.015
   12        0.004   0.007   0.001   0.011
   13        0.004   0.010   0.002   0.015
   14        0.005   0.012   0.002   0.018
   15       -0.000  -0.000   0.166   0.165
   16        0.003  -0.000   0.644   0.646
   17        0.001  -0.000   0.705   0.706
   18        0.003  -0.000   0.632   0.634
   19       -0.000  -0.000   0.100   0.099
   20       -0.001   0.000   0.165   0.164
   21       -0.001   0.000   0.141   0.140
   22       -0.001   0.001   0.079   0.079
   23       -0.001   0.000   0.149   0.149
   24       -0.001   0.000   0.127   0.126
   25        0.003  -0.000   0.658   0.661
   26       -0.001   0.000   0.202   0.201
   27       -0.001   0.000   0.146   0.146
   28       -0.001   0.000   0.078   0.077
   29       -0.001  -0.000   0.304   0.304
   30        0.003   0.000   0.669   0.671
   31        0.002  -0.000   0.663   0.664
   32        0.000  -0.000   0.602   0.602
   33       -0.001   0.000   0.104   0.103
   34       -0.001   0.001   0.070   0.070
   35       -0.000  -0.000   0.424   0.424
   36        0.002  -0.000   0.695   0.697
   37       -0.001   0.000   0.080   0.079
   38        0.002  -0.000   0.656   0.658
   39       -0.000  -0.000   0.371   0.370
   40        0.002  -0.000   0.665   0.667
   41       -0.001  -0.000   0.290   0.290
   42        0.009   0.102   0.000   0.112
   43        0.008   0.109   0.000   0.117
   44        0.003   0.013   0.000   0.016
   45        0.007   0.045   0.000   0.053
   46        0.008   0.086   0.000   0.094
   47        0.009   0.098   0.000   0.107
   48        0.010   0.078   0.000   0.088
   49        0.002  -0.002   0.000  -0.000
   50        0.009   0.105   0.000   0.114
   51        0.009   0.104   0.000   0.114
   52        0.002  -0.009   0.000  -0.007
   53        0.005   0.025   0.000   0.030
   54        0.004   0.003   0.000   0.007
   55        0.003   0.001   0.000   0.004
   56        0.003   0.008   0.000   0.012
   57        0.003   0.000   0.000   0.003
   58        0.004   0.019   0.000   0.023
   59        0.003  -0.006   0.000  -0.003
   60        0.005   0.026   0.000   0.030
   61        0.009   0.107   0.000   0.116
   62        0.008   0.098   0.000   0.106
   63        0.011   0.121   0.000   0.132
   64        0.003   0.014   0.000   0.018
   65        0.006   0.027   0.000   0.033
   66        0.003   0.001   0.000   0.004
   67        0.002   0.010   0.000   0.012
   68        0.003  -0.000   0.000   0.003
   69        0.003   0.005   0.000   0.008
   70        0.002   0.002   0.000   0.004
   71        0.006   0.028   0.000   0.034
   72        0.009   0.091   0.000   0.100
   73        0.008   0.081   0.000   0.089
   74        0.007   0.050   0.000   0.057
   75        0.009   0.067   0.000   0.076
   76        0.009   0.111   0.000   0.120
   77        0.008   0.093   0.000   0.101
   78        0.003  -0.002   0.000   0.001
   79        0.003   0.007   0.000   0.010
   80        0.002   0.008   0.000   0.010
   81        0.004   0.010   0.000   0.013
   82        0.002   0.003   0.000   0.006
   83        0.003   0.011   0.000   0.015
   84        0.010   0.108   0.000   0.119
   85        0.008   0.100   0.000   0.108
   86        0.009   0.106   0.000   0.115
   87        0.005   0.025   0.000   0.030
   88        0.008   0.093   0.000   0.101
   89        0.010   0.115   0.000   0.125
   90        0.008   0.056   0.000   0.064
   91        0.005   0.040   0.000   0.045
   92        0.006   0.054   0.000   0.060
   93        0.009   0.098   0.000   0.108
   94        0.009   0.096   0.000   0.105
   95        0.003   0.008   0.000   0.012
--------------------------------------------------
tot           0.39    2.78    9.61   12.78
 

 total amount of memory used by VASP MPI-rank0   543399. kBytes
=======================================================================

   base      :      30000. kBytes
   nonlr-proj:      50132. kBytes
   fftplans  :       9349. kBytes
   grid      :      55332. kBytes
   one-center:       2954. kBytes
   wavefun   :     395632. kBytes
 
  
  
 General timing and accounting informations for this job:
 ========================================================
  
                  Total CPU time used (sec):    11079.447
                            User time (sec):    11048.410
                          System time (sec):       31.037
                         Elapsed time (sec):    11111.730
  
                   Maximum memory used (kb):      694160.
                   Average memory used (kb):           0.
  
                          Minor page faults:        49491
                          Major page faults:           13
                 Voluntary context switches:         1164
