 vasp.5.4.4.18Apr17-6-g9f103f2a35 (build May 12 2020 04:58:55) complex          
  
 MD_VERSION_INFO: Compiled 2020-05-12T11:58:55-UTC in devlin.sd.materialsdesign.
 com:/home/medea2/data/build/wwolf/vasp-gpu5.4.4/13047/x86_64/src/src/build/std 
 from svn 13047
 
 This VASP executable licensed from Materials Design, Inc.
 
 executed on                        Lin64 date 2023.03.17  09:33:11
 running on   16 total cores
 distrk:  each k-point on   16 cores,    1 groups
 distr:  one band on NCORES_PER_BAND=   1 cores,   16 groups


--------------------------------------------------------------------------------------------------------


 INCAR:
 POTCAR:    PAW_PBE Li_sv 10Sep2004               
 POTCAR:    PAW_PBE Ni 02Aug2007                  
 POTCAR:    PAW_PBE O 08Apr2002                   

 ----------------------------------------------------------------------------- 
|                                                                             |
|           W    W    AA    RRRRR   N    N  II  N    N   GGGG   !!!           |
|           W    W   A  A   R    R  NN   N  II  NN   N  G    G  !!!           |
|           W    W  A    A  R    R  N N  N  II  N N  N  G       !!!           |
|           W WW W  AAAAAA  RRRRR   N  N N  II  N  N N  G  GGG   !            |
|           WW  WW  A    A  R   R   N   NN  II  N   NN  G    G                |
|           W    W  A    A  R    R  N    N  II  N    N   GGGG   !!!           |
|                                                                             |
|      For optimal performance we recommend to set                            |
|        NCORE= 4 - approx SQRT( number of cores)                             |
|      NCORE specifies how many cores store one orbital (NPAR=cpu/NCORE).     |
|      This setting can  greatly improve the performance of VASP for DFT.     |
|      The default,   NCORE=1            might be grossly inefficient         |
|      on modern multi-core architectures or massively parallel machines.     |
|      Do your own testing !!!!                                               |
|      Unfortunately you need to use the default for GW and RPA calculations. |
|      (for HF NCORE is supported but not extensively tested yet)             |
|                                                                             |
 ----------------------------------------------------------------------------- 

 POTCAR:    PAW_PBE Li_sv 10Sep2004               
  local pseudopotential read in
  atomic valenz-charges read in
  non local Contribution for L=           0  read in
    real space projection operators read in
  non local Contribution for L=           0  read in
    real space projection operators read in
  non local Contribution for L=           1  read in
    real space projection operators read in
    PAW grid and wavefunctions read in
 
   number of l-projection  operators is LMAX  =           3
   number of lm-projection operators is LMMAX =           5
 
 POTCAR:    PAW_PBE Ni 02Aug2007                  
  local pseudopotential read in
  partial core-charges read in
  partial kinetic energy density read in
  atomic valenz-charges read in
  non local Contribution for L=           2  read in
    real space projection operators read in
  non local Contribution for L=           2  read in
    real space projection operators read in
  non local Contribution for L=           0  read in
    real space projection operators read in
  non local Contribution for L=           0  read in
    real space projection operators read in
  non local Contribution for L=           1  read in
    real space projection operators read in
  non local Contribution for L=           1  read in
    real space projection operators read in
    PAW grid and wavefunctions read in
 
   number of l-projection  operators is LMAX  =           6
   number of lm-projection operators is LMMAX =          18
 
 POTCAR:    PAW_PBE O 08Apr2002                   
  local pseudopotential read in
  partial core-charges read in
  partial kinetic energy density read in
  kinetic energy density of atom read in
  atomic valenz-charges read in
  non local Contribution for L=           0  read in
    real space projection operators read in
  non local Contribution for L=           0  read in
    real space projection operators read in
  non local Contribution for L=           1  read in
    real space projection operators read in
  non local Contribution for L=           1  read in
    real space projection operators read in
    PAW grid and wavefunctions read in
 
   number of l-projection  operators is LMAX  =           4
   number of lm-projection operators is LMMAX =           8
 
 Optimization of the real space projectors (new method)

 maximal supplied QI-value         = 22.11
 optimisation between [QCUT,QGAM] = [ 11.28, 22.77] = [ 35.61,145.23] Ry 
 Optimized for a Real-space Cutoff    1.10 Angstroem

   l    n(q)    QCUT    max X(q) W(low)/X(q) W(high)/X(q)  e(spline) 
   0      7    11.276    10.506    0.54E-04    0.58E-04    0.16E-07
   0      7    11.276     8.367    0.11E-03    0.14E-03    0.35E-07
   1      7    11.276     8.983    0.23E-03    0.43E-03    0.86E-07
 Optimization of the real space projectors (new method)

 maximal supplied QI-value         = 16.25
 optimisation between [QCUT,QGAM] = [ 11.38, 22.75] = [ 36.24,144.96] Ry 
 Optimized for a Real-space Cutoff    1.47 Angstroem

   l    n(q)    QCUT    max X(q) W(low)/X(q) W(high)/X(q)  e(spline) 
   2      9    11.376    60.317    0.17E-03    0.16E-04    0.16E-06
   2      9    11.376    55.921    0.17E-03    0.16E-04    0.17E-06
   0     10    11.376    51.690    0.45E-04    0.60E-04    0.21E-06
   0     10    11.376    30.015    0.37E-04    0.55E-04    0.19E-06
   1     10    11.376    18.849    0.83E-04    0.11E-03    0.92E-07
   1     10    11.376    14.624    0.69E-04    0.92E-04    0.82E-07
 Optimization of the real space projectors (new method)

 maximal supplied QI-value         = 24.76
 optimisation between [QCUT,QGAM] = [ 11.39, 22.77] = [ 36.31,145.25] Ry 
 Optimized for a Real-space Cutoff    1.10 Angstroem

   l    n(q)    QCUT    max X(q) W(low)/X(q) W(high)/X(q)  e(spline) 
   0      7    11.387    20.381    0.22E-03    0.48E-03    0.18E-06
   0      7    11.387    15.268    0.22E-03    0.52E-03    0.19E-06
   1      7    11.387     5.964    0.22E-03    0.73E-03    0.24E-06
   1      7    11.387     5.382    0.19E-03    0.60E-03    0.21E-06

 ----------------------------------------------------------------------------- 
|                                                                             |
|  ADVICE TO THIS USER RUNNING 'VASP/VAMP'   (HEAR YOUR MASTER'S VOICE ...):  |
|                                                                             |
|      You enforced a specific xc-type in the INCAR file,                     |
|      a different type was found on the POTCAR file                          |
|          I HOPE YOU KNOW, WHAT YOU ARE  DOING                               |
|                                                                             |
 ----------------------------------------------------------------------------- 

  PAW_PBE Li_sv 10Sep2004               :
 energy of atom  1       EATOM= -202.7858
 kinetic energy error for atom=    0.0143 (will be added to EATOM!!)
  PAW_PBE Ni 02Aug2007                  :
 energy of atom  2       EATOM=-1077.6739
 kinetic energy error for atom=    0.0030 (will be added to EATOM!!)
  PAW_PBE O 08Apr2002                   :
 energy of atom  3       EATOM= -432.3788
 kinetic energy error for atom=    0.0224 (will be added to EATOM!!)
 
 
 POSCAR: ce283358_1                              
  positions in direct lattice
  No initial velocities read in
 exchange correlation table for  LEXCH =       14
   RHO(1)=    0.500       N(1)  =     2000
   RHO(2)=  100.500       N(2)  =     4000
 


--------------------------------------------------------------------------------------------------------


 ion  position               nearest neighbor table
   1  0.976  0.499  0.973-  92 1.97  93 2.00  57 2.06  80 2.13  39 2.78  40 2.81
   2  0.113  0.833  0.223-  46 2.08  41 2.13  64 2.15  65 2.15  59 2.16  58 2.17
   3  0.204  0.165  0.091-  42 1.99  79 2.02  49 2.13  43 2.17  48 2.18  14 2.82  33 2.84
   4  0.338  0.499  0.002-  50 2.07  45 2.09  51 2.11  86 2.12  81 2.16  80 2.19
   5  0.459  0.834  0.212-  71 2.00  52 2.03  46 2.14  47 2.15  70 2.21  29 2.84
   6  0.995  0.499  0.331-  57 2.10  75 2.14  62 2.14  56 2.15  44 2.15  63 2.19
   7  0.113  0.834  0.587-  82 2.00  77 2.03  83 2.09  76 2.10  32 2.82  34 2.82
   8  0.553  0.166  0.443-  72 2.07  49 2.10  67 2.13  66 2.15  90 2.17  73 2.17
   9  0.666  0.501  0.369-  74 1.99  69 2.00  75 2.04  50 2.05  28 2.77  30 2.77
  10  0.905  0.168  0.435-  61 1.99  60 2.00  55 2.15  78 2.18  72 2.27  23 2.83  24 2.83
  11  0.355  0.502  0.658-  87 1.99  68 2.01  63 2.12  86 2.14  62 2.16  27 2.79  37 2.80
  12  0.560  0.167  0.809-  85 2.01  54 2.02  91 2.09  84 2.10  36 2.79  20 2.82
  13  0.764  0.832  0.867-  89 2.00  88 2.00  41 2.15  94 2.16  53 2.22  58 2.27  38 2.84
  14  0.001  1.000  1.000-  79 1.86  43 1.87  94 1.87  58 1.88  91 2.00  46 2.03  32 2.79  23 2.79
                            17 2.81   3 2.82  38 2.82  20 2.83  26 2.83
  15  0.115  0.333  0.224-  57 1.85  42 1.86  66 1.90  63 1.91  60 1.95  45 1.97  27 2.79  18 2.80
                            24 2.81  33 2.82  39 2.83  21 2.88
  16  0.222  0.664  0.111-  65 1.85  80 1.86  47 1.88  44 1.91  50 2.03  41 2.04  25 2.78  28 2.80
                            34 2.80  40 2.81  22 2.84  19 2.84
  17  0.333  0.001  0.002-  79 1.86  52 1.86  82 1.92  49 1.93  85 1.95  46 1.96  26 2.80  29 2.81
                            14 2.81  35 2.82  32 2.83  20 2.85
  18  0.445  0.333  0.223-  51 1.87  66 1.87  48 1.88  69 1.88  45 1.90  72 1.90  36 2.80  15 2.80
                            27 2.80  21 2.80  30 2.81  33 2.82
  19  0.556  0.664  0.109-  50 1.85  71 1.86  47 1.87  53 1.89  56 1.90  86 1.91  37 2.77  28 2.81
                            22 2.81  34 2.83  31 2.83  16 2.84
  20  0.668  0.998  0.000-  88 1.85  91 1.86  85 1.86  55 1.90  52 1.90  58 1.91  29 2.79  38 2.80
                            23 2.81  12 2.82  14 2.83  35 2.83  17 2.85
  21  0.773  0.336  0.219-  75 1.86  60 1.86  54 1.88  51 1.90  72 2.02  57 2.03  36 2.78  39 2.79
                            18 2.80  30 2.82  24 2.85  15 2.88
  22  0.888  0.667  0.112-  41 1.86  92 1.86  53 1.87  44 1.88  56 1.89  59 1.91  31 2.78  40 2.80
                            19 2.81  25 2.82  37 2.82  16 2.84
  23  0.999  1.000  0.332-  61 1.85  76 1.86  55 1.87  64 1.88  43 1.89  58 1.90  14 2.79  32 2.80
                            20 2.81  26 2.82  35 2.83  29 2.83  10 2.83
  24  0.109  0.334  0.556-  78 1.85  60 1.86  63 1.86  81 1.89  84 2.05  75 2.07  33 2.76  15 2.81
                            30 2.83  10 2.83  27 2.84  36 2.84  21 2.85
  25  0.222  0.667  0.444-  83 1.85  62 1.86  68 1.87  59 1.88  44 1.90  65 1.90  16 2.78  34 2.80
                            28 2.81  22 2.82  37 2.83  31 2.84
  26  0.333  1.000  0.336-  49 1.85  46 1.85  70 1.87  43 1.87  67 1.89  64 1.90  35 2.76  17 2.80
                            38 2.81  23 2.82  14 2.83  29 2.84
  27  0.443  0.335  0.556-  84 1.85  87 1.85  90 1.87  69 1.89  63 1.90  66 1.90  36 2.78  11 2.79
                            15 2.79  18 2.80  30 2.82  24 2.84  39 2.85
  28  0.552  0.668  0.442-  71 1.85  74 1.87  68 1.89  65 1.90  89 1.95  50 1.96   9 2.77  16 2.80
                            19 2.81  37 2.81  25 2.81  31 2.84  40 2.86
  29  0.666  1.000  0.332-  52 1.86  70 1.87  55 1.87  73 1.87  76 2.02  49 2.05  38 2.79  20 2.79
                            17 2.81  32 2.83  23 2.83   5 2.84  26 2.84
  30  0.776  0.335  0.556-  72 1.86  78 1.87  69 1.89  93 1.89  75 1.89  90 1.91   9 2.77  39 2.78
                            18 2.81  21 2.82  27 2.82  24 2.83  33 2.84
  31  0.888  0.669  0.445-  77 1.85  56 1.87  74 1.87  59 1.91  71 2.02  62 2.06  22 2.78  40 2.80
                            34 2.81  19 2.83  25 2.84  28 2.84
  32  1.000  0.002  0.666-  61 1.86  76 1.86  82 1.87  94 1.90  79 1.90  73 1.91  14 2.79  23 2.80
                            38 2.81   7 2.82  29 2.83  17 2.83  35 2.84
  33  0.114  0.332  0.887-  42 1.85  45 1.88  93 1.88  48 1.89  81 1.89  78 1.91  24 2.76  36 2.81
                            15 2.82  18 2.82  30 2.84  39 2.84   3 2.84
  34  0.220  0.664  0.776-  83 1.86  77 1.87  86 1.88  62 1.90  47 1.90  80 1.91  25 2.80  16 2.80
                            31 2.81  40 2.82   7 2.82  19 2.83  37 2.83
  35  0.334  0.001  0.665-  85 1.85  82 1.86  64 1.90  67 1.90  88 2.03  61 2.04  26 2.76  17 2.82
                            23 2.83  20 2.83  38 2.83  32 2.84
  36  0.446  0.333  0.889-  84 1.85  87 1.86  54 1.87  81 1.87  51 1.90  48 1.90  27 2.78  21 2.78
                            12 2.79  18 2.80  33 2.81  24 2.84  39 2.84
  37  0.555  0.666  0.778-  53 1.86  68 1.86  89 1.87  86 1.92  92 2.01  83 2.02  19 2.77  11 2.80
                            28 2.81  22 2.82  25 2.83  34 2.83  40 2.84
  38  0.668  1.000  0.666-  88 1.85  91 1.86  94 1.87  67 1.88  70 1.90  73 1.90  29 2.79  20 2.80
                            32 2.81  26 2.81  14 2.82  35 2.83  13 2.84
  39  0.782  0.334  0.891-  54 1.85  93 1.86  57 1.91  90 1.92  42 2.02  87 2.03  30 2.78   1 2.78
                            21 2.79  15 2.83  33 2.84  36 2.84  27 2.85
  40  0.890  0.667  0.780-  92 1.86  89 1.86  77 1.90  74 1.90  41 1.91  80 1.92  22 2.80  31 2.80
                            16 2.81   1 2.81  34 2.82  37 2.84  28 2.86
  41  0.987  0.738  0.000-  22 1.86  40 1.91  16 2.04   2 2.13  13 2.15
  42  0.020  0.265  0.008-  33 1.85  15 1.86   3 1.99  39 2.02
  43  0.114  0.065  0.222-  14 1.87  26 1.87  23 1.89   3 2.17
  44  0.104  0.598  0.221-  22 1.88  25 1.90  16 1.91   6 2.15
  45  0.227  0.403  0.103-  33 1.88  18 1.90  15 1.97   4 2.09
  46  0.235  0.927  0.128-  26 1.85  17 1.96  14 2.03   2 2.08   5 2.14
  47  0.337  0.729  0.003-  19 1.87  16 1.88  34 1.90   5 2.15
  48  0.335  0.266  0.001-  18 1.88  33 1.89  36 1.90   3 2.18
  49  0.428  0.073  0.224-  26 1.85  17 1.93  29 2.05   8 2.10   3 2.13
  50  0.457  0.592  0.220-  19 1.85  28 1.96  16 2.03   9 2.05   4 2.07
  51  0.551  0.401  0.112-  18 1.87  36 1.90  21 1.90   4 2.11
  52  0.550  0.935  0.111-  29 1.86  17 1.86  20 1.90   5 2.03
  53  0.668  0.731  0.999-  37 1.86  22 1.87  19 1.89  13 2.22
  54  0.668  0.270  0.996-  39 1.85  36 1.87  21 1.88  12 2.02
  55  0.780  0.064  0.225-  23 1.87  29 1.87  20 1.90  10 2.15
  56  0.781  0.600  0.228-  31 1.87  22 1.89  19 1.90   6 2.15
  57  0.907  0.405  0.112-  15 1.85  39 1.91  21 2.03   1 2.06   6 2.10
  58  0.892  0.932  0.109-  14 1.88  23 1.90  20 1.91   2 2.17  13 2.27
  59  0.006  0.735  0.336-  25 1.88  22 1.91  31 1.91   2 2.16
  60  0.990  0.270  0.335-  21 1.86  24 1.86  15 1.95  10 2.00
  61  0.094  0.070  0.546-  23 1.85  32 1.86  10 1.99  35 2.04
  62  0.125  0.594  0.555-  25 1.86  34 1.90  31 2.06   6 2.14  11 2.16
  63  0.221  0.401  0.450-  24 1.86  27 1.90  15 1.91  11 2.12   6 2.19
  64  0.217  0.932  0.443-  23 1.88  35 1.90  26 1.90   2 2.15
  65  0.329  0.733  0.326-  16 1.85  25 1.90  28 1.90   2 2.15
  66  0.336  0.266  0.333-  18 1.87  15 1.90  27 1.90   8 2.15
  67  0.451  0.068  0.559-  38 1.88  26 1.89  35 1.90   8 2.13
  68  0.443  0.603  0.556-  37 1.86  25 1.87  28 1.89  11 2.01
  69  0.554  0.401  0.444-  18 1.88  30 1.89  27 1.89   9 2.00
  70  0.553  0.935  0.440-  29 1.87  26 1.87  38 1.90   5 2.21
  71  0.647  0.735  0.321-  28 1.85  19 1.86   5 2.00  31 2.02
  72  0.662  0.263  0.344-  30 1.86  18 1.90  21 2.02   8 2.07  10 2.27
  73  0.775  0.068  0.551-  29 1.87  38 1.90  32 1.91   8 2.17
  74  0.773  0.604  0.551-  28 1.87  31 1.87  40 1.90   9 1.99
  75  0.867  0.407  0.431-  21 1.86  30 1.89   9 2.04  24 2.07   6 2.14
  76  0.905  0.932  0.453-  32 1.86  23 1.86  29 2.02   7 2.10
  77  0.004  0.731  0.667-  31 1.85  34 1.87  40 1.90   7 2.03
  78  0.993  0.269  0.658-  24 1.85  30 1.87  33 1.91  10 2.18
  79  0.115  0.065  0.895-  17 1.86  14 1.86  32 1.90   3 2.02
  80  0.111  0.597  0.894-  16 1.86  34 1.91  40 1.92   1 2.13   4 2.19
  81  0.228  0.400  0.781-  36 1.87  33 1.89  24 1.89   4 2.16
  82  0.218  0.937  0.770-  35 1.86  32 1.87  17 1.92   7 2.00
  83  0.316  0.735  0.660-  25 1.85  34 1.86  37 2.02   7 2.09
  84  0.351  0.264  0.675-  36 1.85  27 1.85  24 2.05  12 2.10
  85  0.452  0.065  0.885-  35 1.85  20 1.86  17 1.95  12 2.01
  86  0.437  0.596  0.883-  34 1.88  19 1.91  37 1.92   4 2.12  11 2.14
  87  0.541  0.403  0.771-  27 1.85  36 1.86  11 1.99  39 2.03
  88  0.573  0.930  0.784-  38 1.85  20 1.85  13 2.00  35 2.03
  89  0.673  0.733  0.677-  40 1.86  37 1.87  28 1.95  13 2.00
  90  0.660  0.267  0.664-  27 1.87  30 1.91  39 1.92   8 2.17
  91  0.764  0.068  0.882-  38 1.86  20 1.86  14 2.00  12 2.09
  92  0.793  0.598  0.897-  40 1.86  22 1.86   1 1.97  37 2.01
  93  0.895  0.398  0.784-  39 1.86  33 1.88  30 1.89   1 2.00
  94  0.887  0.935  0.778-  14 1.87  38 1.87  32 1.90  13 2.16
 
  LATTYP: Found a triclinic cell.
 ALAT       =     8.3830206868
 B/A-ratio  =     1.0124092540
 C/A-ratio  =     1.7259149452
 COS(alpha) =     0.0000351650
 COS(beta)  =     0.0019296604
 COS(gamma) =     0.4961959615
  
  Lattice vectors:
  
 A1 = (  -4.1596210100,  -0.0160301100,   7.2782093900)
 A2 = (  -8.4870477200,   0.0000000000,   0.0000000000)
 A3 = (  -0.0005087800, -14.4683806800,   0.0000000000)


Analysis of symmetry for initial positions (statically):
=====================================================================
 Subroutine PRICEL returns:
 Original cell was already a primitive cell.
 

 Routine SETGRP: Setting up the symmetry group for a 
 triclinic supercell.


 Subroutine GETGRP returns: Found  1 space group operations
 (whereof  1 operations were pure point group operations)
 out of a pool of  2 trial point group operations.


The static configuration has the point symmetry C_1 .


Analysis of symmetry for dynamics (positions and initial velocities):
=====================================================================
 Subroutine PRICEL returns:
 Original cell was already a primitive cell.
 

 Routine SETGRP: Setting up the symmetry group for a 
 triclinic supercell.


 Subroutine GETGRP returns: Found  1 space group operations
 (whereof  1 operations were pure point group operations)
 out of a pool of  2 trial point group operations.


The dynamic configuration has the point symmetry C_1 .


Analysis of structural, dynamic, and magnetic symmetry:
=====================================================================
 Subroutine PRICEL returns:
 Original cell was already a primitive cell.
 

 Routine SETGRP: Setting up the symmetry group for a 
 triclinic supercell.


 Subroutine GETGRP returns: Found  1 space group operations
 (whereof  1 operations were pure point group operations)
 out of a pool of  2 trial point group operations.


The magnetic configuration has the point symmetry C_1 .


 Subroutine INISYM returns: Found  1 space group operations
 (whereof  1 operations are pure point group operations),
 and found     1 'primitive' translations

 
 
 KPOINTS: Automatic mesh                          

Automatic generation of k-mesh.
Space group operators:
 irot       det(A)        alpha          n_x          n_y          n_z        tau_x        tau_y        tau_z
    1     1.000000     0.000000     1.000000     0.000000     0.000000     0.000000     0.000000     0.000000
 
 Subroutine IBZKPT returns following result:
 ===========================================
 
 Found     20 irreducible k-points:
 
 Following reciprocal coordinates:
            Coordinates               Weight
  0.000000  0.000000  0.000000      1.000000
  0.250000 -0.000000 -0.000000      2.000000
  0.500000 -0.000000 -0.000000      1.000000
  0.000000  0.500000 -0.000000      1.000000
  0.250000  0.500000 -0.000000      2.000000
  0.500000  0.500000 -0.000000      1.000000
  0.000000  0.000000  0.250000      2.000000
  0.250000 -0.000000  0.250000      2.000000
  0.500000 -0.000000  0.250000      2.000000
 -0.250000  0.000000  0.250000      2.000000
  0.000000  0.500000  0.250000      2.000000
  0.250000  0.500000  0.250000      2.000000
  0.500000  0.500000  0.250000      2.000000
 -0.250000  0.500000  0.250000      2.000000
  0.000000  0.000000  0.500000      1.000000
  0.250000 -0.000000  0.500000      2.000000
  0.500000 -0.000000  0.500000      1.000000
  0.000000  0.500000  0.500000      1.000000
  0.250000  0.500000  0.500000      2.000000
  0.500000  0.500000  0.500000      1.000000
 
 Following cartesian coordinates:
            Coordinates               Weight
  0.000000  0.000000  0.000000      1.000000
  0.029457 -0.000001  0.016835      2.000000
  0.058913 -0.000002  0.033670      1.000000
  0.000000  0.034558  0.000076      1.000000
  0.029457  0.034557  0.016911      2.000000
  0.058913  0.034556  0.033746      1.000000
  0.000000  0.000000  0.034349      2.000000
  0.029457 -0.000001  0.051184      2.000000
  0.058913 -0.000002  0.068019      2.000000
 -0.029457  0.000001  0.017514      2.000000
  0.000000  0.034558  0.034425      2.000000
  0.029457  0.034557  0.051260      2.000000
  0.058913  0.034556  0.068095      2.000000
 -0.029457  0.034559  0.017590      2.000000
  0.000000  0.000000  0.068698      1.000000
  0.029457 -0.000001  0.085533      2.000000
  0.058913 -0.000002  0.102368      1.000000
  0.000000  0.034558  0.068774      1.000000
  0.029457  0.034557  0.085609      2.000000
  0.058913  0.034556  0.102444      1.000000
 


--------------------------------------------------------------------------------------------------------




 Dimension of arrays:
   k-points           NKPTS =     20   k-points in BZ     NKDIM =     20   number of bands    NBANDS=    416
   number of dos      NEDOS =    301   number of ions     NIONS =     94
   non local maximal  LDIM  =      6   non local SUM 2l+1 LMDIM =     18
   total plane-waves  NPLWV = 442368
   max r-space proj   IRMAX =   6695   max aug-charges    IRDMAX=  16242
   dimension x,y,z NGX =    64 NGY =  108 NGZ =   64
   dimension x,y,z NGXF=   128 NGYF=  216 NGZF=  128
   support grid    NGXF=   128 NGYF=  216 NGZF=  128
   ions per type =              13  27  54
   NGX,Y,Z   is equivalent  to a cutoff of  12.54, 12.41, 12.69 a.u.
   NGXF,Y,Z  is equivalent  to a cutoff of  25.07, 24.82, 25.38 a.u.

 SYSTEM =  unknown system                          
 POSCAR =  ce283358_1                              

 Startparameter for this run:
   NWRITE =      1    write-flag & timer
   PREC   = accura    normal or accurate (medium, high low for compatibility)
   ISTART =      0    job   : 0-new  1-cont  2-samecut
   ICHARG =      2    charge: 1-file 2-atom 10-const
   ISPIN  =      2    spin polarized calculation?
   LNONCOLLINEAR =      F non collinear calculations
   LSORBIT =      F    spin-orbit coupling
   INIWAV =      1    electr: 0-lowe 1-rand  2-diag
   LASPH  =      F    aspherical Exc in radial PAW
   METAGGA=      F    non-selfconsistent MetaGGA calc.

 Electronic Relaxation 1
   ENCUT  =  500.0 eV  36.75 Ry    6.06 a.u.  15.47 26.38 15.28*2*pi/ulx,y,z
   ENINI  =  500.0     initial cutoff
   ENAUG  =  628.9 eV  augmentation charge cutoff
   NELM   =     80;   NELMIN=  2; NELMDL= -5     # of ELM steps 
   EDIFF  = 0.1E-04   stopping-criterion for ELM
   LREAL  =      T    real-space projection
   NLSPLINE    = F    spline interpolate recip. space projectors
   LCOMPAT=      F    compatible to vasp.4.4
   GGA_COMPAT  = T    GGA compatible to vasp.4.4-vasp.4.6
   LMAXPAW     = -100 max onsite density
   LMAXMIX     =    2 max onsite mixed and CHGCAR
   VOSKOWN=      1    Vosko Wilk Nusair interpolation
   ROPT   =   -0.00025  -0.00025  -0.00025
 Ionic relaxation
   EDIFFG = 0.1E-03   stopping-criterion for IOM
   NSW    =      0    number of steps for IOM
   NBLOCK =      1;   KBLOCK =      1    inner block; outer block 
   IBRION =     -1    ionic relax: 0-MD 1-quasi-New 2-CG
   NFREE  =      0    steps in history (QN), initial steepest desc. (CG)
   ISIF   =      2    stress and relaxation
   IWAVPR =     10    prediction:  0-non 1-charg 2-wave 3-comb
   ISYM   =      2    0-nonsym 1-usesym 2-fastsym
   LCORR  =      T    Harris-Foulkes like correction to forces

   POTIM  = 0.5000    time-step for ionic-motion
   TEIN   =    0.0    initial temperature
   TEBEG  =    0.0;   TEEND  =   0.0 temperature during run
   SMASS  =  -3.00    Nose mass-parameter (am)
   estimated Nose-frequenzy (Omega)   =  0.10E-29 period in steps =****** mass=  -0.165E-26a.u.
   SCALEE = 1.0000    scale energy and forces
   NPACO  =    256;   APACO  = 16.0  distance and # of slots for P.C.
   PSTRESS=    0.0 pullay stress

  Mass of Ions in am
   POMASS =   7.01 58.69 16.00
  Ionic Valenz
   ZVAL   =   3.00 10.00  6.00
  Atomic Wigner-Seitz radii
   RWIGS  =   1.23  1.15  0.73
  virtual crystal weights 
   VCA    =   1.00  1.00  1.00
   NELECT =     633.0000    total number of electrons
   NUPDOWN=      -1.0000    fix difference up-down

 DOS related values:
   EMIN   =  10.00;   EMAX   =-10.00  energy-range for DOS
   EFERMI =   0.00
   ISMEAR =     0;   SIGMA  =   0.05  broadening in eV -4-tet -1-fermi 0-gaus

 Electronic relaxation 2 (details)
   IALGO  =     38    algorithm
   LDIAG  =      T    sub-space diagonalisation (order eigenvalues)
   LSUBROT=      F    optimize rotation matrix (better conditioning)
   TURBO    =      0    0=normal 1=particle mesh
   IRESTART =      0    0=no restart 2=restart with 2 vectors
   NREBOOT  =      0    no. of reboots
   NMIN     =      0    reboot dimension
   EREF     =   0.00    reference energy to select bands
   IMIX   =      4    mixing-type and parameters
     AMIX     =   0.40;   BMIX     =  1.00
     AMIX_MAG =   1.60;   BMIX_MAG =  1.00
     AMIN     =   0.10
     WC   =   100.;   INIMIX=   1;  MIXPRE=   1;  MAXMIX= -45

 Intra band minimization:
   WEIMIN = 0.0000     energy-eigenvalue tresh-hold
   EBREAK =  0.60E-08  absolut break condition
   DEPER  =   0.30     relativ break condition  

   TIME   =   0.40     timestep for ELM

  volume/ion in A,a.u.               =       9.51        64.16
  Fermi-wavevector in a.u.,A,eV,Ry     =   1.459293  2.757663 28.974079  2.129535
  Thomas-Fermi vector in A             =   2.575877
 
 Write flags
   LWAVE        =      F    write WAVECAR
   LDOWNSAMPLE  =      F    k-point downsampling of WAVECAR
   LCHARG       =      T    write CHGCAR
   LVTOT        =      F    write LOCPOT, total local potential
   LVHAR        =      F    write LOCPOT, Hartree potential only
   LELF         =      F    write electronic localiz. function (ELF)
   LORBIT       =      0    0 simple, 1 ext, 2 COOP (PROOUT), +10 PAW based schemes


 Dipole corrections
   LMONO  =      F    monopole corrections only (constant potential shift)
   LDIPOL =      F    correct potential (dipole corrections)
   IDIPOL =      0    1-x, 2-y, 3-z, 4-all directions 
   EPSILON=  1.0000000 bulk dielectric constant

 Exchange correlation treatment:
   GGA     =    PS    GGA type
   LEXCH   =    14    internal setting for exchange type
   VOSKOWN=      1    Vosko Wilk Nusair interpolation
   LHFCALC =     F    Hartree Fock is set to
   LHFONE  =     F    Hartree Fock one center treatment
   AEXX    =    0.0000 exact exchange contribution

 Linear response parameters
   LEPSILON=     F    determine dielectric tensor
   LRPA    =     F    only Hartree local field effects (RPA)
   LNABLA  =     F    use nabla operator in PAW spheres
   LVEL    =     F    velocity operator in full k-point grid
   LINTERFAST=   F  fast interpolation
   KINTER  =     0    interpolate to denser k-point grid
   CSHIFT  =0.1000    complex shift for real part using Kramers Kronig
   OMEGAMAX=  -1.0    maximum frequency
   DEG_THRESHOLD= 0.2000000E-02 threshold for treating states as degnerate
   RTIME   =   -0.100 relaxation time in fs
  (WPLASMAI=    0.000 imaginary part of plasma frequency in eV, 0.658/RTIME)
   DFIELD  = 0.0000000 0.0000000 0.0000000 field for delta impulse in time
 
 Orbital magnetization related:
   ORBITALMAG=     F  switch on orbital magnetization
   LCHIMAG   =     F  perturbation theory with respect to B field
   DQ        =  0.001000  dq finite difference perturbation B field
   LLRAUG    =     F  two centre corrections for induced B field



--------------------------------------------------------------------------------------------------------


 Static calculation
 charge density and potential will be updated during run
 spin polarized calculation
 Variant of blocked Davidson
 Davidson routine will perform the subspace rotation
 perform sub-space diagonalisation
    after iterative eigenvector-optimisation
 modified Broyden-mixing scheme, WC =      100.0
 initial mixing is a Kerker type mixing with AMIX =  0.4000 and BMIX =      1.0000
 Hartree-type preconditioning will be used
 using additional bands           99
 real space projection scheme for non local part
 use partial core corrections
 calculate Harris-corrections to forces 
   (improved forces if not selfconsistent)
 use gradient corrections 
 use of overlap-Matrix (Vanderbilt PP)
 Gauss-broadening in eV      SIGMA  =   0.05


--------------------------------------------------------------------------------------------------------


  energy-cutoff  :      500.00
  volume of cell :      893.72
      direct lattice vectors                 reciprocal lattice vectors
     8.487047720  0.000000000  0.000000000     0.117826603 -0.000004143  0.067339907
     0.000508780 14.468380680  0.000000000     0.000000000  0.069116235  0.000152227
    -4.159621010 -0.016030110  7.278209390     0.000000000  0.000000000  0.137396432

  length of vectors
     8.487047720 14.468380689  8.383020687     0.135712090  0.069116403  0.137396432


 
 k-points in units of 2pi/SCALE and weight: Automatic mesh                          
   0.00000000  0.00000000  0.00000000       0.031
   0.02945665 -0.00000104  0.01683498       0.062
   0.05891330 -0.00000207  0.03366995       0.031
   0.00000000  0.03455812  0.00007611       0.031
   0.02945665  0.03455708  0.01691109       0.062
   0.05891330  0.03455605  0.03374607       0.031
   0.00000000  0.00000000  0.03434911       0.062
   0.02945665 -0.00000104  0.05118408       0.062
   0.05891330 -0.00000207  0.06801906       0.062
  -0.02945665  0.00000104  0.01751413       0.062
   0.00000000  0.03455812  0.03442522       0.062
   0.02945665  0.03455708  0.05126020       0.062
   0.05891330  0.03455605  0.06809518       0.062
  -0.02945665  0.03455915  0.01759024       0.062
   0.00000000  0.00000000  0.06869822       0.031
   0.02945665 -0.00000104  0.08553319       0.062
   0.05891330 -0.00000207  0.10236817       0.031
   0.00000000  0.03455812  0.06877433       0.031
   0.02945665  0.03455708  0.08560931       0.062
   0.05891330  0.03455605  0.10244428       0.031
 
 k-points in reciprocal lattice and weights: Automatic mesh                          
   0.00000000  0.00000000  0.00000000       0.031
   0.25000000 -0.00000000 -0.00000000       0.062
   0.50000000 -0.00000000 -0.00000000       0.031
   0.00000000  0.50000000 -0.00000000       0.031
   0.25000000  0.50000000 -0.00000000       0.062
   0.50000000  0.50000000 -0.00000000       0.031
   0.00000000  0.00000000  0.25000000       0.062
   0.25000000 -0.00000000  0.25000000       0.062
   0.50000000 -0.00000000  0.25000000       0.062
  -0.25000000  0.00000000  0.25000000       0.062
   0.00000000  0.50000000  0.25000000       0.062
   0.25000000  0.50000000  0.25000000       0.062
   0.50000000  0.50000000  0.25000000       0.062
  -0.25000000  0.50000000  0.25000000       0.062
   0.00000000  0.00000000  0.50000000       0.031
   0.25000000 -0.00000000  0.50000000       0.062
   0.50000000 -0.00000000  0.50000000       0.031
   0.00000000  0.50000000  0.50000000       0.031
   0.25000000  0.50000000  0.50000000       0.062
   0.50000000  0.50000000  0.50000000       0.031
 
 position of ions in fractional coordinates (direct lattice) 
   0.97588341  0.49888033  0.97291790
   0.11345682  0.83341771  0.22253262
   0.20426190  0.16468962  0.09058942
   0.33807957  0.49949688  0.00209695
   0.45915214  0.83422899  0.21172365
   0.99479942  0.49883004  0.33112167
   0.11283127  0.83358318  0.58688576
   0.55278310  0.16636671  0.44341780
   0.66563978  0.50143502  0.36859212
   0.90527776  0.16827503  0.43546556
   0.35485371  0.50164856  0.65807838
   0.56001922  0.16712904  0.80912421
   0.76363199  0.83218615  0.86712818
   0.00100990  0.99980689  0.99992555
   0.11538804  0.33316707  0.22420739
   0.22174683  0.66398935  0.11147099
   0.33293702  0.00065630  0.00152898
   0.44485391  0.33299128  0.22272137
   0.55554193  0.66383245  0.10900273
   0.66782474  0.99821829  0.00001913
   0.77347406  0.33584477  0.21922487
   0.88774912  0.66674965  0.11244571
   0.99935034  0.99979719  0.33232554
   0.10907600  0.33418990  0.55601283
   0.22221435  0.66652185  0.44370612
   0.33321568  0.99975817  0.33610571
   0.44333613  0.33460491  0.55632870
   0.55227161  0.66793747  0.44193228
   0.66584808  0.99970608  0.33196139
   0.77558933  0.33516489  0.55637748
   0.88828566  0.66901132  0.44474461
   0.99950490  0.00197063  0.66630965
   0.11405901  0.33206701  0.88724505
   0.22019518  0.66378492  0.77612331
   0.33416866  0.00053591  0.66540920
   0.44602732  0.33326566  0.88922355
   0.55517883  0.66594448  0.77831519
   0.66802378  0.99980431  0.66584324
   0.78158438  0.33440392  0.89065197
   0.89023674  0.66697603  0.78009152
   0.98712788  0.73798924  0.00049379
   0.01989732  0.26487598  0.00840466
   0.11356021  0.06500625  0.22156290
   0.10402802  0.59816220  0.22080340
   0.22711893  0.40261585  0.10349675
   0.23533842  0.92650372  0.12764337
   0.33669134  0.72888073  0.00343974
   0.33469365  0.26610863  0.00126091
   0.42820422  0.07287579  0.22352275
   0.45718378  0.59154410  0.22037710
   0.55080360  0.40149139  0.11183596
   0.55012498  0.93544465  0.11115867
   0.66756401  0.73068538  0.99856697
   0.66800755  0.27038958  0.99629062
   0.78024201  0.06448434  0.22502943
   0.78085643  0.59961958  0.22779248
   0.90747699  0.40481446  0.11227075
   0.89159014  0.93150490  0.10881976
   0.00603362  0.73492189  0.33649748
   0.98978043  0.27013884  0.33479021
   0.09398267  0.06992896  0.54563801
   0.12458841  0.59362603  0.55546018
   0.22071650  0.40108701  0.44951334
   0.21693263  0.93246525  0.44265726
   0.32870365  0.73341839  0.32601878
   0.33580378  0.26576414  0.33301825
   0.45120082  0.06762919  0.55881520
   0.44277257  0.60250285  0.55645705
   0.55431584  0.40054355  0.44381059
   0.55278137  0.93464864  0.43971528
   0.64684867  0.73496715  0.32096563
   0.66216587  0.26308167  0.34396393
   0.77538269  0.06789600  0.55085952
   0.77264467  0.60381883  0.55067360
   0.86684936  0.40698740  0.43137755
   0.90508309  0.93153639  0.45306998
   0.00404039  0.73123978  0.66718504
   0.99311825  0.26865071  0.65778876
   0.11515535  0.06525094  0.89522156
   0.11141886  0.59695302  0.89367902
   0.22847931  0.40027288  0.78056024
   0.21782234  0.93676916  0.76979606
   0.31619052  0.73454277  0.65959513
   0.35114813  0.26416946  0.67549176
   0.45170185  0.06488256  0.88517324
   0.43725916  0.59606856  0.88329522
   0.54140522  0.40332773  0.77126369
   0.57323903  0.93029439  0.78409097
   0.67280099  0.73262561  0.67682174
   0.65991885  0.26703705  0.66420113
   0.76425882  0.06795415  0.88240431
   0.79331742  0.59761856  0.89718698
   0.89487593  0.39835902  0.78357265
   0.88739179  0.93515678  0.77767233
 
 position of ions in cartesian coordinates  (Angst):
   4.23565315  7.20239455  7.08110020
   0.03768611 12.05463747  1.61963900
   1.35684663  2.38133996  0.65932877
   2.86082906  7.22687739  0.01526204
   3.01658042 12.06654865  1.54096906
   7.06582329  7.21195500  2.40997285
  -1.48319385 12.05119093  4.27147745
   2.84713120  2.39994886  3.22728760
   4.11636817  7.24904418  2.68269063
   5.87184947  2.42768663  3.16940953
   0.27455894  7.24749326  4.78963224
   1.38734481  2.40511622  5.88897542
   2.87447994 12.02648585  6.31114046
  -4.15023157 14.44955777  7.27766753
   0.04685554  4.81679393  1.63182833
   1.41863668  9.60506379  0.81130921
   2.81929273  0.00947109  0.01112824
   2.84922929  4.81427435  1.62101277
   4.26183857  9.60283327  0.79334469
   5.66828874 14.44260191  0.00013923
   5.65278975  4.85561578  1.59556451
   7.06697684  9.64498524  0.81840342
   7.09969440 14.46011913  2.41873487
  -1.38689940  4.82627375  4.04677780
   0.04063361  9.63637920  3.22938605
   1.43045366 14.45949398  2.44624773
   1.44866858  4.83227321  4.04907677
   2.84922454  9.65688936  3.21647567
   4.27075949 14.45880676  2.41608451
   4.26831472  4.84037443  4.04943180
   5.68929414  9.67238115  3.23694440
   5.71125117  0.01783081  4.84954115
  -2.72240994  4.79024928  6.45755525
  -1.35923411  9.59145157  5.64878796
   0.06825555 -0.00291283  4.84298749
   0.08679175  4.80756009  6.47195519
   1.47467183  9.62266177  5.66474092
   2.90040285 14.45487582  4.84614652
   2.92873942  4.82400597  6.48235153
   4.31093596  9.63755815  5.67766943
   8.37612292 10.67750135  0.00359391
   0.13404407  3.83219178  0.06117088
   0.04220630  0.93698349  1.61258118
  -0.03526336  8.65089892  1.60705338
   1.49726678  5.82354032  0.75327102
   1.46685174 13.40296239  0.92901517
   2.84357829 10.54566873  0.02503515
   2.83545146  3.85014075  0.00917717
   2.70445680  1.05081158  1.62684538
   2.96375631  8.55515256  1.60395068
   4.20970550  5.80713753  0.81396553
   4.20703495 13.53258742  0.80903608
   1.51235922 10.55582710  7.26777950
   1.52535813  3.89612873  7.25121175
   5.68594684  0.92937673  1.63781131
   5.67994047  8.67187281  1.65792137
   7.23500271  5.85521000  0.81713003
   7.11479304 13.47562311  0.79201300
  -1.34812045 10.62773558  2.44909912
   7.00785079  3.90310485  2.43667325
  -1.47197635  1.00301218  3.97126769
  -1.25281403  8.57990330  4.04275550
   0.00363040  5.79587380  3.27165221
   0.00030556 13.48416636  3.22175223
   1.43398214 10.60615035  2.37283295
   1.46488821  3.83983843  2.42377655
   1.50493785  0.96952700  4.06717404
   1.44348804  8.70832053  4.05001093
   2.85862492  5.78810223  3.23014640
   2.86290848 13.51580364  3.20033988
   4.15511409 10.62863940  2.33605506
   4.18920760  3.80085197  2.50344151
   4.28937760  0.97351484  4.00927093
   4.26718592  8.72745334  4.00791777
   5.56283183  5.88153361  3.13965614
   5.79735791 13.47056035  3.29753818
  -2.74057389 10.56916046  4.85591242
   5.69262672  3.87639632  4.78752433
  -2.74642026  0.92972494  6.51560996
  -2.77144513  8.62261777  6.50438304
  -1.30751632  5.77878794  5.68108087
  -1.35291466 13.54119290  5.60273691
  -0.05976801 10.61707104  4.80067147
   0.17055562  3.81127610  4.91637047
   0.15166296  0.92455615  6.44247619
   0.03716927  8.60998752  6.42880756
   1.38697249  5.82313569  5.61341863
   1.60405905 13.44728431  5.70677826
   2.89514492 10.58905669  4.92605034
   2.83807366  3.85294648  4.83419490
   2.81586814  0.96904147  6.42232333
   3.00126905  8.63219082  6.52991470
   4.33569214  5.75104919  5.70300582
   4.29699009 13.51773812  5.66006205
 


--------------------------------------------------------------------------------------------------------


 k-point  1 :   0.0000 0.0000 0.0000  plane waves:   22763
 k-point  2 :   0.2500-0.0000-0.0000  plane waves:   22707
 k-point  3 :   0.5000-0.0000-0.0000  plane waves:   22648
 k-point  4 :   0.0000 0.5000-0.0000  plane waves:   22664
 k-point  5 :   0.2500 0.5000-0.0000  plane waves:   22697
 k-point  6 :   0.5000 0.5000-0.0000  plane waves:   22636
 k-point  7 :   0.0000 0.0000 0.2500  plane waves:   22700
 k-point  8 :   0.2500-0.0000 0.2500  plane waves:   22682
 k-point  9 :   0.5000-0.0000 0.2500  plane waves:   22674
 k-point 10 :  -0.2500 0.0000 0.2500  plane waves:   22709
 k-point 11 :   0.0000 0.5000 0.2500  plane waves:   22692
 k-point 12 :   0.2500 0.5000 0.2500  plane waves:   22670
 k-point 13 :   0.5000 0.5000 0.2500  plane waves:   22678
 k-point 14 :  -0.2500 0.5000 0.2500  plane waves:   22690
 k-point 15 :   0.0000 0.0000 0.5000  plane waves:   22694
 k-point 16 :   0.2500-0.0000 0.5000  plane waves:   22701
 k-point 17 :   0.5000-0.0000 0.5000  plane waves:   22686
 k-point 18 :   0.0000 0.5000 0.5000  plane waves:   22684
 k-point 19 :   0.2500 0.5000 0.5000  plane waves:   22704
 k-point 20 :   0.5000 0.5000 0.5000  plane waves:   22686

 maximum and minimum number of plane-waves per node :     22763    22636

 maximum number of plane-waves:     22763
 maximum index in each direction: 
   IXMAX=   15   IYMAX=   26   IZMAX=   15
   IXMIN=  -15   IYMIN=  -26   IZMIN=  -15

 The following grids will avoid any aliasing or wrap around errors in the Hartre
 e energy
  - symmetry arguments have not been applied
  - exchange correlation energies might require even more grid points
  - we recommend to set PREC=Normal or Accurate and rely on VASP defaults
 NGX is ok and might be reduce to    64
 NGY is ok and might be reduce to   108
 NGZ is ok and might be reduce to    64

 serial   3D FFT for wavefunctions
 parallel 3D FFT for charge:
    minimum data exchange during FFTs selected (reduces bandwidth)


 total amount of memory used by VASP MPI-rank0   542851. kBytes
=======================================================================

   base      :      30000. kBytes
   nonlr-proj:      49881. kBytes
   fftplans  :       9349. kBytes
   grid      :      55332. kBytes
   one-center:       2923. kBytes
   wavefun   :     395366. kBytes
 
     INWAV:  cpu time    0.0000: real time    0.0000
 Broyden mixing: mesh for mixing (old mesh)
   NGX = 31   NGY = 53   NGZ = 31
  (NGX  =128   NGY  =216   NGZ  =128)
  gives a total of  50933 points

 initial charge density was supplied:
 charge density of overlapping atoms calculated
 number of electron     633.0000000 magnetization      67.5000000
 keeping initial charge density in first step


--------------------------------------------------------------------------------------------------------


 Maximum index for non-local projection operator         6468
 Maximum index for augmentation-charges         1068 (set IRDMAX)


--------------------------------------------------------------------------------------------------------


 First call to EWALD:  gamma=   0.184
 Maximum number of real-space cells 3x 2x 3
 Maximum number of reciprocal cells 2x 4x 2

    FEWALD:  cpu time    0.0038: real time    0.0038


--------------------------------------- Iteration      1(   1)  ---------------------------------------


    POTLOK:  cpu time    0.2904: real time    0.3534
    SETDIJ:  cpu time    0.0305: real time    0.0306
     EDDAV:  cpu time  169.5818: real time  169.9998
    --------------------------------------------
      LOOP:  cpu time  169.9059: real time  170.3869

 eigenvalue-minimisations  : 33280
 total energy-change (2. order) : 0.8423399E+04  (-0.2660511E+05)
 number of electron     633.0000000 magnetization      67.5000000
 augmentation part      633.0000000 magnetization      67.5000000

 Free energy of the ion-electron system (eV)
  ---------------------------------------------------
  alpha Z        PSCENC =      1931.70035608
  Ewald energy   TEWEN  =    -36421.09748652
  -Hartree energ DENC   =    -19658.12448112
  -exchange      EXHF   =         0.00000000
  -V(xc)+E(xc)   XCENC  =      2572.73675296
  PAW double counting   =     45694.50341149   -47775.14712272
  entropy T*S    EENTRO =        -0.01337938
  eigenvalues    EBANDS =      7130.04383564
  atomic energy  EATOM  =     54948.79752401
  Solvation  Ediel_sol  =         0.00000000
  ---------------------------------------------------
  free energy    TOTEN  =      8423.39941044 eV

  energy without entropy =     8423.41278981  energy(sigma->0) =     8423.40610013


--------------------------------------------------------------------------------------------------------




--------------------------------------- Iteration      1(   2)  ---------------------------------------


     EDDAV:  cpu time  167.0528: real time  167.4508
    --------------------------------------------
      LOOP:  cpu time  167.0529: real time  167.4509

 eigenvalue-minimisations  : 33408
 total energy-change (2. order) :-0.7283719E+04  (-0.6638809E+04)
 number of electron     633.0000000 magnetization      67.5000000
 augmentation part      633.0000000 magnetization      67.5000000

 Free energy of the ion-electron system (eV)
  ---------------------------------------------------
  alpha Z        PSCENC =      1931.70035608
  Ewald energy   TEWEN  =    -36421.09748652
  -Hartree energ DENC   =    -19658.12448112
  -exchange      EXHF   =         0.00000000
  -V(xc)+E(xc)   XCENC  =      2572.73675296
  PAW double counting   =     45694.50341149   -47775.14712272
  entropy T*S    EENTRO =        -0.03899794
  eigenvalues    EBANDS =      -153.64941854
  atomic energy  EATOM  =     54948.79752401
  Solvation  Ediel_sol  =         0.00000000
  ---------------------------------------------------
  free energy    TOTEN  =      1139.68053770 eV

  energy without entropy =     1139.71953564  energy(sigma->0) =     1139.70003667


--------------------------------------------------------------------------------------------------------




--------------------------------------- Iteration      1(   3)  ---------------------------------------


     EDDAV:  cpu time  173.4485: real time  173.8656
    --------------------------------------------
      LOOP:  cpu time  173.4485: real time  173.8656

 eigenvalue-minimisations  : 34464
 total energy-change (2. order) :-0.1690871E+04  (-0.1505578E+04)
 number of electron     633.0000000 magnetization      67.5000000
 augmentation part      633.0000000 magnetization      67.5000000

 Free energy of the ion-electron system (eV)
  ---------------------------------------------------
  alpha Z        PSCENC =      1931.70035608
  Ewald energy   TEWEN  =    -36421.09748652
  -Hartree energ DENC   =    -19658.12448112
  -exchange      EXHF   =         0.00000000
  -V(xc)+E(xc)   XCENC  =      2572.73675296
  PAW double counting   =     45694.50341149   -47775.14712272
  entropy T*S    EENTRO =        -0.19274627
  eigenvalues    EBANDS =     -1844.36658223
  atomic energy  EATOM  =     54948.79752401
  Solvation  Ediel_sol  =         0.00000000
  ---------------------------------------------------
  free energy    TOTEN  =      -551.19037432 eV

  energy without entropy =     -550.99762805  energy(sigma->0) =     -551.09400119


--------------------------------------------------------------------------------------------------------




--------------------------------------- Iteration      1(   4)  ---------------------------------------


     EDDAV:  cpu time  187.7698: real time  188.2148
    --------------------------------------------
      LOOP:  cpu time  187.7699: real time  188.2149

 eigenvalue-minimisations  : 39616
 total energy-change (2. order) :-0.2039870E+03  (-0.1976838E+03)
 number of electron     633.0000000 magnetization      67.5000000
 augmentation part      633.0000000 magnetization      67.5000000

 Free energy of the ion-electron system (eV)
  ---------------------------------------------------
  alpha Z        PSCENC =      1931.70035608
  Ewald energy   TEWEN  =    -36421.09748652
  -Hartree energ DENC   =    -19658.12448112
  -exchange      EXHF   =         0.00000000
  -V(xc)+E(xc)   XCENC  =      2572.73675296
  PAW double counting   =     45694.50341149   -47775.14712272
  entropy T*S    EENTRO =        -0.20216831
  eigenvalues    EBANDS =     -2048.34412093
  atomic energy  EATOM  =     54948.79752401
  Solvation  Ediel_sol  =         0.00000000
  ---------------------------------------------------
  free energy    TOTEN  =      -755.17733506 eV

  energy without entropy =     -754.97516675  energy(sigma->0) =     -755.07625090


--------------------------------------------------------------------------------------------------------




--------------------------------------- Iteration      1(   5)  ---------------------------------------


     EDDAV:  cpu time  255.0871: real time  255.6911
    CHARGE:  cpu time    7.9545: real time    7.9733
    MIXING:  cpu time    0.0057: real time    0.0057
    --------------------------------------------
      LOOP:  cpu time  263.0441: real time  263.6670

 eigenvalue-minimisations  : 57360
 total energy-change (2. order) :-0.1193034E+02  (-0.1182832E+02)
 number of electron     632.9999963 magnetization      70.5924554
 augmentation part      187.7697972 magnetization      50.8652647

 Broyden mixing:
  rms(total) = 0.15362E+02    rms(broyden)= 0.15361E+02
  rms(prec ) = 0.16888E+02
  weight for this iteration     100.00

 Free energy of the ion-electron system (eV)
  ---------------------------------------------------
  alpha Z        PSCENC =      1931.70035608
  Ewald energy   TEWEN  =    -36421.09748652
  -Hartree energ DENC   =    -19658.12448112
  -exchange      EXHF   =         0.00000000
  -V(xc)+E(xc)   XCENC  =      2572.73675296
  PAW double counting   =     45694.50341149   -47775.14712272
  entropy T*S    EENTRO =        -0.19930649
  eigenvalues    EBANDS =     -2060.27732505
  atomic energy  EATOM  =     54948.79752401
  Solvation  Ediel_sol  =         0.00000000
  ---------------------------------------------------
  free energy    TOTEN  =      -767.10767737 eV

  energy without entropy =     -766.90837088  energy(sigma->0) =     -767.00802412


--------------------------------------------------------------------------------------------------------




--------------------------------------- Iteration      1(   6)  ---------------------------------------


    POTLOK:  cpu time    0.2737: real time    0.2743
    SETDIJ:  cpu time    0.0351: real time    0.0352
     EDDAV:  cpu time  229.6788: real time  230.2228
    CHARGE:  cpu time    7.1485: real time    7.1655
    MIXING:  cpu time    0.0060: real time    0.0060
    --------------------------------------------
      LOOP:  cpu time  237.1422: real time  237.7039

 eigenvalue-minimisations  : 51232
 total energy-change (2. order) :-0.7212686E+02  (-0.1774420E+03)
 number of electron     632.9999973 magnetization      66.4454587
 augmentation part      240.9968435 magnetization      65.7576842

 Broyden mixing:
  rms(total) = 0.27824E+02    rms(broyden)= 0.27823E+02
  rms(prec ) = 0.29537E+02
  weight for this iteration     100.00

 eigenvalues of (default mixing * dielectric matrix)
  average eigenvalue GAMMA=   0.2272
  0.2272

 Free energy of the ion-electron system (eV)
  ---------------------------------------------------
  alpha Z        PSCENC =      1931.70035608
  Ewald energy   TEWEN  =    -36421.09748652
  -Hartree energ DENC   =    -18773.96694884
  -exchange      EXHF   =         0.00000000
  -V(xc)+E(xc)   XCENC  =      2598.06387088
  PAW double counting   =     50317.28870518   -52103.41819525
  entropy T*S    EENTRO =        -0.06306919
  eigenvalues    EBANDS =     -3336.53929278
  atomic energy  EATOM  =     54948.79752401
  Solvation  Ediel_sol  =         0.00000000
  ---------------------------------------------------
  free energy    TOTEN  =      -839.23453644 eV

  energy without entropy =     -839.17146726  energy(sigma->0) =     -839.20300185


--------------------------------------------------------------------------------------------------------




--------------------------------------- Iteration      1(   7)  ---------------------------------------


    POTLOK:  cpu time    0.2712: real time    0.2718
    SETDIJ:  cpu time    0.0360: real time    0.0361
     EDDAV:  cpu time  209.6539: real time  210.1504
    CHARGE:  cpu time    7.6345: real time    7.6526
    MIXING:  cpu time    0.0068: real time    0.0069
    --------------------------------------------
      LOOP:  cpu time  217.6024: real time  218.1178

 eigenvalue-minimisations  : 45952
 total energy-change (2. order) : 0.1822493E+03  (-0.5380489E+02)
 number of electron     632.9999991 magnetization      62.8409685
 augmentation part      228.1095162 magnetization      53.5449779

 Broyden mixing:
  rms(total) = 0.13926E+02    rms(broyden)= 0.13925E+02
  rms(prec ) = 0.16177E+02
  weight for this iteration     100.00

 eigenvalues of (default mixing * dielectric matrix)
  average eigenvalue GAMMA=   0.4346
  0.4346  0.4346

 Free energy of the ion-electron system (eV)
  ---------------------------------------------------
  alpha Z        PSCENC =      1931.70035608
  Ewald energy   TEWEN  =    -36421.09748652
  -Hartree energ DENC   =    -19051.45059829
  -exchange      EXHF   =         0.00000000
  -V(xc)+E(xc)   XCENC  =      2578.41146502
  PAW double counting   =     52066.38757872   -54021.86927380
  entropy T*S    EENTRO =        -0.06323048
  eigenvalues    EBANDS =     -2687.80156810
  atomic energy  EATOM  =     54948.79752401
  Solvation  Ediel_sol  =         0.00000000
  ---------------------------------------------------
  free energy    TOTEN  =      -656.98523336 eV

  energy without entropy =     -656.92200289  energy(sigma->0) =     -656.95361813


--------------------------------------------------------------------------------------------------------




--------------------------------------- Iteration      1(   8)  ---------------------------------------


    POTLOK:  cpu time    0.2733: real time    0.2740
    SETDIJ:  cpu time    0.0341: real time    0.0341
     EDDAV:  cpu time  239.7437: real time  240.3113
    CHARGE:  cpu time    7.7116: real time    7.7299
    MIXING:  cpu time    0.0062: real time    0.0062
    --------------------------------------------
      LOOP:  cpu time  247.7689: real time  248.3556

 eigenvalue-minimisations  : 53920
 total energy-change (2. order) :-0.9155631E+02  (-0.3614822E+02)
 number of electron     632.9999964 magnetization      57.3288539
 augmentation part      210.4487712 magnetization      52.3082154

 Broyden mixing:
  rms(total) = 0.14023E+02    rms(broyden)= 0.14022E+02
  rms(prec ) = 0.18726E+02
  weight for this iteration     100.00

 eigenvalues of (default mixing * dielectric matrix)
  average eigenvalue GAMMA=   0.4444
  0.5719  0.5719  0.1895

 Free energy of the ion-electron system (eV)
  ---------------------------------------------------
  alpha Z        PSCENC =      1931.70035608
  Ewald energy   TEWEN  =    -36421.09748652
  -Hartree energ DENC   =    -19216.08009016
  -exchange      EXHF   =         0.00000000
  -V(xc)+E(xc)   XCENC  =      2567.65065349
  PAW double counting   =     53600.25274265   -55673.27275865
  entropy T*S    EENTRO =        -0.05044897
  eigenvalues    EBANDS =     -2486.44203131
  atomic energy  EATOM  =     54948.79752401
  Solvation  Ediel_sol  =         0.00000000
  ---------------------------------------------------
  free energy    TOTEN  =      -748.54153938 eV

  energy without entropy =     -748.49109041  energy(sigma->0) =     -748.51631489


--------------------------------------------------------------------------------------------------------




--------------------------------------- Iteration      1(   9)  ---------------------------------------


    POTLOK:  cpu time    0.2641: real time    0.2648
    SETDIJ:  cpu time    0.0346: real time    0.0346
     EDDAV:  cpu time  197.8482: real time  198.3168
    CHARGE:  cpu time    7.3981: real time    7.4157
    MIXING:  cpu time    0.0072: real time    0.0072
    --------------------------------------------
      LOOP:  cpu time  205.5522: real time  206.0391

 eigenvalue-minimisations  : 42496
 total energy-change (2. order) : 0.9559591E+02  (-0.3105195E+02)
 number of electron     632.9999971 magnetization      52.7218379
 augmentation part      205.6153989 magnetization      44.7658732

 Broyden mixing:
  rms(total) = 0.12589E+02    rms(broyden)= 0.12588E+02
  rms(prec ) = 0.14931E+02
  weight for this iteration     100.00

 eigenvalues of (default mixing * dielectric matrix)
  average eigenvalue GAMMA=   0.4222
  0.6378  0.6378  0.2066  0.2066

 Free energy of the ion-electron system (eV)
  ---------------------------------------------------
  alpha Z        PSCENC =      1931.70035608
  Ewald energy   TEWEN  =    -36421.09748652
  -Hartree energ DENC   =    -19176.60393152
  -exchange      EXHF   =         0.00000000
  -V(xc)+E(xc)   XCENC  =      2559.61831994
  PAW double counting   =     55348.39260487   -57472.44448953
  entropy T*S    EENTRO =        -0.07232009
  eigenvalues    EBANDS =     -2371.23620253
  atomic energy  EATOM  =     54948.79752401
  Solvation  Ediel_sol  =         0.00000000
  ---------------------------------------------------
  free energy    TOTEN  =      -652.94562529 eV

  energy without entropy =     -652.87330520  energy(sigma->0) =     -652.90946525


--------------------------------------------------------------------------------------------------------




--------------------------------------- Iteration      1(  10)  ---------------------------------------


    POTLOK:  cpu time    0.2700: real time    0.2707
    SETDIJ:  cpu time    0.0344: real time    0.0344
     EDDAV:  cpu time  214.4568: real time  214.9647
    CHARGE:  cpu time    7.6780: real time    7.6962
    MIXING:  cpu time    0.0068: real time    0.0069
    --------------------------------------------
      LOOP:  cpu time  222.4460: real time  222.9728

 eigenvalue-minimisations  : 46976
 total energy-change (2. order) : 0.3357276E+02  (-0.2581867E+02)
 number of electron     632.9999956 magnetization      49.2496878
 augmentation part      209.7589652 magnetization      44.9402450

 Broyden mixing:
  rms(total) = 0.81035E+01    rms(broyden)= 0.81026E+01
  rms(prec ) = 0.11198E+02
  weight for this iteration     100.00

 eigenvalues of (default mixing * dielectric matrix)
  average eigenvalue GAMMA=   0.4521
  0.7527  0.7527  0.3049  0.3049  0.1450

 Free energy of the ion-electron system (eV)
  ---------------------------------------------------
  alpha Z        PSCENC =      1931.70035608
  Ewald energy   TEWEN  =    -36421.09748652
  -Hartree energ DENC   =    -19129.30111902
  -exchange      EXHF   =         0.00000000
  -V(xc)+E(xc)   XCENC  =      2555.87048790
  PAW double counting   =     56639.57868580   -58787.66052994
  entropy T*S    EENTRO =        -0.05237411
  eigenvalues    EBANDS =     -2357.20840946
  atomic energy  EATOM  =     54948.79752401
  Solvation  Ediel_sol  =         0.00000000
  ---------------------------------------------------
  free energy    TOTEN  =      -619.37286528 eV

  energy without entropy =     -619.32049117  energy(sigma->0) =     -619.34667822


--------------------------------------------------------------------------------------------------------




--------------------------------------- Iteration      1(  11)  ---------------------------------------


    POTLOK:  cpu time    0.2708: real time    0.2714
    SETDIJ:  cpu time    0.0334: real time    0.0335
     EDDAV:  cpu time  191.9653: real time  192.4199
    CHARGE:  cpu time    7.6187: real time    7.6368
    MIXING:  cpu time    0.0063: real time    0.0063
    --------------------------------------------
      LOOP:  cpu time  199.8944: real time  200.3678

 eigenvalue-minimisations  : 41040
 total energy-change (2. order) : 0.2307222E+01  (-0.2029484E+02)
 number of electron     632.9999957 magnetization      46.7183837
 augmentation part      206.3096379 magnetization      41.1266105

 Broyden mixing:
  rms(total) = 0.11040E+02    rms(broyden)= 0.11039E+02
  rms(prec ) = 0.13024E+02
  weight for this iteration     100.00

 eigenvalues of (default mixing * dielectric matrix)
  average eigenvalue GAMMA=   0.4245
  0.8063  0.8063  0.3363  0.3363  0.1548  0.1068

 Free energy of the ion-electron system (eV)
  ---------------------------------------------------
  alpha Z        PSCENC =      1931.70035608
  Ewald energy   TEWEN  =    -36421.09748652
  -Hartree energ DENC   =    -19137.74355724
  -exchange      EXHF   =         0.00000000
  -V(xc)+E(xc)   XCENC  =      2556.72979337
  PAW double counting   =     57215.87205113   -59369.16708224
  entropy T*S    EENTRO =        -0.07033265
  eigenvalues    EBANDS =     -2342.08690931
  atomic energy  EATOM  =     54948.79752401
  Solvation  Ediel_sol  =         0.00000000
  ---------------------------------------------------
  free energy    TOTEN  =      -617.06564339 eV

  energy without entropy =     -616.99531074  energy(sigma->0) =     -617.03047706


--------------------------------------------------------------------------------------------------------




--------------------------------------- Iteration      1(  12)  ---------------------------------------


    POTLOK:  cpu time    0.2394: real time    0.2400
    SETDIJ:  cpu time    0.0336: real time    0.0337
     EDDAV:  cpu time  209.4297: real time  209.9257
    CHARGE:  cpu time    7.4588: real time    7.4765
    MIXING:  cpu time    0.0072: real time    0.0072
    --------------------------------------------
      LOOP:  cpu time  217.1688: real time  217.6831

 eigenvalue-minimisations  : 46400
 total energy-change (2. order) : 0.2745668E+02  (-0.1517427E+02)
 number of electron     632.9999968 magnetization      43.6794467
 augmentation part      207.9834634 magnetization      39.7973009

 Broyden mixing:
  rms(total) = 0.90845E+01    rms(broyden)= 0.90840E+01
  rms(prec ) = 0.10735E+02
  weight for this iteration     100.00

 eigenvalues of (default mixing * dielectric matrix)
  average eigenvalue GAMMA=   0.4070
  0.8505  0.8505  0.3737  0.3737  0.1685  0.1161  0.1161

 Free energy of the ion-electron system (eV)
  ---------------------------------------------------
  alpha Z        PSCENC =      1931.70035608
  Ewald energy   TEWEN  =    -36421.09748652
  -Hartree energ DENC   =    -19138.51177039
  -exchange      EXHF   =         0.00000000
  -V(xc)+E(xc)   XCENC  =      2557.36742526
  PAW double counting   =     57683.58399586   -59842.44621226
  entropy T*S    EENTRO =        -0.05683651
  eigenvalues    EBANDS =     -2308.94595788
  atomic energy  EATOM  =     54948.79752401
  Solvation  Ediel_sol  =         0.00000000
  ---------------------------------------------------
  free energy    TOTEN  =      -589.60896235 eV

  energy without entropy =     -589.55212585  energy(sigma->0) =     -589.58054410


--------------------------------------------------------------------------------------------------------




--------------------------------------- Iteration      1(  13)  ---------------------------------------


    POTLOK:  cpu time    0.2731: real time    0.2738
    SETDIJ:  cpu time    0.0344: real time    0.0345
     EDDAV:  cpu time  200.3972: real time  200.8717
    CHARGE:  cpu time    7.5410: real time    7.5589
    MIXING:  cpu time    0.0082: real time    0.0083
    --------------------------------------------
      LOOP:  cpu time  208.2540: real time  208.7471

 eigenvalue-minimisations  : 42960
 total energy-change (2. order) : 0.1586689E+02  (-0.8201272E+01)
 number of electron     632.9999962 magnetization      41.1128138
 augmentation part      208.6323402 magnetization      36.0636950

 Broyden mixing:
  rms(total) = 0.47624E+01    rms(broyden)= 0.47614E+01
  rms(prec ) = 0.56326E+01
  weight for this iteration     100.00

 eigenvalues of (default mixing * dielectric matrix)
  average eigenvalue GAMMA=   0.4229
  0.8962  0.8962  0.4633  0.4633  0.2730  0.1665  0.1125  0.1125

 Free energy of the ion-electron system (eV)
  ---------------------------------------------------
  alpha Z        PSCENC =      1931.70035608
  Ewald energy   TEWEN  =    -36421.09748652
  -Hartree energ DENC   =    -19159.33432230
  -exchange      EXHF   =         0.00000000
  -V(xc)+E(xc)   XCENC  =      2558.96097053
  PAW double counting   =     58082.00435548   -60247.02630002
  entropy T*S    EENTRO =        -0.05393172
  eigenvalues    EBANDS =     -2267.69323730
  atomic energy  EATOM  =     54948.79752401
  Solvation  Ediel_sol  =         0.00000000
  ---------------------------------------------------
  free energy    TOTEN  =      -573.74207176 eV

  energy without entropy =     -573.68814004  energy(sigma->0) =     -573.71510590


--------------------------------------------------------------------------------------------------------




--------------------------------------- Iteration      1(  14)  ---------------------------------------


    POTLOK:  cpu time    0.2793: real time    0.2800
    SETDIJ:  cpu time    0.0338: real time    0.0339
     EDDAV:  cpu time  204.8359: real time  205.3208
    CHARGE:  cpu time    7.6301: real time    7.6482
    MIXING:  cpu time    0.0080: real time    0.0080
    --------------------------------------------
      LOOP:  cpu time  212.7870: real time  213.2908

 eigenvalue-minimisations  : 44288
 total energy-change (2. order) : 0.3685899E+01  (-0.3086227E+01)
 number of electron     632.9999960 magnetization      38.6694312
 augmentation part      208.3182466 magnetization      33.8595835

 Broyden mixing:
  rms(total) = 0.67660E+01    rms(broyden)= 0.67652E+01
  rms(prec ) = 0.80323E+01
  weight for this iteration     100.00

 eigenvalues of (default mixing * dielectric matrix)
  average eigenvalue GAMMA=   0.4043
  0.9194  0.9194  0.5039  0.5039  0.2761  0.1828  0.1333  0.0999  0.0999

 Free energy of the ion-electron system (eV)
  ---------------------------------------------------
  alpha Z        PSCENC =      1931.70035608
  Ewald energy   TEWEN  =    -36421.09748652
  -Hartree energ DENC   =    -19169.63032099
  -exchange      EXHF   =         0.00000000
  -V(xc)+E(xc)   XCENC  =      2559.78316066
  PAW double counting   =     58308.36918529   -60474.95559275
  entropy T*S    EENTRO =        -0.07210347
  eigenvalues    EBANDS =     -2252.95089549
  atomic energy  EATOM  =     54948.79752401
  Solvation  Ediel_sol  =         0.00000000
  ---------------------------------------------------
  free energy    TOTEN  =      -570.05617318 eV

  energy without entropy =     -569.98406972  energy(sigma->0) =     -570.02012145


--------------------------------------------------------------------------------------------------------




--------------------------------------- Iteration      1(  15)  ---------------------------------------


    POTLOK:  cpu time    0.2807: real time    0.2814
    SETDIJ:  cpu time    0.0349: real time    0.0350
     EDDAV:  cpu time  213.5390: real time  214.0446
    CHARGE:  cpu time    7.3318: real time    7.3492
    MIXING:  cpu time    0.0082: real time    0.0083
    --------------------------------------------
      LOOP:  cpu time  221.1947: real time  221.7185

 eigenvalue-minimisations  : 46688
 total energy-change (2. order) : 0.5739682E+01  (-0.4374451E+01)
 number of electron     632.9999961 magnetization      36.6953449
 augmentation part      208.6585601 magnetization      33.0304105

 Broyden mixing:
  rms(total) = 0.38592E+01    rms(broyden)= 0.38587E+01
  rms(prec ) = 0.46552E+01
  weight for this iteration     100.00

 eigenvalues of (default mixing * dielectric matrix)
  average eigenvalue GAMMA=   0.3962
  0.9568  0.9568  0.5254  0.5254  0.2587  0.2587  0.1595  0.1269  0.0970  0.0970

 Free energy of the ion-electron system (eV)
  ---------------------------------------------------
  alpha Z        PSCENC =      1931.70035608
  Ewald energy   TEWEN  =    -36421.09748652
  -Hartree energ DENC   =    -19182.19066356
  -exchange      EXHF   =         0.00000000
  -V(xc)+E(xc)   XCENC  =      2560.29469891
  PAW double counting   =     58549.11540780   -60717.33035887
  entropy T*S    EENTRO =        -0.04060281
  eigenvalues    EBANDS =     -2233.56536582
  atomic energy  EATOM  =     54948.79752401
  Solvation  Ediel_sol  =         0.00000000
  ---------------------------------------------------
  free energy    TOTEN  =      -564.31649078 eV

  energy without entropy =     -564.27588797  energy(sigma->0) =     -564.29618938


--------------------------------------------------------------------------------------------------------




--------------------------------------- Iteration      1(  16)  ---------------------------------------


    POTLOK:  cpu time    0.2719: real time    0.2726
    SETDIJ:  cpu time    0.0367: real time    0.0368
     EDDAV:  cpu time  211.2361: real time  211.7363
    CHARGE:  cpu time    7.0200: real time    7.0367
    MIXING:  cpu time    0.0113: real time    0.0303
    --------------------------------------------
      LOOP:  cpu time  218.5761: real time  219.1126

 eigenvalue-minimisations  : 46272
 total energy-change (2. order) : 0.4358829E+01  (-0.1299635E+01)
 number of electron     632.9999964 magnetization      34.2333688
 augmentation part      208.9945571 magnetization      28.8700511

 Broyden mixing:
  rms(total) = 0.22393E+01    rms(broyden)= 0.22386E+01
  rms(prec ) = 0.25662E+01
  weight for this iteration     100.00

 eigenvalues of (default mixing * dielectric matrix)
  average eigenvalue GAMMA=   0.4012
  0.9421  0.9421  0.5991  0.5991  0.3339  0.3339  0.2069  0.1508  0.1119  0.0970
  0.0970

 Free energy of the ion-electron system (eV)
  ---------------------------------------------------
  alpha Z        PSCENC =      1931.70035608
  Ewald energy   TEWEN  =    -36421.09748652
  -Hartree energ DENC   =    -19185.60008213
  -exchange      EXHF   =         0.00000000
  -V(xc)+E(xc)   XCENC  =      2560.38691662
  PAW double counting   =     58739.31093747   -60909.33309220
  entropy T*S    EENTRO =        -0.06341954
  eigenvalues    EBANDS =     -2224.05931532
  atomic energy  EATOM  =     54948.79752401
  Solvation  Ediel_sol  =         0.00000000
  ---------------------------------------------------
  free energy    TOTEN  =      -559.95766155 eV

  energy without entropy =     -559.89424200  energy(sigma->0) =     -559.92595177


--------------------------------------------------------------------------------------------------------




--------------------------------------- Iteration      1(  17)  ---------------------------------------


    POTLOK:  cpu time    0.2683: real time    0.2689
    SETDIJ:  cpu time    0.0347: real time    0.0347
     EDDAV:  cpu time  208.0078: real time  208.5000
    CHARGE:  cpu time    7.6666: real time    7.6847
    MIXING:  cpu time    0.0100: real time    0.0100
    --------------------------------------------
      LOOP:  cpu time  215.9872: real time  216.4984

 eigenvalue-minimisations  : 45680
 total energy-change (2. order) :-0.2147610E+01  (-0.1246937E+01)
 number of electron     632.9999965 magnetization      32.8107946
 augmentation part      208.7477746 magnetization      27.8704543

 Broyden mixing:
  rms(total) = 0.28635E+01    rms(broyden)= 0.28630E+01
  rms(prec ) = 0.31759E+01
  weight for this iteration     100.00

 eigenvalues of (default mixing * dielectric matrix)
  average eigenvalue GAMMA=   0.3933
  0.8459  0.8459  0.7087  0.7087  0.3729  0.3729  0.2604  0.1566  0.1402  0.1170
  0.0954  0.0954

 Free energy of the ion-electron system (eV)
  ---------------------------------------------------
  alpha Z        PSCENC =      1931.70035608
  Ewald energy   TEWEN  =    -36421.09748652
  -Hartree energ DENC   =    -19193.65586450
  -exchange      EXHF   =         0.00000000
  -V(xc)+E(xc)   XCENC  =      2559.77935497
  PAW double counting   =     58990.08879050   -61161.75543402
  entropy T*S    EENTRO =        -0.04786671
  eigenvalues    EBANDS =     -2215.91464511
  atomic energy  EATOM  =     54948.79752401
  Solvation  Ediel_sol  =         0.00000000
  ---------------------------------------------------
  free energy    TOTEN  =      -562.10527130 eV

  energy without entropy =     -562.05740459  energy(sigma->0) =     -562.08133794


--------------------------------------------------------------------------------------------------------




--------------------------------------- Iteration      1(  18)  ---------------------------------------


    POTLOK:  cpu time    0.2737: real time    0.2743
    SETDIJ:  cpu time    0.0353: real time    0.0354
     EDDAV:  cpu time  205.5169: real time  206.0035
    CHARGE:  cpu time    6.9836: real time    7.0001
    MIXING:  cpu time    0.0094: real time    0.0095
    --------------------------------------------
      LOOP:  cpu time  212.8189: real time  213.3228

 eigenvalue-minimisations  : 44656
 total energy-change (2. order) :-0.7412987E+00  (-0.8270271E+00)
 number of electron     632.9999965 magnetization      30.9012610
 augmentation part      208.8766969 magnetization      25.2020961

 Broyden mixing:
  rms(total) = 0.20331E+01    rms(broyden)= 0.20326E+01
  rms(prec ) = 0.22934E+01
  weight for this iteration     100.00

 eigenvalues of (default mixing * dielectric matrix)
  average eigenvalue GAMMA=   0.3933
  0.8857  0.8857  0.6960  0.6960  0.4311  0.4311  0.2484  0.2484  0.1659  0.1174
  0.1174  0.0953  0.0953

 Free energy of the ion-electron system (eV)
  ---------------------------------------------------
  alpha Z        PSCENC =      1931.70035608
  Ewald energy   TEWEN  =    -36421.09748652
  -Hartree energ DENC   =    -19193.23616962
  -exchange      EXHF   =         0.00000000
  -V(xc)+E(xc)   XCENC  =      2559.11765703
  PAW double counting   =     59139.47895039   -61311.67538823
  entropy T*S    EENTRO =        -0.03921800
  eigenvalues    EBANDS =     -2215.89279510
  atomic energy  EATOM  =     54948.79752401
  Solvation  Ediel_sol  =         0.00000000
  ---------------------------------------------------
  free energy    TOTEN  =      -562.84656996 eV

  energy without entropy =     -562.80735195  energy(sigma->0) =     -562.82696095


--------------------------------------------------------------------------------------------------------




--------------------------------------- Iteration      1(  19)  ---------------------------------------


    POTLOK:  cpu time    0.2749: real time    0.2756
    SETDIJ:  cpu time    0.0346: real time    0.0346
     EDDAV:  cpu time  202.4111: real time  202.8903
    CHARGE:  cpu time    7.0817: real time    7.0985
    MIXING:  cpu time    0.0098: real time    0.0099
    --------------------------------------------
      LOOP:  cpu time  209.8121: real time  210.3088

 eigenvalue-minimisations  : 43456
 total energy-change (2. order) :-0.2197607E+01  (-0.5702197E+00)
 number of electron     632.9999966 magnetization      28.2598529
 augmentation part      208.8148658 magnetization      23.4715966

 Broyden mixing:
  rms(total) = 0.23466E+01    rms(broyden)= 0.23463E+01
  rms(prec ) = 0.26246E+01
  weight for this iteration     100.00

 eigenvalues of (default mixing * dielectric matrix)
  average eigenvalue GAMMA=   0.4149
  0.9661  0.9661  0.8169  0.8169  0.4452  0.4452  0.3091  0.3091  0.1742  0.1379
  0.0948  0.0948  0.1205  0.1120

 Free energy of the ion-electron system (eV)
  ---------------------------------------------------
  alpha Z        PSCENC =      1931.70035608
  Ewald energy   TEWEN  =    -36421.09748652
  -Hartree energ DENC   =    -19195.78702169
  -exchange      EXHF   =         0.00000000
  -V(xc)+E(xc)   XCENC  =      2558.41500691
  PAW double counting   =     59355.58270347   -61529.43975191
  entropy T*S    EENTRO =        -0.03019304
  eigenvalues    EBANDS =     -2213.18531401
  atomic energy  EATOM  =     54948.79752401
  Solvation  Ediel_sol  =         0.00000000
  ---------------------------------------------------
  free energy    TOTEN  =      -565.04417672 eV

  energy without entropy =     -565.01398368  energy(sigma->0) =     -565.02908020


--------------------------------------------------------------------------------------------------------




--------------------------------------- Iteration      1(  20)  ---------------------------------------


    POTLOK:  cpu time    0.2816: real time    0.2823
    SETDIJ:  cpu time    0.0347: real time    0.0347
     EDDAV:  cpu time  202.7183: real time  203.1982
    CHARGE:  cpu time    7.6105: real time    7.6286
    MIXING:  cpu time    0.0097: real time    0.0097
    --------------------------------------------
      LOOP:  cpu time  210.6548: real time  211.1535

 eigenvalue-minimisations  : 43408
 total energy-change (2. order) :-0.1384369E+01  (-0.5563128E+00)
 number of electron     632.9999966 magnetization      24.9098462
 augmentation part      209.2000607 magnetization      19.3317673

 Broyden mixing:
  rms(total) = 0.19756E+01    rms(broyden)= 0.19753E+01
  rms(prec ) = 0.21935E+01
  weight for this iteration     100.00

 eigenvalues of (default mixing * dielectric matrix)
  average eigenvalue GAMMA=   0.4423
  1.4223  0.9715  0.9715  0.6880  0.4685  0.4685  0.3618  0.3618  0.2056  0.1513
  0.1513  0.0947  0.0947  0.1114  0.1114

 Free energy of the ion-electron system (eV)
  ---------------------------------------------------
  alpha Z        PSCENC =      1931.70035608
  Ewald energy   TEWEN  =    -36421.09748652
  -Hartree energ DENC   =    -19191.31363216
  -exchange      EXHF   =         0.00000000
  -V(xc)+E(xc)   XCENC  =      2557.53178998
  PAW double counting   =     59623.92476989   -61798.64284120
  entropy T*S    EENTRO =        -0.03571400
  eigenvalues    EBANDS =     -2217.29331197
  atomic energy  EATOM  =     54948.79752401
  Solvation  Ediel_sol  =         0.00000000
  ---------------------------------------------------
  free energy    TOTEN  =      -566.42854589 eV

  energy without entropy =     -566.39283189  energy(sigma->0) =     -566.41068889


--------------------------------------------------------------------------------------------------------




--------------------------------------- Iteration      1(  21)  ---------------------------------------


    POTLOK:  cpu time    0.2782: real time    0.2788
    SETDIJ:  cpu time    0.0343: real time    0.0344
     EDDAV:  cpu time  202.3746: real time  202.8546
    CHARGE:  cpu time    7.5501: real time    7.5680
    MIXING:  cpu time    0.0094: real time    0.0095
    --------------------------------------------
      LOOP:  cpu time  210.2466: real time  210.7452

 eigenvalue-minimisations  : 43936
 total energy-change (2. order) :-0.2545565E+01  (-0.7273527E+00)
 number of electron     632.9999967 magnetization      21.9286347
 augmentation part      209.4883323 magnetization      17.3589646

 Broyden mixing:
  rms(total) = 0.16931E+01    rms(broyden)= 0.16928E+01
  rms(prec ) = 0.19295E+01
  weight for this iteration     100.00

 eigenvalues of (default mixing * dielectric matrix)
  average eigenvalue GAMMA=   0.4609
  1.6222  1.0540  1.0540  0.7119  0.4980  0.4980  0.3798  0.3798  0.2719  0.1945
  0.1659  0.1325  0.0947  0.0947  0.1112  0.1112

 Free energy of the ion-electron system (eV)
  ---------------------------------------------------
  alpha Z        PSCENC =      1931.70035608
  Ewald energy   TEWEN  =    -36421.09748652
  -Hartree energ DENC   =    -19188.13911056
  -exchange      EXHF   =         0.00000000
  -V(xc)+E(xc)   XCENC  =      2556.39377881
  PAW double counting   =     59951.17529881   -62127.64424268
  entropy T*S    EENTRO =        -0.04018982
  eigenvalues    EBANDS =     -2220.12003885
  atomic energy  EATOM  =     54948.79752401
  Solvation  Ediel_sol  =         0.00000000
  ---------------------------------------------------
  free energy    TOTEN  =      -568.97411073 eV

  energy without entropy =     -568.93392091  energy(sigma->0) =     -568.95401582


--------------------------------------------------------------------------------------------------------




--------------------------------------- Iteration      1(  22)  ---------------------------------------


[...]
   -.627E+02 -.339E+03 -.336E+02   0.691E+02 0.358E+03 0.377E+02   -.632E+01 -.191E+02 -.405E+01   -.360E-01 0.503E-01 -.182E-01
   0.611E+02 0.358E+03 0.259E+02   -.675E+02 -.377E+03 -.297E+02   0.651E+01 0.197E+02 0.375E+01   -.281E-01 -.135E-01 -.256E-01
   0.304E+01 -.359E+03 0.465E+02   -.271E+01 0.378E+03 -.510E+02   -.347E+00 -.186E+02 0.443E+01   0.837E-02 -.236E-03 -.694E-03
   -.276E+02 0.346E+03 -.400E+02   0.290E+02 -.364E+03 0.421E+02   -.141E+01 0.183E+02 -.198E+01   0.108E-01 -.345E-01 -.550E-01
   -.431E+02 -.361E+03 -.361E+02   0.484E+02 0.381E+03 0.392E+02   -.526E+01 -.201E+02 -.318E+01   0.174E-01 -.220E-01 0.139E-02
   0.493E+02 0.339E+03 0.461E+02   -.552E+02 -.358E+03 -.496E+02   0.589E+01 0.189E+02 0.350E+01   0.728E-02 0.376E-01 0.998E-02
   0.498E+01 -.324E+03 0.322E+02   -.412E+01 0.344E+03 -.344E+02   -.902E+00 -.201E+02 0.223E+01   0.473E-01 0.460E-01 -.314E-01
   -.348E+02 0.347E+03 0.207E+02   0.370E+02 -.369E+03 -.219E+02   -.219E+01 0.220E+02 0.119E+01   -.680E-02 -.236E-01 0.294E-01
 -----------------------------------------------------------------------------------------------
   0.222E+00 0.227E+00 -.853E+00   0.121E-12 0.398E-12 0.849E-12   -.220E+00 -.263E+00 0.883E+00   0.390E-02 0.379E-01 -.120E-01
 
 
 POSITION                                       TOTAL-FORCE (eV/Angst)
 -----------------------------------------------------------------------------------
      4.23565      7.20239      7.08110         0.007661     -0.009640     -0.003857
      0.03769     12.05464      1.61964         0.000266     -0.002909      0.002996
      1.35685      2.38134      0.65933         0.000547     -0.006850     -0.002836
      2.86083      7.22688      0.01526         0.010103      0.000117     -0.000454
      3.01658     12.06655      1.54097         0.004645      0.004570     -0.014603
      7.06582      7.21195      2.40997        -0.004818     -0.002424     -0.010066
     -1.48319     12.05119      4.27148        -0.002846      0.002395      0.008962
      2.84713      2.39995      3.22729        -0.006468      0.001667      0.007433
      4.11637      7.24904      2.68269        -0.008196      0.001614      0.005587
      5.87185      2.42769      3.16941         0.008672      0.002913     -0.008890
      0.27456      7.24749      4.78963        -0.003355      0.006688     -0.006228
      1.38734      2.40512      5.88898        -0.004419      0.002005      0.010531
      2.87448     12.02649      6.31114        -0.001577     -0.002842     -0.000790
     -4.15023     14.44956      7.27767         0.013737     -0.006950      0.002877
      0.04686      4.81679      1.63183        -0.000954      0.003202     -0.011542
      1.41864      9.60506      0.81131        -0.004042     -0.004146     -0.004086
      2.81929      0.00947      0.01113         0.001203     -0.007305     -0.006054
      2.84923      4.81427      1.62101        -0.004845     -0.001720      0.002703
      4.26184      9.60283      0.79334        -0.002648     -0.001580      0.001344
      5.66829     14.44260      0.00014        -0.005143      0.001129      0.000234
      5.65279      4.85562      1.59556         0.005306      0.004273      0.005975
      7.06698      9.64499      0.81840        -0.003415      0.000663      0.002214
      7.09969     14.46012      2.41873         0.005095     -0.005295      0.002399
     -1.38690      4.82627      4.04678         0.008108      0.003487      0.002475
      0.04063      9.63638      3.22939        -0.000444      0.000306     -0.003921
      1.43045     14.45949      2.44625         0.002913     -0.000238     -0.003458
      1.44867      4.83227      4.04908         0.007871     -0.003379      0.003618
      2.84922      9.65689      3.21648         0.001224     -0.009727     -0.011956
      4.27076     14.45881      2.41608        -0.002284      0.001753     -0.004248
      4.26831      4.84037      4.04943         0.008562     -0.006299      0.001113
      5.68929      9.67238      3.23694        -0.000871      0.002770      0.004555
      5.71125      0.01783      4.84954         0.003542      0.004630      0.003292
     -2.72241      4.79025      6.45756        -0.000054      0.004245      0.001471
     -1.35923      9.59145      5.64879        -0.002695     -0.001305     -0.005340
      0.06826     -0.00291      4.84299        -0.001451     -0.000049      0.001878
      0.08679      4.80756      6.47196         0.004161      0.000798      0.005343
      1.47467      9.62266      5.66474        -0.000828      0.003208     -0.001490
      2.90040     14.45488      4.84615        -0.004863      0.003954      0.002046
      2.92874      4.82401      6.48235         0.000768      0.003138      0.008904
      4.31094      9.63756      5.67767        -0.006645      0.006057      0.002695
      8.37612     10.67750      0.00359         0.000001     -0.000472     -0.001493
      0.13404      3.83219      0.06117        -0.001804      0.003749      0.003611
      0.04221      0.93698      1.61258        -0.000236      0.008314      0.001630
     -0.03526      8.65090      1.60705         0.003487     -0.000649     -0.004410
      1.49727      5.82354      0.75327        -0.004263     -0.000433     -0.006322
      1.46685     13.40296      0.92902         0.004778     -0.006216      0.010958
      2.84358     10.54567      0.02504        -0.003195     -0.001232     -0.000383
      2.83545      3.85014      0.00918         0.005122     -0.007941     -0.006292
      2.70446      1.05081      1.62685        -0.011520      0.002692      0.001739
      2.96376      8.55515      1.60395        -0.006813      0.004794     -0.002084
      4.20971      5.80714      0.81397        -0.001670     -0.003863     -0.000609
      4.20703     13.53259      0.80904         0.002172     -0.002607      0.003511
      1.51236     10.55583      7.26778        -0.002639      0.003587      0.004610
      1.52536      3.89613      7.25121         0.012982      0.002918      0.004390
      5.68595      0.92938      1.63781        -0.017466      0.002920     -0.007933
      5.67994      8.67187      1.65792         0.002677     -0.001478     -0.001660
      7.23500      5.85521      0.81713         0.004459     -0.006285     -0.001143
      7.11479     13.47562      0.79201         0.006930      0.003414      0.005104
     -1.34812     10.62774      2.44910        -0.007570      0.002493      0.003293
      7.00785      3.90310      2.43667        -0.000889      0.003422      0.001142
     -1.47198      1.00301      3.97127         0.000271      0.006300      0.001461
     -1.25281      8.57990      4.04276         0.000969     -0.000085      0.000612
      0.00363      5.79587      3.27165        -0.007299     -0.009307      0.003932
      0.00031     13.48417      3.22175        -0.005765      0.006813      0.008064
      1.43398     10.60615      2.37283        -0.004367     -0.001545     -0.007462
      1.46489      3.83984      2.42378        -0.004089      0.004672      0.000503
      1.50494      0.96953      4.06717        -0.007822     -0.012395      0.009895
      1.44349      8.70832      4.05001        -0.000604      0.000917      0.004522
      2.85862      5.78810      3.23015        -0.001472      0.002632     -0.002006
      2.86291     13.51580      3.20034         0.000151     -0.006269      0.000927
      4.15511     10.62864      2.33606         0.008122      0.000543      0.004196
      4.18921      3.80085      2.50344         0.004058      0.001108      0.001569
      4.28938      0.97351      4.00927        -0.005873     -0.004246     -0.003256
      4.26719      8.72745      4.00792        -0.002938      0.012522     -0.003200
      5.56283      5.88153      3.13966        -0.000673     -0.005388      0.004077
      5.79736     13.47056      3.29754         0.004492     -0.001083     -0.005779
     -2.74057     10.56916      4.85591        -0.004255     -0.005218     -0.003746
      5.69263      3.87640      4.78752         0.004800     -0.000858     -0.000553
     -2.74642      0.92972      6.51561         0.002801      0.010103     -0.001368
     -2.77145      8.62262      6.50438        -0.001641      0.001804      0.007561
     -1.30752      5.77879      5.68108        -0.003043     -0.000489     -0.005847
     -1.35291     13.54119      5.60274         0.011985      0.006871     -0.001378
     -0.05977     10.61707      4.80067        -0.001980     -0.001166     -0.005158
      0.17056      3.81128      4.91637        -0.004487      0.000756     -0.003823
      0.15166      0.92456      6.44248        -0.001775     -0.009584     -0.011314
      0.03717      8.60999      6.42881         0.002598     -0.001979     -0.000067
      1.38697      5.82314      5.61342        -0.004594     -0.005978     -0.004655
      1.60406     13.44728      5.70678         0.001093     -0.003658      0.001225
      2.89514     10.58906      4.92605        -0.000425      0.001922      0.003712
      2.83807      3.85295      4.83419        -0.001774      0.003154      0.007571
      2.81587      0.96904      6.42232         0.001682      0.000820     -0.006894
      3.00127      8.63219      6.52991         0.001588      0.008409      0.001095
      4.33569      5.75105      5.70301         0.000605      0.001004      0.002234
      4.29699     13.51774      5.66006         0.013596     -0.001155      0.004867
 -----------------------------------------------------------------------------------
    total drift:                                0.006438      0.001760      0.017569


--------------------------------------------------------------------------------------------------------



  FREE ENERGIE OF THE ION-ELECTRON SYSTEM (eV)
  ---------------------------------------------------
  free  energy   TOTEN  =      -574.5398251629 eV

  energy  without entropy=     -574.5002105197  energy(sigma->0) =     -574.52001784
 


--------------------------------------------------------------------------------------------------------


    POTLOK:  cpu time    0.3173: real time    0.3180


--------------------------------------------------------------------------------------------------------


     LOOP+:  cpu time11172.7378: real time11199.5151
    4ORBIT:  cpu time    0.0000: real time    0.0000

volume of typ            1:    11.3 %

volume of typ            2:    19.2 %

volume of typ            3:     9.8 %
 
total charge     
 
# of ion       s       p       d       tot
------------------------------------------
    1        2.080   0.254   0.097   2.431
    2        2.067   0.220   0.083   2.370
    3        2.074   0.236   0.090   2.400
    4        2.072   0.235   0.089   2.396
    5        2.072   0.230   0.087   2.389
    6        2.066   0.216   0.081   2.364
    7        2.073   0.235   0.089   2.397
    8        2.070   0.227   0.085   2.382
    9        2.082   0.259   0.099   2.440
   10        2.070   0.227   0.086   2.383
   11        2.078   0.249   0.095   2.422
   12        2.073   0.236   0.089   2.399
   13        2.074   0.237   0.090   2.401
   14        0.280   0.368   7.848   8.496
   15        0.279   0.371   7.837   8.487
   16        0.274   0.357   7.854   8.485
   17        0.275   0.363   7.835   8.473
   18        0.293   0.402   7.834   8.529
   19        0.293   0.402   7.827   8.522
   20        0.293   0.399   7.824   8.516
   21        0.275   0.359   7.847   8.480
   22        0.297   0.410   7.831   8.538
   23        0.298   0.410   7.827   8.535
   24        0.275   0.355   7.852   8.482
   25        0.297   0.410   7.832   8.539
   26        0.299   0.415   7.828   8.543
   27        0.295   0.405   7.829   8.528
   28        0.280   0.373   7.833   8.487
   29        0.279   0.364   7.850   8.493
   30        0.290   0.396   7.828   8.515
   31        0.273   0.353   7.849   8.476
   32        0.293   0.400   7.823   8.517
   33        0.294   0.402   7.830   8.526
   34        0.290   0.394   7.829   8.513
   35        0.271   0.350   7.843   8.464
   36        0.298   0.411   7.829   8.539
   37        0.275   0.358   7.846   8.480
   38        0.298   0.410   7.826   8.535
   39        0.269   0.348   7.848   8.465
   40        0.286   0.386   7.827   8.498
   41        1.267   2.766   0.006   4.040
   42        1.272   2.759   0.007   4.038
   43        1.272   2.758   0.007   4.037
   44        1.266   2.772   0.007   4.045
   45        1.271   2.762   0.006   4.039
   46        1.267   2.766   0.006   4.039
   47        1.274   2.752   0.007   4.033
   48        1.274   2.750   0.007   4.031
   49        1.267   2.767   0.006   4.040
   50        1.266   2.771   0.006   4.042
   51        1.266   2.775   0.007   4.047
   52        1.267   2.773   0.007   4.047
   53        1.272   2.758   0.008   4.037
   54        1.267   2.775   0.008   4.050
   55        1.270   2.762   0.007   4.039
   56        1.266   2.774   0.007   4.046
   57        1.263   2.778   0.006   4.047
   58        1.265   2.773   0.007   4.045
   59        1.266   2.771   0.007   4.043
   60        1.269   2.767   0.007   4.043
   61        1.274   2.754   0.007   4.034
   62        1.268   2.764   0.006   4.038
   63        1.262   2.784   0.007   4.052
   64        1.265   2.774   0.007   4.046
   65        1.264   2.776   0.007   4.047
   66        1.266   2.772   0.007   4.045
   67        1.265   2.773   0.007   4.046
   68        1.267   2.775   0.007   4.049
   69        1.270   2.766   0.007   4.043
   70        1.272   2.756   0.007   4.035
   71        1.273   2.756   0.007   4.036
   72        1.269   2.764   0.006   4.039
   73        1.265   2.773   0.007   4.045
   74        1.270   2.767   0.007   4.044
   75        1.264   2.774   0.006   4.045
   76        1.276   2.746   0.007   4.029
   77        1.268   2.771   0.007   4.046
   78        1.271   2.758   0.007   4.036
   79        1.267   2.772   0.007   4.047
   80        1.263   2.780   0.007   4.049
   81        1.265   2.776   0.007   4.048
   82        1.271   2.765   0.007   4.043
   83        1.275   2.747   0.007   4.029
   84        1.276   2.745   0.007   4.028
   85        1.272   2.761   0.007   4.040
   86        1.263   2.780   0.006   4.049
   87        1.273   2.756   0.007   4.036
   88        1.274   2.753   0.007   4.034
   89        1.273   2.758   0.007   4.038
   90        1.269   2.763   0.007   4.039
   91        1.276   2.746   0.007   4.029
   92        1.273   2.758   0.007   4.038
   93        1.268   2.772   0.007   4.047
   94        1.271   2.760   0.007   4.038
--------------------------------------------------
tot         103.20  162.75  213.10  479.05
 
magnetization (x)
 
# of ion       s       p       d       tot
------------------------------------------
    1        0.005   0.011   0.001   0.018
    2        0.003   0.006   0.000   0.010
    3        0.004   0.009   0.001   0.015
    4        0.004   0.008   0.001   0.012
    5        0.005   0.010   0.001   0.016
    6        0.003   0.005   0.000   0.009
    7        0.005   0.010   0.001   0.016
    8        0.004   0.009   0.001   0.014
    9        0.005   0.012   0.002   0.018
   10        0.005   0.009   0.001   0.015
   11        0.004   0.009   0.001   0.015
   12        0.005   0.012   0.002   0.018
   13        0.005   0.011   0.002   0.018
   14        0.002  -0.000   0.568   0.569
   15       -0.000   0.000   0.416   0.415
   16        0.002  -0.000   0.663   0.665
   17       -0.000  -0.000   0.478   0.477
   18       -0.000  -0.000   0.189   0.189
   19       -0.001   0.000   0.109   0.109
   20       -0.001   0.000   0.105   0.104
   21        0.002  -0.000   0.593   0.595
   22       -0.001   0.000   0.088   0.087
   23       -0.001   0.000   0.066   0.065
   24        0.003  -0.000   0.669   0.672
   25       -0.001   0.000   0.091   0.091
   26       -0.001   0.000   0.060   0.060
   27       -0.001   0.000   0.122   0.121
   28       -0.000  -0.000   0.376   0.375
   29        0.003  -0.000   0.612   0.615
   30       -0.001   0.000   0.160   0.160
   31        0.002  -0.000   0.673   0.675
   32       -0.001   0.000   0.090   0.089
   33       -0.001   0.000   0.127   0.127
   34       -0.001  -0.000   0.177   0.177
   35        0.002   0.000   0.703   0.705
   36       -0.001   0.000   0.065   0.064
   37        0.002  -0.000   0.649   0.651
   38       -0.001   0.000   0.063   0.062
   39        0.001  -0.000   0.696   0.697
   40       -0.001   0.000   0.226   0.225
   41        0.009   0.098   0.000   0.107
   42        0.009   0.105   0.000   0.114
   43        0.002   0.006   0.000   0.009
   44        0.004   0.016   0.000   0.020
   45        0.009   0.064   0.000   0.073
   46        0.010   0.120   0.000   0.131
   47        0.006   0.043   0.000   0.049
   48        0.002   0.009   0.000   0.011
   49        0.009   0.114   0.000   0.123
   50        0.010   0.120   0.000   0.130
   51        0.003   0.003   0.000   0.006
   52        0.003   0.002   0.000   0.005
   53        0.002  -0.000   0.000   0.002
   54        0.003   0.008   0.000   0.010
   55        0.002   0.010   0.000   0.012
   56        0.003   0.004   0.000   0.007
   57        0.010   0.099   0.000   0.110
   58        0.003   0.010   0.000   0.013
   59        0.003   0.018   0.000   0.021
   60        0.008   0.074   0.000   0.082
   61        0.008   0.097   0.000   0.106
   62        0.008   0.097   0.000   0.106
   63        0.004   0.015   0.000   0.020
   64        0.003   0.004   0.000   0.006
   65        0.003   0.003   0.000   0.006
   66        0.003   0.001   0.000   0.004
   67        0.003   0.005   0.000   0.008
   68        0.003   0.006   0.000   0.009
   69        0.003   0.006   0.000   0.009
   70        0.002   0.008   0.000   0.010
   71        0.009   0.102   0.000   0.111
   72        0.009   0.094   0.000   0.103
   73        0.003   0.011   0.000   0.013
   74        0.008   0.046   0.000   0.053
   75        0.009   0.106   0.000   0.115
   76        0.008   0.094   0.000   0.102
   77        0.003   0.006   0.000   0.009
   78        0.003   0.013   0.000   0.016
   79        0.002  -0.002   0.000   0.001
   80        0.004   0.005   0.000   0.009
   81        0.003   0.007   0.000   0.010
   82        0.007   0.048   0.000   0.055
   83        0.008   0.098   0.000   0.107
   84        0.008   0.099   0.000   0.107
   85        0.008   0.057   0.000   0.066
   86        0.004   0.016   0.000   0.020
   87        0.008   0.090   0.000   0.098
   88        0.008   0.095   0.000   0.103
   89        0.009   0.074   0.000   0.084
   90        0.006   0.034   0.000   0.040
   91        0.008   0.087   0.000   0.095
   92        0.009   0.096   0.000   0.105
   93        0.003   0.005   0.000   0.008
   94        0.002   0.009   0.000   0.011
--------------------------------------------------
tot           0.36    2.58    8.86   11.80
 

 total amount of memory used by VASP MPI-rank0   542851. kBytes
=======================================================================

   base      :      30000. kBytes
   nonlr-proj:      49881. kBytes
   fftplans  :       9349. kBytes
   grid      :      55332. kBytes
   one-center:       2923. kBytes
   wavefun   :     395366. kBytes
 
  
  
 General timing and accounting informations for this job:
 ========================================================
  
                  Total CPU time used (sec):    11320.196
                            User time (sec):    11304.428
                          System time (sec):       15.768
                         Elapsed time (sec):    11352.182
  
                   Maximum memory used (kb):      659024.
                   Average memory used (kb):           0.
  
                          Minor page faults:        52315
                          Major page faults:           54
                 Voluntary context switches:         1230
