 vasp.5.4.4.18Apr17-6-g9f103f2a35 (build May 12 2020 04:58:55) complex          
  
 MD_VERSION_INFO: Compiled 2020-05-12T11:58:55-UTC in devlin.sd.materialsdesign.
 com:/home/medea2/data/build/wwolf/vasp-gpu5.4.4/13047/x86_64/src/src/build/std 
 from svn 13047
 
 This VASP executable licensed from Materials Design, Inc.
 
 executed on                        Lin64 date 2023.03.25  06:02:11
 running on   16 total cores
 distrk:  each k-point on   16 cores,    1 groups
 distr:  one band on NCORES_PER_BAND=   1 cores,   16 groups


--------------------------------------------------------------------------------------------------------


 INCAR:
 POTCAR:    PAW_PBE Ni 02Aug2007                  
 POTCAR:    PAW_PBE O 08Apr2002                   

 ----------------------------------------------------------------------------- 
|                                                                             |
|           W    W    AA    RRRRR   N    N  II  N    N   GGGG   !!!           |
|           W    W   A  A   R    R  NN   N  II  NN   N  G    G  !!!           |
|           W    W  A    A  R    R  N N  N  II  N N  N  G       !!!           |
|           W WW W  AAAAAA  RRRRR   N  N N  II  N  N N  G  GGG   !            |
|           WW  WW  A    A  R   R   N   NN  II  N   NN  G    G                |
|           W    W  A    A  R    R  N    N  II  N    N   GGGG   !!!           |
|                                                                             |
|      For optimal performance we recommend to set                            |
|        NCORE= 4 - approx SQRT( number of cores)                             |
|      NCORE specifies how many cores store one orbital (NPAR=cpu/NCORE).     |
|      This setting can  greatly improve the performance of VASP for DFT.     |
|      The default,   NCORE=1            might be grossly inefficient         |
|      on modern multi-core architectures or massively parallel machines.     |
|      Do your own testing !!!!                                               |
|      Unfortunately you need to use the default for GW and RPA calculations. |
|      (for HF NCORE is supported but not extensively tested yet)             |
|                                                                             |
 ----------------------------------------------------------------------------- 

 POTCAR:    PAW_PBE Ni 02Aug2007                  
  local pseudopotential read in
  partial core-charges read in
  partial kinetic energy density read in
  atomic valenz-charges read in
  non local Contribution for L=           2  read in
    real space projection operators read in
  non local Contribution for L=           2  read in
    real space projection operators read in
  non local Contribution for L=           0  read in
    real space projection operators read in
  non local Contribution for L=           0  read in
    real space projection operators read in
  non local Contribution for L=           1  read in
    real space projection operators read in
  non local Contribution for L=           1  read in
    real space projection operators read in
    PAW grid and wavefunctions read in
 
   number of l-projection  operators is LMAX  =           6
   number of lm-projection operators is LMMAX =          18
 
 POTCAR:    PAW_PBE O 08Apr2002                   
  local pseudopotential read in
  partial core-charges read in
  partial kinetic energy density read in
  kinetic energy density of atom read in
  atomic valenz-charges read in
  non local Contribution for L=           0  read in
    real space projection operators read in
  non local Contribution for L=           0  read in
    real space projection operators read in
  non local Contribution for L=           1  read in
    real space projection operators read in
  non local Contribution for L=           1  read in
    real space projection operators read in
    PAW grid and wavefunctions read in
 
   number of l-projection  operators is LMAX  =           4
   number of lm-projection operators is LMMAX =           8
 
 Optimization of the real space projectors (new method)

 maximal supplied QI-value         = 16.25
 optimisation between [QCUT,QGAM] = [ 11.38, 22.75] = [ 36.24,144.96] Ry 
 Optimized for a Real-space Cutoff    1.47 Angstroem

   l    n(q)    QCUT    max X(q) W(low)/X(q) W(high)/X(q)  e(spline) 
   2      9    11.376    60.317    0.17E-03    0.16E-04    0.16E-06
   2      9    11.376    55.921    0.17E-03    0.16E-04    0.17E-06
   0     10    11.376    51.690    0.45E-04    0.60E-04    0.21E-06
   0     10    11.376    30.015    0.37E-04    0.55E-04    0.19E-06
   1     10    11.376    18.849    0.83E-04    0.11E-03    0.92E-07
   1     10    11.376    14.624    0.69E-04    0.92E-04    0.82E-07
 Optimization of the real space projectors (new method)

 maximal supplied QI-value         = 24.76
 optimisation between [QCUT,QGAM] = [ 11.39, 22.77] = [ 36.31,145.25] Ry 
 Optimized for a Real-space Cutoff    1.10 Angstroem

   l    n(q)    QCUT    max X(q) W(low)/X(q) W(high)/X(q)  e(spline) 
   0      7    11.387    20.381    0.22E-03    0.48E-03    0.18E-06
   0      7    11.387    15.268    0.22E-03    0.52E-03    0.19E-06
   1      7    11.387     5.964    0.22E-03    0.73E-03    0.24E-06
   1      7    11.387     5.382    0.19E-03    0.60E-03    0.21E-06

 ----------------------------------------------------------------------------- 
|                                                                             |
|  ADVICE TO THIS USER RUNNING 'VASP/VAMP'   (HEAR YOUR MASTER'S VOICE ...):  |
|                                                                             |
|      You enforced a specific xc-type in the INCAR file,                     |
|      a different type was found on the POTCAR file                          |
|          I HOPE YOU KNOW, WHAT YOU ARE  DOING                               |
|                                                                             |
 ----------------------------------------------------------------------------- 

  PAW_PBE Ni 02Aug2007                  :
 energy of atom  1       EATOM=-1077.6739
 kinetic energy error for atom=    0.0030 (will be added to EATOM!!)
  PAW_PBE O 08Apr2002                   :
 energy of atom  2       EATOM= -432.3788
 kinetic energy error for atom=    0.0224 (will be added to EATOM!!)
 
 
 POSCAR: Ni2O3_Cmcm_scale_1_000_disp_0_15_round_1
  positions in direct lattice
  No initial velocities read in
 exchange correlation table for  LEXCH =       14
   RHO(1)=    0.500       N(1)  =     2000
   RHO(2)=  100.500       N(2)  =     4000
 


--------------------------------------------------------------------------------------------------------


 ion  position               nearest neighbor table
   1  0.001  0.397  0.045-  52 1.73 110 1.93  56 2.15  62 2.17  55 2.29 104 2.34  10 2.71  33 2.75
                            17 2.80  47 2.85  15 2.91
   2  0.169  0.143  0.960-  56 1.99  55 2.14  50 2.16  74 2.17  51 2.21  79 2.27  18 2.67   8 2.83
                            34 2.91   7 2.94   9 3.00  17 3.05  23 3.08
   3  0.017  0.369  0.450-  53 1.76  57 1.86  61 1.89  58 1.89 109 2.23 105 2.31   6 2.84   4 2.86
                            19 2.87   5 2.91  14 2.93  36 2.96  37 3.05  12 3.06
   4  0.156  0.149  0.551-  54 1.73  58 1.94  57 1.96  49 2.08  82 2.13  73 2.27   5 2.57  20 2.69
                            13 2.71  36 2.77   3 2.86   6 2.91  19 3.05  11 3.07
   5  0.177  0.389  0.625-  58 1.61  82 1.81  59 1.99  66 2.10  90 2.17  61 2.30   4 2.57  37 2.86
                            19 2.89  21 2.90   3 2.91  28 3.03
   6  0.023  0.103  0.370-  60 1.75  65 1.83  57 1.88  49 2.09 105 2.33   3 2.84  36 2.88  11 2.91
                             4 2.91  43 2.97  22 2.97
   7  0.036  0.089  0.142-  64 1.25  56 1.85  60 2.10 112 2.14  50 2.15 104 2.49  23 2.63   2 2.94
                            39 3.00   9 3.05
   8  0.157  0.388  0.854-  59 1.79  63 1.83  87 2.10  55 2.22  79 2.24  24 2.76  40 2.83   2 2.83
                            26 2.94
   9  0.182  0.855  0.033-  67 1.56  92 1.89  74 1.92  50 2.12  68 2.21  64 2.28  10 2.69  26 2.75
                            25 2.89  16 2.99   2 3.00  32 3.03   7 3.05
  10  0.004  0.650  0.967-  68 1.63  62 1.86 115 1.92  63 2.09  67 2.15 110 2.31  26 2.60   9 2.69
                             1 2.71  42 2.72  16 2.73  41 2.94  47 3.01
  11  0.209  0.881  0.445-  93 1.72  73 1.74  65 2.10  70 2.22  49 2.30  69 2.36  27 2.64  22 2.67
                            14 2.84   6 2.91  28 2.94  29 3.01   4 3.07  13 3.07
  12  0.001  0.653  0.541- 118 1.84  69 1.86  70 1.95 109 2.17  66 2.26  61 2.41  13 2.84  28 2.86
                            14 2.90  43 2.95  37 2.99   3 3.06
  13  0.012  0.922  0.617-  54 1.83  49 1.93 102 2.03 118 2.06  71 2.29  70 2.37   4 2.71  12 2.84
                            29 2.88  36 2.88  11 3.07
  14  0.169  0.612  0.372-  77 1.91  93 1.92  69 1.93  53 1.94  72 1.99  61 2.00  11 2.84  12 2.90
                             3 2.93  28 2.94  19 3.06
  15  0.172  0.594  0.157-  72 1.52  52 2.03  76 2.04  68 2.21  92 2.35  62 2.41  17 2.81   1 2.91
                            31 2.98
  16  0.999  0.881  0.860-  71 1.54 115 1.88  51 1.99  99 2.13  67 2.15  50 2.45  10 2.73   9 2.99

  17  0.322  0.386  0.057-  76 1.74  62 2.18  80 2.19  86 2.19  56 2.21  79 2.30  31 2.67   1 2.80
                            15 2.81  26 2.87  23 2.93   2 3.05
  18  0.477  0.140  0.956-  79 1.82  74 2.02  98 2.10  80 2.11  75 2.16 103 2.24   2 2.67  24 2.78
                            32 2.87  23 3.02  25 3.02
  19  0.347  0.370  0.455-  81 1.86  61 1.87  85 2.02  77 2.13  82 2.13  57 2.19  35 2.51  20 2.69
                             3 2.87   5 2.89  28 2.97  30 3.01  22 3.05   4 3.05  14 3.06  21 3.07
  20  0.464  0.151  0.544-  82 1.82  81 1.85  73 2.00 106 2.10  97 2.20  78 2.23  19 2.69   4 2.69
                            22 2.80  35 2.85  21 2.90  45 2.96  29 3.02
  21  0.508  0.409  0.641-  83 1.99  90 2.02 106 2.05  82 2.06 114 2.10  85 2.25   5 2.90  20 2.90
                            44 2.97  37 2.98  35 3.07  19 3.07  28 3.07
  22  0.364  0.087  0.366-  89 1.81  65 1.82  81 1.97  84 1.97  73 2.13  57 2.43  38 2.65  11 2.67
                            20 2.80  27 2.82   6 2.97  19 3.05
  23  0.336  0.116  0.145-  84 1.50  88 1.87  80 2.07  64 2.16  56 2.18   7 2.63  17 2.93  18 3.02
                             2 3.08
  24  0.473  0.390  0.863-  79 1.60  83 1.72  87 1.99 103 2.27 111 2.42  86 2.46   8 2.76  18 2.78
                            26 3.01
  25  0.513  0.860  0.045-  91 1.92  98 1.94  88 1.98  92 2.01  74 2.10 116 2.26  41 2.61  48 2.87
                             9 2.89  42 3.00  18 3.02  31 3.02  32 3.06
  26  0.299  0.627  0.944-  62 1.57  87 1.78  67 1.87  92 2.06  86 2.12  91 2.23  10 2.60   9 2.75
                            17 2.87   8 2.94  24 3.01  32 3.03
  27  0.511  0.862  0.452-  97 1.84 117 1.97  89 2.06  94 2.12  93 2.13  73 2.14  11 2.64  44 2.65
                            45 2.69  38 2.76  22 2.82  43 2.86  30 2.86  28 2.99
  28  0.330  0.643  0.547-  70 1.64  90 1.70  85 1.86  93 2.02  94 2.15  61 2.21  44 2.64  29 2.77
                            12 2.86  14 2.94  11 2.94  19 2.97  27 2.99   5 3.03  21 3.07
  29  0.339  0.896  0.636-  94 1.60  54 1.81  95 1.81  78 2.00  70 2.14  73 2.25  45 2.65  28 2.77
                            13 2.88  11 3.01  20 3.02
  30  0.528  0.598  0.366- 101 1.72  96 1.97  77 1.99 117 2.04  85 2.22  46 2.37  93 2.43  35 2.78
                            44 2.83  27 2.86  19 3.01
  31  0.510  0.574  0.128- 100 1.84  86 1.88  96 1.97  76 2.10  92 2.30 116 2.31  47 2.49  17 2.67
                            33 2.87  15 2.98  25 3.02
  32  0.362  0.906  0.858-  75 1.57  95 1.70  91 2.10  74 2.13  67 2.20  51 2.27  48 2.47  18 2.87
                            26 3.03   9 3.03  25 3.06
  33  0.691  0.350  0.060- 100 1.63 104 1.64  80 1.99 110 2.01 103 2.32  47 2.69   1 2.75  39 2.76
                            34 2.84  31 2.87
  34  0.836  0.155  0.942-  55 1.62 103 1.80  99 1.96 104 2.17  50 2.31  98 2.35  40 2.65  33 2.84
                             2 2.91
  35  0.634  0.357  0.448- 101 1.74  81 1.81 105 2.03 106 2.08  85 2.26 109 2.37  19 2.51  30 2.78
                            20 2.85  38 2.89  36 3.01  21 3.07
  36  0.839  0.142  0.533- 105 1.83 102 1.88  49 2.01 106 2.16  97 2.32  58 2.47   4 2.77  38 2.80
                            13 2.88   6 2.88   3 2.96  37 2.99  35 3.01  45 3.05  43 3.06
  37  0.850  0.412  0.631-  66 1.64 107 1.90 109 1.96  58 2.06 106 2.30   5 2.86  21 2.98  12 2.99
                            36 2.99   3 3.05
  38  0.667  0.081  0.376- 113 1.55  89 1.87 105 2.00  97 2.07 108 2.14  81 2.28  22 2.65  43 2.71
                            27 2.76  36 2.80  35 2.89
  39  0.691  0.095  0.144- 112 1.67 108 1.84 104 1.93  88 2.09  80 2.30  98 2.31  33 2.76  41 2.83
                             7 3.00
  40  0.832  0.399  0.859- 107 1.85  63 1.90  55 2.01 103 2.01 110 2.02 111 2.07  34 2.65   8 2.83
                            42 2.94
  41  0.811  0.851  0.064- 116 1.61 112 1.97 115 2.10  68 2.18  98 2.25  50 2.33  25 2.61  47 2.69
                            39 2.83  42 2.84  10 2.94
  42  0.693  0.639  0.950- 111 2.00 110 2.01 115 2.01 116 2.05  91 2.09  86 2.18  10 2.72  47 2.77
                            48 2.78  41 2.84  40 2.94  25 3.00
  43  0.838  0.864  0.432- 113 1.62 117 1.92  69 2.01  49 2.20 118 2.23  97 2.41  46 2.63  38 2.71
                            27 2.86  12 2.95   6 2.97  36 3.06
  44  0.632  0.655  0.546- 114 1.59 117 1.88  85 1.94  94 2.13 118 2.31 109 2.36  28 2.64  27 2.65
                            45 2.71  30 2.83  21 2.97  46 3.05
  45  0.641  0.914  0.615-  94 1.79  97 1.81  78 1.85 102 1.92 119 2.14 118 2.34  29 2.65  27 2.69
                            44 2.71  20 2.96  36 3.05
  46  0.799  0.617  0.363- 120 1.65 117 1.80 101 2.10  69 2.25  30 2.37  53 2.38 109 2.45  43 2.63
                            44 3.05
  47  0.795  0.590  0.127- 116 1.59 100 1.59  52 2.01  68 2.26 120 2.31 110 2.32  31 2.49  33 2.69
                            41 2.69  42 2.77   1 2.85  10 3.01
  48  0.645  0.893  0.866- 119 1.65  75 1.67  91 1.98  98 2.23  99 2.30 115 2.30  32 2.47  42 2.78
                            25 2.87
  49  0.003  0.005  0.497-  13 1.93  36 2.01   4 2.08   6 2.09  43 2.20  11 2.30
  50  0.001  0.997  0.009-   9 2.12   7 2.15   2 2.16  34 2.31  41 2.33  16 2.45
  51  0.147  0.031  0.829-  16 1.99   2 2.21  32 2.27
  52  0.981  0.474  0.152-   1 1.73  47 2.01  15 2.03
  53  0.017  0.469  0.349-   3 1.76  14 1.94  46 2.38
  54  0.188  0.023  0.633-   4 1.73  29 1.81  13 1.83
  55  0.974  0.261  0.918-  34 1.62  40 2.01   2 2.14   8 2.22   1 2.29
  56  0.145  0.227  0.083-   7 1.85   2 1.99   1 2.15  23 2.18  17 2.21
  57  0.157  0.228  0.428-   3 1.86   6 1.88   4 1.96  19 2.19  22 2.43
  58  0.036  0.314  0.574-   5 1.61   3 1.89   4 1.94  37 2.06  36 2.47
  59  0.219  0.311  0.749-   8 1.79   5 1.99
  60  0.014  0.194  0.267-   6 1.75   7 2.10
  61  0.181  0.488  0.481-  19 1.87   3 1.89  14 2.00  28 2.21   5 2.30  12 2.41
  62  0.173  0.540  0.995-  26 1.57  10 1.86   1 2.17  17 2.18  15 2.41
  63  0.005  0.518  0.854-   8 1.83  40 1.90  10 2.09
  64  0.129  0.994  0.155-   7 1.25  23 2.16   9 2.28
  65  0.187  0.005  0.327-  22 1.82   6 1.83  11 2.10
  66  0.990  0.513  0.664-  37 1.64   5 2.10  12 2.26
  67  0.187  0.791  0.935-   9 1.56  26 1.87  10 2.15  16 2.15  32 2.20
  68  0.002  0.706  0.073-  10 1.63  41 2.18  15 2.21   9 2.21  47 2.26
  69  0.006  0.724  0.423-  12 1.86  14 1.93  43 2.01  46 2.25  11 2.36
  70  0.190  0.752  0.570-  28 1.64  12 1.95  29 2.14  11 2.22  13 2.37
  71  0.009  0.826  0.761-  16 1.54  13 2.29
  72  0.157  0.680  0.243-  15 1.52  14 1.99
  73  0.332  0.998  0.498-  11 1.74  20 2.00  22 2.13  27 2.14  29 2.25   4 2.27
  74  0.335  0.985  0.994-   9 1.92  18 2.02  25 2.10  32 2.13   2 2.17
  75  0.503  0.003  0.840-  32 1.57  48 1.67  18 2.16
  76  0.333  0.442  0.169-  17 1.74  15 2.04  31 2.10
  77  0.336  0.496  0.336-  14 1.91  30 1.99  19 2.13
  78  0.502  0.031  0.672-  45 1.85  29 2.00  20 2.23
  79  0.363  0.285  0.916-  24 1.60  18 1.82   8 2.24   2 2.27  17 2.30
  80  0.504  0.237  0.085-  33 1.99  23 2.07  18 2.11  17 2.19  39 2.30
  81  0.485  0.230  0.429-  35 1.81  20 1.85  19 1.86  22 1.97  38 2.28
  82  0.338  0.284  0.590-   5 1.81  20 1.82  21 2.06   4 2.13  19 2.13
  83  0.480  0.307  0.759-  24 1.72  21 1.99
  84  0.343  0.167  0.242-  23 1.50  22 1.97
  85  0.480  0.522  0.507-  28 1.86  44 1.94  19 2.02  30 2.22  21 2.25  35 2.26
  86  0.493  0.530  0.003-  31 1.88  26 2.12  42 2.18  17 2.19  24 2.46
  87  0.325  0.542  0.838-  26 1.78  24 1.99   8 2.10
  88  0.488  0.980  0.154-  23 1.87  25 1.98  39 2.09
  89  0.512  0.968  0.329-  22 1.81  38 1.87  27 2.06
  90  0.341  0.554  0.647-  28 1.70  21 2.02   5 2.17
  91  0.502  0.765  0.930-  25 1.92  48 1.98  42 2.09  32 2.10  26 2.23
  92  0.337  0.729  0.067-   9 1.89  25 2.01  26 2.06  31 2.30  15 2.35
  93  0.317  0.736  0.423-  11 1.72  14 1.92  28 2.02  27 2.13  30 2.43
  94  0.476  0.809  0.591-  29 1.60  45 1.79  27 2.12  44 2.13  28 2.15
  95  0.351  0.831  0.753-  32 1.70  29 1.81
  96  0.477  0.674  0.244-  30 1.97  31 1.97
  97  0.634  0.995  0.504-  45 1.81  27 1.84  38 2.07  20 2.20  36 2.32  43 2.41
  98  0.649  0.003  1.000-  25 1.94  18 2.10  48 2.23  41 2.25  39 2.31  34 2.35
  99  0.840  0.043  0.831-  34 1.96  16 2.13  48 2.30
 100  0.681  0.464  0.142-  47 1.59  33 1.63  31 1.84
 101  0.641  0.455  0.348-  30 1.72  35 1.74  46 2.10
 102  0.815  0.030  0.637-  36 1.88  45 1.92  13 2.03
 103  0.679  0.265  0.912-  34 1.80  40 2.01  18 2.24  24 2.27  33 2.32
 104  0.818  0.229  0.082-  33 1.64  39 1.93  34 2.17   1 2.34   7 2.49
 105  0.811  0.227  0.422-  36 1.83  38 2.00  35 2.03   3 2.31   6 2.33
 106  0.654  0.273  0.578-  21 2.05  35 2.08  20 2.10  36 2.16  37 2.30
 107  0.823  0.319  0.744-  40 1.85  37 1.90
 108  0.667  0.194  0.250-  39 1.84  38 2.14
 109  0.830  0.498  0.510-  37 1.96  12 2.17   3 2.23  44 2.36  35 2.37  46 2.45
 110  0.824  0.479  0.987-   1 1.93  42 2.01  33 2.01  40 2.02  10 2.31  47 2.32
 111  0.676  0.551  0.826-  42 2.00  40 2.07  24 2.42
 112  0.828  0.980  0.168-  39 1.67  41 1.97   7 2.14
 113  0.780  0.963  0.350-  38 1.55  43 1.62
 114  0.634  0.593  0.647-  44 1.59  21 2.10
 115  0.854  0.785  0.930-  16 1.88  10 1.92  42 2.01  41 2.10  48 2.30
 116  0.708  0.716  0.080-  47 1.59  41 1.61  42 2.05  25 2.26  31 2.31
 117  0.677  0.729  0.429-  46 1.80  44 1.88  43 1.92  27 1.97  30 2.04
 118  0.853  0.779  0.574-  12 1.84  13 2.06  43 2.23  44 2.31  45 2.34
 119  0.635  0.851  0.756-  48 1.65  45 2.14
 120  0.811  0.703  0.266-  46 1.65  47 2.31
 
  LATTYP: Found a simple orthorhombic cell.
 ALAT       =     8.7082700000
 B/A-ratio  =     1.1146370060
 C/A-ratio  =     1.6738812646
  
  Lattice vectors:
  
 A1 = (   8.7082700000,   0.0000000000,   0.0000000000)
 A2 = (   0.0000000000,   9.7065600000,   0.0000000000)
 A3 = (   0.0000000000,   0.0000000000,  14.5766100000)


Analysis of symmetry for initial positions (statically):
=====================================================================
 Subroutine PRICEL returns:
 Original cell was already a primitive cell.
 

 Routine SETGRP: Setting up the symmetry group for a 
 simple orthorhombic supercell.


 Subroutine GETGRP returns: Found  1 space group operations
 (whereof  1 operations were pure point group operations)
 out of a pool of  8 trial point group operations.


The static configuration has the point symmetry C_1 .


Analysis of symmetry for dynamics (positions and initial velocities):
=====================================================================
 Subroutine PRICEL returns:
 Original cell was already a primitive cell.
 

 Routine SETGRP: Setting up the symmetry group for a 
 simple orthorhombic supercell.


 Subroutine GETGRP returns: Found  1 space group operations
 (whereof  1 operations were pure point group operations)
 out of a pool of  8 trial point group operations.


The dynamic configuration has the point symmetry C_1 .


Analysis of structural, dynamic, and magnetic symmetry:
=====================================================================
 Subroutine PRICEL returns:
 Original cell was already a primitive cell.
 

 Routine SETGRP: Setting up the symmetry group for a 
 simple orthorhombic supercell.


 Subroutine GETGRP returns: Found  1 space group operations
 (whereof  1 operations were pure point group operations)
 out of a pool of  8 trial point group operations.


The magnetic configuration has the point symmetry C_1 .


 Subroutine INISYM returns: Found  1 space group operations
 (whereof  1 operations are pure point group operations),
 and found     1 'primitive' translations

 
 
 KPOINTS: Automatic mesh                          

Automatic generation of k-mesh.
Space group operators:
 irot       det(A)        alpha          n_x          n_y          n_z        tau_x        tau_y        tau_z
    1     1.000000     0.000001     1.000000     0.000000     0.000000     0.000000     0.000000     0.000000
 
 Subroutine IBZKPT returns following result:
 ===========================================
 
 Found     10 irreducible k-points:
 
 Following reciprocal coordinates:
            Coordinates               Weight
  0.000000  0.000000  0.000000      1.000000
  0.333333  0.000000  0.000000      2.000000
  0.000000  0.333333  0.000000      2.000000
  0.333333  0.333333  0.000000      2.000000
 -0.333333  0.333333  0.000000      2.000000
  0.000000  0.000000  0.500000      1.000000
  0.333333  0.000000  0.500000      2.000000
  0.000000  0.333333  0.500000      2.000000
  0.333333  0.333333  0.500000      2.000000
 -0.333333  0.333333  0.500000      2.000000
 
 Following cartesian coordinates:
            Coordinates               Weight
  0.000000  0.000000  0.000000      1.000000
  0.038278  0.000000  0.000000      2.000000
  0.000000  0.034341  0.000000      2.000000
  0.038278  0.034341  0.000000      2.000000
 -0.038278  0.034341  0.000000      2.000000
  0.000000  0.000000  0.034302      1.000000
  0.038278  0.000000  0.034302      2.000000
  0.000000  0.034341  0.034302      2.000000
  0.038278  0.034341  0.034302      2.000000
 -0.038278  0.034341  0.034302      2.000000
 


--------------------------------------------------------------------------------------------------------




 Dimension of arrays:
   k-points           NKPTS =     10   k-points in BZ     NKDIM =     10   number of bands    NBANDS=    608
   number of dos      NEDOS =    301   number of ions     NIONS =    120
   non local maximal  LDIM  =      6   non local SUM 2l+1 LMDIM =     18
   total plane-waves  NPLWV = 497664
   max r-space proj   IRMAX =   5472   max aug-charges    IRDMAX=  13291
   dimension x,y,z NGX =    64 NGY =   72 NGZ =  108
   dimension x,y,z NGXF=   128 NGYF=  144 NGZF=  216
   support grid    NGXF=   128 NGYF=  144 NGZF=  216
   ions per type =              48  72
   NGX,Y,Z   is equivalent  to a cutoff of  12.22, 12.33, 12.32 a.u.
   NGXF,Y,Z  is equivalent  to a cutoff of  24.44, 24.66, 24.63 a.u.

 SYSTEM =  unknown system                          
 POSCAR =  Ni2O3_Cmcm_scale_1_000_disp_0_15_round_1

 Startparameter for this run:
   NWRITE =      1    write-flag & timer
   PREC   = accura    normal or accurate (medium, high low for compatibility)
   ISTART =      0    job   : 0-new  1-cont  2-samecut
   ICHARG =      2    charge: 1-file 2-atom 10-const
   ISPIN  =      2    spin polarized calculation?
   LNONCOLLINEAR =      F non collinear calculations
   LSORBIT =      F    spin-orbit coupling
   INIWAV =      1    electr: 0-lowe 1-rand  2-diag
   LASPH  =      F    aspherical Exc in radial PAW
   METAGGA=      F    non-selfconsistent MetaGGA calc.

 Electronic Relaxation 1
   ENCUT  =  500.0 eV  36.75 Ry    6.06 a.u.  15.88 17.70 26.58*2*pi/ulx,y,z
   ENINI  =  500.0     initial cutoff
   ENAUG  =  605.4 eV  augmentation charge cutoff
   NELM   =     80;   NELMIN=  2; NELMDL= -5     # of ELM steps 
   EDIFF  = 0.1E-04   stopping-criterion for ELM
   LREAL  =      T    real-space projection
   NLSPLINE    = F    spline interpolate recip. space projectors
   LCOMPAT=      F    compatible to vasp.4.4
   GGA_COMPAT  = T    GGA compatible to vasp.4.4-vasp.4.6
   LMAXPAW     = -100 max onsite density
   LMAXMIX     =    2 max onsite mixed and CHGCAR
   VOSKOWN=      1    Vosko Wilk Nusair interpolation
   ROPT   =   -0.00025  -0.00025
 Ionic relaxation
   EDIFFG = 0.1E-03   stopping-criterion for IOM
   NSW    =      0    number of steps for IOM
   NBLOCK =      1;   KBLOCK =      1    inner block; outer block 
   IBRION =     -1    ionic relax: 0-MD 1-quasi-New 2-CG
   NFREE  =      0    steps in history (QN), initial steepest desc. (CG)
   ISIF   =      2    stress and relaxation
   IWAVPR =     10    prediction:  0-non 1-charg 2-wave 3-comb
   ISYM   =      2    0-nonsym 1-usesym 2-fastsym
   LCORR  =      T    Harris-Foulkes like correction to forces

   POTIM  = 0.5000    time-step for ionic-motion
   TEIN   =    0.0    initial temperature
   TEBEG  =    0.0;   TEEND  =   0.0 temperature during run
   SMASS  =  -3.00    Nose mass-parameter (am)
   estimated Nose-frequenzy (Omega)   =  0.10E-29 period in steps =****** mass=  -0.173E-26a.u.
   SCALEE = 1.0000    scale energy and forces
   NPACO  =    256;   APACO  = 16.0  distance and # of slots for P.C.
   PSTRESS=    0.0 pullay stress

  Mass of Ions in am
   POMASS =  58.69 16.00
  Ionic Valenz
   ZVAL   =  10.00  6.00
  Atomic Wigner-Seitz radii
   RWIGS  =   1.15  0.73
  virtual crystal weights 
   VCA    =   1.00  1.00
   NELECT =     912.0000    total number of electrons
   NUPDOWN=      -1.0000    fix difference up-down

 DOS related values:
   EMIN   =  10.00;   EMAX   =-10.00  energy-range for DOS
   EFERMI =   0.00
   ISMEAR =     0;   SIGMA  =   0.05  broadening in eV -4-tet -1-fermi 0-gaus

 Electronic relaxation 2 (details)
   IALGO  =     38    algorithm
   LDIAG  =      T    sub-space diagonalisation (order eigenvalues)
   LSUBROT=      F    optimize rotation matrix (better conditioning)
   TURBO    =      0    0=normal 1=particle mesh
   IRESTART =      0    0=no restart 2=restart with 2 vectors
   NREBOOT  =      0    no. of reboots
   NMIN     =      0    reboot dimension
   EREF     =   0.00    reference energy to select bands
   IMIX   =      4    mixing-type and parameters
     AMIX     =   0.40;   BMIX     =  1.00
     AMIX_MAG =   1.60;   BMIX_MAG =  1.00
     AMIN     =   0.10
     WC   =   100.;   INIMIX=   1;  MIXPRE=   1;  MAXMIX= -45

 Intra band minimization:
   WEIMIN = 0.0000     energy-eigenvalue tresh-hold
   EBREAK =  0.41E-08  absolut break condition
   DEPER  =   0.30     relativ break condition  

   TIME   =   0.40     timestep for ELM

  volume/ion in A,a.u.               =      10.27        69.29
  Fermi-wavevector in a.u.,A,eV,Ry     =   1.480887  2.798470 29.837925  2.193026
  Thomas-Fermi vector in A             =   2.594865
 
 Write flags
   LWAVE        =      F    write WAVECAR
   LDOWNSAMPLE  =      F    k-point downsampling of WAVECAR
   LCHARG       =      T    write CHGCAR
   LVTOT        =      F    write LOCPOT, total local potential
   LVHAR        =      F    write LOCPOT, Hartree potential only
   LELF         =      F    write electronic localiz. function (ELF)
   LORBIT       =      0    0 simple, 1 ext, 2 COOP (PROOUT), +10 PAW based schemes


 Dipole corrections
   LMONO  =      F    monopole corrections only (constant potential shift)
   LDIPOL =      F    correct potential (dipole corrections)
   IDIPOL =      0    1-x, 2-y, 3-z, 4-all directions 
   EPSILON=  1.0000000 bulk dielectric constant

 Exchange correlation treatment:
   GGA     =    PS    GGA type
   LEXCH   =    14    internal setting for exchange type
   VOSKOWN=      1    Vosko Wilk Nusair interpolation
   LHFCALC =     F    Hartree Fock is set to
   LHFONE  =     F    Hartree Fock one center treatment
   AEXX    =    0.0000 exact exchange contribution

 Linear response parameters
   LEPSILON=     F    determine dielectric tensor
   LRPA    =     F    only Hartree local field effects (RPA)
   LNABLA  =     F    use nabla operator in PAW spheres
   LVEL    =     F    velocity operator in full k-point grid
   LINTERFAST=   F  fast interpolation
   KINTER  =     0    interpolate to denser k-point grid
   CSHIFT  =0.1000    complex shift for real part using Kramers Kronig
   OMEGAMAX=  -1.0    maximum frequency
   DEG_THRESHOLD= 0.2000000E-02 threshold for treating states as degnerate
   RTIME   =   -0.100 relaxation time in fs
  (WPLASMAI=    0.000 imaginary part of plasma frequency in eV, 0.658/RTIME)
   DFIELD  = 0.0000000 0.0000000 0.0000000 field for delta impulse in time
 
 Orbital magnetization related:
   ORBITALMAG=     F  switch on orbital magnetization
   LCHIMAG   =     F  perturbation theory with respect to B field
   DQ        =  0.001000  dq finite difference perturbation B field
   LLRAUG    =     F  two centre corrections for induced B field



--------------------------------------------------------------------------------------------------------


 Static calculation
 charge density and potential will be updated during run
 spin polarized calculation
 Variant of blocked Davidson
 Davidson routine will perform the subspace rotation
 perform sub-space diagonalisation
    after iterative eigenvector-optimisation
 modified Broyden-mixing scheme, WC =      100.0
 initial mixing is a Kerker type mixing with AMIX =  0.4000 and BMIX =      1.0000
 Hartree-type preconditioning will be used
 using additional bands          152
 real space projection scheme for non local part
 use partial core corrections
 calculate Harris-corrections to forces 
   (improved forces if not selfconsistent)
 use gradient corrections 
 use of overlap-Matrix (Vanderbilt PP)
 Gauss-broadening in eV      SIGMA  =   0.05


--------------------------------------------------------------------------------------------------------


  energy-cutoff  :      500.00
  volume of cell :     1232.12
      direct lattice vectors                 reciprocal lattice vectors
     8.708270000  0.000000000  0.000000000     0.114833371  0.000000000  0.000000000
     0.000000000  9.706560000  0.000000000     0.000000000  0.103023110  0.000000000
     0.000000000  0.000000000 14.576610000     0.000000000  0.000000000  0.068603057

  length of vectors
     8.708270000  9.706560000 14.576610000     0.114833371  0.103023110  0.068603057


 
 k-points in units of 2pi/SCALE and weight: Automatic mesh                          
   0.00000000  0.00000000  0.00000000       0.056
   0.03827779  0.00000000  0.00000000       0.111
   0.00000000  0.03434104  0.00000000       0.111
   0.03827779  0.03434104  0.00000000       0.111
  -0.03827779  0.03434104  0.00000000       0.111
   0.00000000  0.00000000  0.03430153       0.056
   0.03827779  0.00000000  0.03430153       0.111
   0.00000000  0.03434104  0.03430153       0.111
   0.03827779  0.03434104  0.03430153       0.111
  -0.03827779  0.03434104  0.03430153       0.111
 
 k-points in reciprocal lattice and weights: Automatic mesh                          
   0.00000000  0.00000000  0.00000000       0.056
   0.33333333  0.00000000  0.00000000       0.111
   0.00000000  0.33333333  0.00000000       0.111
   0.33333333  0.33333333  0.00000000       0.111
  -0.33333333  0.33333333  0.00000000       0.111
   0.00000000  0.00000000  0.50000000       0.056
   0.33333333  0.00000000  0.50000000       0.111
   0.00000000  0.33333333  0.50000000       0.111
   0.33333333  0.33333333  0.50000000       0.111
  -0.33333333  0.33333333  0.50000000       0.111
 
 position of ions in fractional coordinates (direct lattice) 
   0.00136816  0.39720622  0.04536190
   0.16943492  0.14348122  0.95966498
   0.01737837  0.36945251  0.44978843
   0.15554426  0.14908711  0.55103539
   0.17656783  0.38899536  0.62513350
   0.02317658  0.10297187  0.37015843
   0.03560489  0.08949349  0.14155832
   0.15694602  0.38797110  0.85411313
   0.18188863  0.85511180  0.03285343
   0.00396337  0.65046861  0.96735575
   0.20910727  0.88078999  0.44481991
   0.00116207  0.65328673  0.54105377
   0.01167196  0.92211469  0.61734707
   0.16871408  0.61157688  0.37159752
   0.17194318  0.59374399  0.15665055
   0.99922026  0.88124616  0.85981662
   0.32212054  0.38592123  0.05653390
   0.47650371  0.13979116  0.95642976
   0.34666457  0.37033196  0.45534914
   0.46402645  0.15137425  0.54360986
   0.50771347  0.40878979  0.64112392
   0.36393512  0.08710027  0.36581847
   0.33639623  0.11590223  0.14540156
   0.47343167  0.38976407  0.86307453
   0.51281614  0.86011712  0.04517778
   0.29853570  0.62737698  0.94422822
   0.51084996  0.86210713  0.45179889
   0.32977793  0.64330196  0.54741252
   0.33934723  0.89598953  0.63600699
   0.52800347  0.59752575  0.36594226
   0.51007210  0.57435003  0.12781018
   0.36199378  0.90565154  0.85815308
   0.69146329  0.34974392  0.06020898
   0.83626141  0.15538006  0.94248981
   0.63442732  0.35677925  0.44776891
   0.83901071  0.14152683  0.53265553
   0.84959333  0.41201665  0.63100805
   0.66720895  0.08125567  0.37559213
   0.69086166  0.09473889  0.14350381
   0.83233344  0.39850821  0.85919784
   0.81101301  0.85129289  0.06423903
   0.69280464  0.63922869  0.94958460
   0.83767996  0.86389973  0.43248908
   0.63207831  0.65498938  0.54550094
   0.64089726  0.91394399  0.61531753
   0.79928451  0.61659802  0.36308312
   0.79534163  0.59048312  0.12666345
   0.64467638  0.89271876  0.86590903
   0.00256063  0.00545308  0.49742069
   0.00148356  0.99737036  0.00875376
   0.14739924  0.03060854  0.82883754
   0.98070982  0.47400580  0.15206056
   0.01670955  0.46913393  0.34887989
   0.18762378  0.02315898  0.63304305
   0.97407420  0.26106536  0.91787211
   0.14542396  0.22721635  0.08343209
   0.15734040  0.22796489  0.42750045
   0.03555985  0.31380537  0.57374776
   0.21886549  0.31132719  0.74910287
   0.01416129  0.19399282  0.26698759
   0.18131581  0.48764788  0.48132454
   0.17282822  0.54048146  0.99526899
   0.00543090  0.51819708  0.85386122
   0.12891729  0.99397850  0.15470563
   0.18721563  0.00475415  0.32730824
   0.99035611  0.51312924  0.66430541
   0.18662871  0.79122662  0.93500390
   0.00178454  0.70604803  0.07287751
   0.00619827  0.72386017  0.42258967
   0.18973321  0.75158007  0.56988033
   0.00852186  0.82579033  0.76085736
   0.15736375  0.68000160  0.24290651
   0.33237004  0.99756323  0.49763987
   0.33543447  0.98459616  0.99388911
   0.50337561  0.00289883  0.84040440
   0.33276500  0.44232084  0.16940423
   0.33562553  0.49578783  0.33559543
   0.50246015  0.03122854  0.67202729
   0.36287955  0.28511017  0.91599722
   0.50449776  0.23724554  0.08510295
   0.48530957  0.22960408  0.42853268
   0.33760993  0.28387173  0.58979522
   0.48049620  0.30686676  0.75869041
   0.34269660  0.16747481  0.24228864
   0.47973800  0.52168538  0.50700554
   0.49347037  0.53000987  0.00281041
   0.32514122  0.54167007  0.83764450
   0.48779690  0.98040722  0.15389596
   0.51178417  0.96825816  0.32932379
   0.34120590  0.55390462  0.64720541
   0.50177511  0.76536879  0.92951441
   0.33733961  0.72868766  0.06656201
   0.31661476  0.73584299  0.42329767
   0.47586882  0.80918749  0.59128908
   0.35107851  0.83143686  0.75254848
   0.47743758  0.67377473  0.24428902
   0.63411105  0.99460039  0.50361427
   0.64932259  0.00315814  0.99971556
   0.84042116  0.04278207  0.83067503
   0.68092463  0.46427295  0.14202026
   0.64099318  0.45452725  0.34776551
   0.81500671  0.03008315  0.63729812
   0.67865321  0.26534939  0.91167255
   0.81809333  0.22939028  0.08222427
   0.81106139  0.22659309  0.42204336
   0.65442563  0.27275233  0.57839525
   0.82346519  0.31853127  0.74432996
   0.66696316  0.19386062  0.24976729
   0.83025136  0.49804663  0.51017356
   0.82371391  0.47860468  0.98701636
   0.67595906  0.55071238  0.82573651
   0.82757881  0.97982862  0.16830717
   0.77968500  0.96303678  0.35006428
   0.63426188  0.59275246  0.64669023
   0.85411453  0.78462041  0.92983991
   0.70833841  0.71585587  0.07994361
   0.67684441  0.72857728  0.42940252
   0.85297423  0.77893990  0.57410114
   0.63461551  0.85051130  0.75612111
   0.81088225  0.70344057  0.26599042
 
 position of ions in cartesian coordinates  (Angst):
   0.01191431  3.85550601  0.66122273
   1.47548503  1.39270907 13.98866214
   0.15133554  3.58611296  6.55639053
   1.35452141  1.44712298  8.03222798
   1.53760034  3.77580680  9.11232723
   0.20182792  0.99950263  5.39565507
   0.31005700  0.86867393  2.06344042
   1.36672832  3.76586476 12.45007399
   1.58393530  8.30019399  0.47889164
   0.03451410  6.31381259 14.10076750
   1.82096257  8.54944089  6.48396635
   0.01011962  6.34116684  7.88672979
   0.10164258  8.95056157  8.99882747
   1.46920776  5.93630768  5.41663213
   1.49732764  5.76321166  2.28343397
   8.70147981  8.55386873 12.53321154
   2.80511263  3.74596757  0.82407261
   4.14952296  1.35689128 13.94150360
   3.01884867  3.59464939  6.63744683
   4.04086761  1.46932324  7.92398892
   4.42130598  3.96794262  9.34541334
   3.16924529  0.84544400  5.33239317
   2.92942920  1.12501195  2.11946183
   4.12277081  3.78326833 12.58070082
   4.46574141  8.34877843  0.65853888
   2.59972948  6.08967230 13.76364651
   4.44861938  8.36809458  6.58569622
   2.87179525  6.24424907  7.97941881
   2.95512730  8.69697613  9.27082585
   4.59799678  5.79991954  5.33419761
   4.44184557  5.57496303  1.86303915
   3.15233957  8.79076101 12.50896277
   6.02144902  3.39481034  0.87764282
   7.28239015  1.50820588 13.73830639
   5.52476440  3.46309920  6.52695277
   7.30633180  1.37373867  7.76431193
   7.39848811  3.99926433  9.19795825
   5.81023568  0.78871304  5.47486000
   6.01620987  0.91958872  2.09179907
   7.24818433  3.86814385 12.52419183
   7.06252026  8.26312551  0.93638729
   6.03312986  6.20471163 13.84172438
   7.29474327  8.38549456  6.30422465
   5.50430858  6.35769372  7.95155446
   5.58110638  8.87125218  8.96924366
   6.96038532  5.98504568  5.29252104
   6.92604966  5.73155983  1.84632371
   5.61401598  8.66522821 12.62201823
   0.02229866  0.05293065  7.25070740
   0.01291924  9.68103524  0.12760015
   1.28359238  0.29710363 12.08164157
   8.54028590  4.60096574  2.21652748
   0.14551127  4.55367664  5.08548609
   1.63387853  0.22479403  9.22762165
   8.48250113  2.53404658 13.37946378
   1.26639111  2.20548913  1.21615704
   1.37016269  2.21275488  6.23150733
   0.30966477  3.04597065  8.36329734
   1.90593978  3.02191605 10.91938039
   0.12332034  1.88300295  3.89177397
   1.57894703  4.73338341  7.01608010
   1.50503480  5.24621572 14.50764791
   0.04729374  5.02991105 12.44640200
   1.12264657  9.64811195  2.25508363
   1.63032425  0.04614644  4.77104456
   8.62428840  4.98071976  9.68332088
   1.62521320  7.68008866 13.62918720
   0.01554026  6.85329757  1.06230704
   0.05397621  7.02619217  6.15992481
   1.65224802  7.29525704  8.30692332
   0.07421066  8.01558339 11.09072100
   1.37036602  6.60047633  3.54075346
   2.89436805  9.68290735  7.25390231
   2.92105393  9.55704170 14.48753394
   4.38353072  0.02813767 12.25024718
   2.89780747  4.29341377  2.46933939
   2.92271773  4.81239432  4.89184370
   4.37555865  0.30312170  9.79587972
   3.16005310  2.76743897 13.35213424
   4.39330271  2.30283807  1.24051251
   4.22620677  2.22866578  6.24655375
   2.93999843  2.75541798  8.59721490
   4.18429064  2.97862062 11.05913422
   2.98429452  1.62560429  3.53174701
   4.17768803  5.06377044  7.39042202
   4.29727322  5.14457260  0.04096625
   2.83141753  5.25775303 12.21001720
   4.24786711  9.51638151  2.24328139
   4.45675473  9.39845593  4.80042445
   2.97131310  5.37650843  9.43406085
   4.36959314  7.42909808 13.54916904
   2.93764441  7.07305049  0.97024846
   2.75716682  7.14250413  6.17024505
   4.14399417  7.85442692  8.61899032
   3.05728646  8.07039177 10.96960570
   4.15765535  6.54003484  3.56090577
   5.52201023  9.65414836  7.34098880
   5.65447643  0.03065468 14.57246383
   7.31861437  0.41526673 12.10842595
   5.92967553  4.50649325  2.07017394
   5.58194168  4.41189602  5.06924221
   7.09729848  0.29200390  9.28964615
   5.90989539  2.57562977 13.28909521
   7.12417760  2.22659052  1.19855112
   7.06294157  2.19943942  6.15196146
   5.69891508  2.64748686  8.43104199
   7.17095721  3.09184288 10.84980754
   5.80809528  1.88171974  3.64076038
   7.23005301  4.83431950  7.43660102
   7.17312313  4.64560504 14.38735254
   5.88643400  5.34552276 12.03643907
   7.20677972  9.51076529  2.45334798
   6.78970749  9.34777429  5.10275048
   5.52332370  5.75358732  9.42655127
   7.43785994  7.61596509 13.55391373
   6.16840213  6.94849795  1.16530682
   5.89414387  7.07197908  6.25923307
   7.42792990  7.56082688  8.36844842
   5.52640321  8.25553896 11.02168253
   7.06138157  6.82798810  3.87723862
 


--------------------------------------------------------------------------------------------------------


 k-point  1 :   0.0000 0.0000 0.0000  plane waves:   31277
 k-point  2 :   0.3333 0.0000 0.0000  plane waves:   31312
 k-point  3 :   0.0000 0.3333 0.0000  plane waves:   31260
 k-point  4 :   0.3333 0.3333 0.0000  plane waves:   31279
 k-point  5 :  -0.3333 0.3333 0.0000  plane waves:   31279
 k-point  6 :   0.0000 0.0000 0.5000  plane waves:   31266
 k-point  7 :   0.3333 0.0000 0.5000  plane waves:   31290
 k-point  8 :   0.0000 0.3333 0.5000  plane waves:   31266
 k-point  9 :   0.3333 0.3333 0.5000  plane waves:   31268
 k-point 10 :  -0.3333 0.3333 0.5000  plane waves:   31268

 maximum and minimum number of plane-waves per node :     31312    31260

 maximum number of plane-waves:     31312
 maximum index in each direction: 
   IXMAX=   16   IYMAX=   17   IZMAX=   26
   IXMIN=  -16   IYMIN=  -18   IZMIN=  -27

 The following grids will avoid any aliasing or wrap around errors in the Hartre
 e energy
  - symmetry arguments have not been applied
  - exchange correlation energies might require even more grid points
  - we recommend to set PREC=Normal or Accurate and rely on VASP defaults
 WARNING: aliasing errors must be expected set NGX to    70 to avoid them
 NGY is ok and might be reduce to    72
 NGZ is ok and might be reduce to   108

 serial   3D FFT for wavefunctions
 parallel 3D FFT for charge:
    minimum data exchange during FFTs selected (reduces bandwidth)


 total amount of memory used by VASP MPI-rank0   564578. kBytes
=======================================================================

   base      :      30000. kBytes
   nonlr-proj:      62114. kBytes
   fftplans  :      10454. kBytes
   grid      :      60014. kBytes
   one-center:       3732. kBytes
   wavefun   :     398264. kBytes
 
     INWAV:  cpu time    0.0000: real time    0.0000
 Broyden mixing: mesh for mixing (old mesh)
   NGX = 31   NGY = 35   NGZ = 53
  (NGX  =128   NGY  =144   NGZ  =216)
  gives a total of  57505 points

 initial charge density was supplied:
 charge density of overlapping atoms calculated
 number of electron     912.0000000 magnetization     120.0000000
 keeping initial charge density in first step


--------------------------------------------------------------------------------------------------------


 Maximum index for non-local projection operator         5273
 Maximum index for augmentation-charges          915 (set IRDMAX)


--------------------------------------------------------------------------------------------------------


 First call to EWALD:  gamma=   0.165
 Maximum number of real-space cells 3x 3x 2
 Maximum number of reciprocal cells 2x 3x 4

    FEWALD:  cpu time    0.0058: real time    0.0058


--------------------------------------- Iteration      1(   1)  ---------------------------------------


    POTLOK:  cpu time    0.3277: real time    0.3301
    SETDIJ:  cpu time    0.0411: real time    0.0412
     EDDAV:  cpu time  150.2942: real time  150.6493
    --------------------------------------------
      LOOP:  cpu time  150.6654: real time  151.0231

 eigenvalue-minimisations  : 24320
 total energy-change (2. order) : 0.1176310E+05  (-0.3817966E+05)
 number of electron     912.0000000 magnetization     120.0000000
 augmentation part      912.0000000 magnetization     120.0000000

 Free energy of the ion-electron system (eV)
  ---------------------------------------------------
  alpha Z        PSCENC =      3046.18122208
  Ewald energy   TEWEN  =    -57412.87717396
  -Hartree energ DENC   =    -28780.77338243
  -exchange      EXHF   =         0.00000000
  -V(xc)+E(xc)   XCENC  =      3589.73177197
  PAW double counting   =     71080.72462945   -74396.17323249
  entropy T*S    EENTRO =        -0.01552720
  eigenvalues    EBANDS =     11930.47844379
  atomic energy  EATOM  =     82705.81968683
  Solvation  Ediel_sol  =         0.00000000
  ---------------------------------------------------
  free energy    TOTEN  =     11763.09643803 eV

  energy without entropy =    11763.11196523  energy(sigma->0) =    11763.10420163


--------------------------------------------------------------------------------------------------------




--------------------------------------- Iteration      1(   2)  ---------------------------------------


     EDDAV:  cpu time  147.7253: real time  148.0743
    --------------------------------------------
      LOOP:  cpu time  147.7253: real time  148.0742

 eigenvalue-minimisations  : 24320
 total energy-change (2. order) :-0.9847664E+04  (-0.8978010E+04)
 number of electron     912.0000000 magnetization     120.0000000
 augmentation part      912.0000000 magnetization     120.0000000

 Free energy of the ion-electron system (eV)
  ---------------------------------------------------
  alpha Z        PSCENC =      3046.18122208
  Ewald energy   TEWEN  =    -57412.87717396
  -Hartree energ DENC   =    -28780.77338243
  -exchange      EXHF   =         0.00000000
  -V(xc)+E(xc)   XCENC  =      3589.73177197
  PAW double counting   =     71080.72462945   -74396.17323249
  entropy T*S    EENTRO =        -0.04971917
  eigenvalues    EBANDS =      2082.84893360
  atomic energy  EATOM  =     82705.81968683
  Solvation  Ediel_sol  =         0.00000000
  ---------------------------------------------------
  free energy    TOTEN  =      1915.43273587 eV

  energy without entropy =     1915.48245505  energy(sigma->0) =     1915.45759546


--------------------------------------------------------------------------------------------------------




--------------------------------------- Iteration      1(   3)  ---------------------------------------


     EDDAV:  cpu time  150.8908: real time  151.2471
    --------------------------------------------
      LOOP:  cpu time  150.8909: real time  151.2472

 eigenvalue-minimisations  : 24800
 total energy-change (2. order) :-0.2510233E+04  (-0.2189813E+04)
 number of electron     912.0000000 magnetization     120.0000000
 augmentation part      912.0000000 magnetization     120.0000000

 Free energy of the ion-electron system (eV)
  ---------------------------------------------------
  alpha Z        PSCENC =      3046.18122208
  Ewald energy   TEWEN  =    -57412.87717396
  -Hartree energ DENC   =    -28780.77338243
  -exchange      EXHF   =         0.00000000
  -V(xc)+E(xc)   XCENC  =      3589.73177197
  PAW double counting   =     71080.72462945   -74396.17323249
  entropy T*S    EENTRO =        -0.18666956
  eigenvalues    EBANDS =      -427.24695083
  atomic energy  EATOM  =     82705.81968683
  Solvation  Ediel_sol  =         0.00000000
  ---------------------------------------------------
  free energy    TOTEN  =      -594.80009895 eV

  energy without entropy =     -594.61342938  energy(sigma->0) =     -594.70676416


--------------------------------------------------------------------------------------------------------




--------------------------------------- Iteration      1(   4)  ---------------------------------------


     EDDAV:  cpu time  162.1256: real time  162.5084
    --------------------------------------------
      LOOP:  cpu time  162.1257: real time  162.5085

 eigenvalue-minimisations  : 27232
 total energy-change (2. order) :-0.3439651E+03  (-0.3273627E+03)
 number of electron     912.0000000 magnetization     120.0000000
 augmentation part      912.0000000 magnetization     120.0000000

 Free energy of the ion-electron system (eV)
  ---------------------------------------------------
  alpha Z        PSCENC =      3046.18122208
  Ewald energy   TEWEN  =    -57412.87717396
  -Hartree energ DENC   =    -28780.77338243
  -exchange      EXHF   =         0.00000000
  -V(xc)+E(xc)   XCENC  =      3589.73177197
  PAW double counting   =     71080.72462945   -74396.17323249
  entropy T*S    EENTRO =        -0.21706045
  eigenvalues    EBANDS =      -771.18165744
  atomic energy  EATOM  =     82705.81968683
  Solvation  Ediel_sol  =         0.00000000
  ---------------------------------------------------
  free energy    TOTEN  =      -938.76519644 eV

  energy without entropy =     -938.54813600  energy(sigma->0) =     -938.65666622


--------------------------------------------------------------------------------------------------------




--------------------------------------- Iteration      1(   5)  ---------------------------------------


     EDDAV:  cpu time  160.4413: real time  160.8203
    CHARGE:  cpu time    6.0893: real time    6.1037
    MIXING:  cpu time    0.0067: real time    0.0067
    --------------------------------------------
      LOOP:  cpu time  166.5347: real time  166.9281

 eigenvalue-minimisations  : 26880
 total energy-change (2. order) :-0.1189301E+02  (-0.1175432E+02)
 number of electron     911.9999973 magnetization     122.9760937
 augmentation part      302.8521329 magnetization      89.2638569

 Broyden mixing:
  rms(total) = 0.18499E+02    rms(broyden)= 0.18497E+02
  rms(prec ) = 0.20078E+02
  weight for this iteration     100.00

 Free energy of the ion-electron system (eV)
  ---------------------------------------------------
  alpha Z        PSCENC =      3046.18122208
  Ewald energy   TEWEN  =    -57412.87717396
  -Hartree energ DENC   =    -28780.77338243
  -exchange      EXHF   =         0.00000000
  -V(xc)+E(xc)   XCENC  =      3589.73177197
  PAW double counting   =     71080.72462945   -74396.17323249
  entropy T*S    EENTRO =        -0.21768991
  eigenvalues    EBANDS =      -783.07404034
  atomic energy  EATOM  =     82705.81968683
  Solvation  Ediel_sol  =         0.00000000
  ---------------------------------------------------
  free energy    TOTEN  =      -950.65820880 eV

  energy without entropy =     -950.44051889  energy(sigma->0) =     -950.54936385


--------------------------------------------------------------------------------------------------------




--------------------------------------- Iteration      1(   6)  ---------------------------------------


    POTLOK:  cpu time    0.3025: real time    0.3032
    SETDIJ:  cpu time    0.0439: real time    0.0440
     EDDAV:  cpu time  204.7884: real time  205.2721
    CHARGE:  cpu time    6.0313: real time    6.0455
    MIXING:  cpu time    0.0066: real time    0.0066
    --------------------------------------------
      LOOP:  cpu time  211.1727: real time  211.6714

 eigenvalue-minimisations  : 36848
 total energy-change (2. order) :-0.1468329E+03  (-0.1912581E+03)
 number of electron     911.9999974 magnetization     114.9955533
 augmentation part      393.3180359 magnetization     110.9304962

 Broyden mixing:
  rms(total) = 0.30435E+02    rms(broyden)= 0.30433E+02
  rms(prec ) = 0.32660E+02
  weight for this iteration     100.00

 eigenvalues of (default mixing * dielectric matrix)
  average eigenvalue GAMMA=   0.2455
  0.2455

 Free energy of the ion-electron system (eV)
  ---------------------------------------------------
  alpha Z        PSCENC =      3046.18122208
  Ewald energy   TEWEN  =    -57412.87717396
  -Hartree energ DENC   =    -27494.43437282
  -exchange      EXHF   =         0.00000000
  -V(xc)+E(xc)   XCENC  =      3611.07035168
  PAW double counting   =     77958.89829601   -80843.49222298
  entropy T*S    EENTRO =        -0.07755053
  eigenvalues    EBANDS =     -2668.57935597
  atomic energy  EATOM  =     82705.81968683
  Solvation  Ediel_sol  =         0.00000000
  ---------------------------------------------------
  free energy    TOTEN  =     -1097.49111966 eV

  energy without entropy =    -1097.41356913  energy(sigma->0) =    -1097.45234439


--------------------------------------------------------------------------------------------------------




--------------------------------------- Iteration      1(   7)  ---------------------------------------


    POTLOK:  cpu time    0.2975: real time    0.2982
    SETDIJ:  cpu time    0.0438: real time    0.0439
     EDDAV:  cpu time  183.8201: real time  184.2542
    CHARGE:  cpu time    5.9888: real time    6.0030
    MIXING:  cpu time    0.0069: real time    0.0069
    --------------------------------------------
      LOOP:  cpu time  190.1571: real time  190.6061

 eigenvalue-minimisations  : 32208
 total energy-change (2. order) : 0.3553772E+03  (-0.5475878E+02)
 number of electron     911.9999975 magnetization     106.4754310
 augmentation part      352.0195107 magnetization      89.8458182

 Broyden mixing:
  rms(total) = 0.13188E+02    rms(broyden)= 0.13185E+02
  rms(prec ) = 0.14551E+02
  weight for this iteration     100.00

 eigenvalues of (default mixing * dielectric matrix)
  average eigenvalue GAMMA=   0.4913
  0.4913  0.4913

 Free energy of the ion-electron system (eV)
  ---------------------------------------------------
  alpha Z        PSCENC =      3046.18122208
  Ewald energy   TEWEN  =    -57412.87717396
  -Hartree energ DENC   =    -28120.91015459
  -exchange      EXHF   =         0.00000000
  -V(xc)+E(xc)   XCENC  =      3583.35443684
  PAW double counting   =     81033.38986602   -84233.52971558
  entropy T*S    EENTRO =        -0.11049018
  eigenvalues    EBANDS =     -1343.43162054
  atomic energy  EATOM  =     82705.81968683
  Solvation  Ediel_sol  =         0.00000000
  ---------------------------------------------------
  free energy    TOTEN  =      -742.11394307 eV

  energy without entropy =     -742.00345289  energy(sigma->0) =     -742.05869798


--------------------------------------------------------------------------------------------------------




--------------------------------------- Iteration      1(   8)  ---------------------------------------


    POTLOK:  cpu time    0.3009: real time    0.3016
    SETDIJ:  cpu time    0.0437: real time    0.0438
     EDDAV:  cpu time  186.6083: real time  187.0552
    CHARGE:  cpu time    5.9166: real time    5.9306
    MIXING:  cpu time    0.0068: real time    0.0068
    --------------------------------------------
      LOOP:  cpu time  192.8764: real time  193.3381

 eigenvalue-minimisations  : 32800
 total energy-change (2. order) :-0.2114393E+03  (-0.2955110E+02)
 number of electron     911.9999972 magnetization      98.3787964
 augmentation part      344.0163726 magnetization      88.7178420

 Broyden mixing:
  rms(total) = 0.22066E+02    rms(broyden)= 0.22064E+02
  rms(prec ) = 0.26971E+02
  weight for this iteration     100.00

 eigenvalues of (default mixing * dielectric matrix)
  average eigenvalue GAMMA=   0.4513
  0.5990  0.5990  0.1559

 Free energy of the ion-electron system (eV)
  ---------------------------------------------------
  alpha Z        PSCENC =      3046.18122208
  Ewald energy   TEWEN  =    -57412.87717396
  -Hartree energ DENC   =    -27890.54222041
  -exchange      EXHF   =         0.00000000
  -V(xc)+E(xc)   XCENC  =      3567.05179076
  PAW double counting   =     83584.74084490   -86907.87102033
  entropy T*S    EENTRO =        -0.05783761
  eigenvalues    EBANDS =     -1645.99851017
  atomic energy  EATOM  =     82705.81968683
  Solvation  Ediel_sol  =         0.00000000
  ---------------------------------------------------
  free energy    TOTEN  =      -953.55321791 eV

  energy without entropy =     -953.49538030  energy(sigma->0) =     -953.52429911


--------------------------------------------------------------------------------------------------------




--------------------------------------- Iteration      1(   9)  ---------------------------------------


    POTLOK:  cpu time    0.2923: real time    0.2930
    SETDIJ:  cpu time    0.0443: real time    0.0444
     EDDAV:  cpu time  175.3257: real time  175.7413
    CHARGE:  cpu time    6.0982: real time    6.1126
    MIXING:  cpu time    0.0074: real time    0.0074
    --------------------------------------------
      LOOP:  cpu time  181.7679: real time  182.1986

 eigenvalue-minimisations  : 31744
 total energy-change (2. order) : 0.5958987E+02  (-0.6818750E+02)
 number of electron     911.9999967 magnetization      92.6283790
 augmentation part      340.3329946 magnetization      77.7920889

 Broyden mixing:
  rms(total) = 0.18984E+02    rms(broyden)= 0.18983E+02
  rms(prec ) = 0.23668E+02
  weight for this iteration     100.00

 eigenvalues of (default mixing * dielectric matrix)
  average eigenvalue GAMMA=   0.4098
  0.6598  0.6598  0.1597  0.1597

 Free energy of the ion-electron system (eV)
  ---------------------------------------------------
  alpha Z        PSCENC =      3046.18122208
  Ewald energy   TEWEN  =    -57412.87717396
  -Hartree energ DENC   =    -27882.28265808
  -exchange      EXHF   =         0.00000000
  -V(xc)+E(xc)   XCENC  =      3561.64742143
  PAW double counting   =     85785.56908326   -89177.86990727
  entropy T*S    EENTRO =        -0.09352687
  eigenvalues    EBANDS =     -1520.05749139
  atomic energy  EATOM  =     82705.81968683
  Solvation  Ediel_sol  =         0.00000000
  ---------------------------------------------------
  free energy    TOTEN  =      -893.96334398 eV

  energy without entropy =     -893.86981711  energy(sigma->0) =     -893.91658054


--------------------------------------------------------------------------------------------------------




--------------------------------------- Iteration      1(  10)  ---------------------------------------


    POTLOK:  cpu time    0.3126: real time    0.3134
    SETDIJ:  cpu time    0.0467: real time    0.0468
     EDDAV:  cpu time  158.4902: real time  158.8645
    CHARGE:  cpu time    4.2416: real time    4.2516
    MIXING:  cpu time    0.0061: real time    0.0061
    --------------------------------------------
      LOOP:  cpu time  163.0973: real time  163.4824

 eigenvalue-minimisations  : 30480
 total energy-change (2. order) : 0.7348238E+02  (-0.3301866E+02)
 number of electron     911.9999970 magnetization      87.8508615
 augmentation part      338.1391704 magnetization      68.9978853

 Broyden mixing:
  rms(total) = 0.15396E+02    rms(broyden)= 0.15395E+02
  rms(prec ) = 0.21364E+02
  weight for this iteration     100.00

 eigenvalues of (default mixing * dielectric matrix)
  average eigenvalue GAMMA=   0.4045
  0.8923  0.5949  0.2116  0.2116  0.1123

 Free energy of the ion-electron system (eV)
  ---------------------------------------------------
  alpha Z        PSCENC =      3046.18122208
  Ewald energy   TEWEN  =    -57412.87717396
  -Hartree energ DENC   =    -27874.69899871
  -exchange      EXHF   =         0.00000000
  -V(xc)+E(xc)   XCENC  =      3561.20362001
  PAW double counting   =     87338.11399593   -90768.19119720
  entropy T*S    EENTRO =        -0.13312232
  eigenvalues    EBANDS =     -1415.89899628
  atomic energy  EATOM  =     82705.81968683
  Solvation  Ediel_sol  =         0.00000000
  ---------------------------------------------------
  free energy    TOTEN  =      -820.48096363 eV

  energy without entropy =     -820.34784131  energy(sigma->0) =     -820.41440247


--------------------------------------------------------------------------------------------------------




--------------------------------------- Iteration      1(  11)  ---------------------------------------


    POTLOK:  cpu time    0.2290: real time    0.2295
    SETDIJ:  cpu time    0.0355: real time    0.0356
     EDDAV:  cpu time  150.9943: real time  151.3574
    CHARGE:  cpu time    5.8105: real time    5.8482
    MIXING:  cpu time    0.0081: real time    0.0081
    --------------------------------------------
      LOOP:  cpu time  157.0774: real time  157.4788

 eigenvalue-minimisations  : 29616
 total energy-change (2. order) : 0.3080786E+02  (-0.2240119E+02)
 number of electron     911.9999980 magnetization      82.3331405
 augmentation part      338.1155119 magnetization      65.4836955

 Broyden mixing:
  rms(total) = 0.15089E+02    rms(broyden)= 0.15087E+02
  rms(prec ) = 0.20266E+02
  weight for this iteration     100.00

 eigenvalues of (default mixing * dielectric matrix)
  average eigenvalue GAMMA=   0.4088
  1.1568  0.5563  0.2602  0.2602  0.1312  0.0881

 Free energy of the ion-electron system (eV)
  ---------------------------------------------------
  alpha Z        PSCENC =      3046.18122208
  Ewald energy   TEWEN  =    -57412.87717396
  -Hartree energ DENC   =    -27862.61347999
  -exchange      EXHF   =         0.00000000
  -V(xc)+E(xc)   XCENC  =      3561.43937179
  PAW double counting   =     88506.26778400   -91956.71883253
  entropy T*S    EENTRO =        -0.13187132
  eigenvalues    EBANDS =     -1377.03980657
  atomic energy  EATOM  =     82705.81968683
  Solvation  Ediel_sol  =         0.00000000
  ---------------------------------------------------
  free energy    TOTEN  =      -789.67309967 eV

  energy without entropy =     -789.54122835  energy(sigma->0) =     -789.60716401


--------------------------------------------------------------------------------------------------------




--------------------------------------- Iteration      1(  12)  ---------------------------------------


    POTLOK:  cpu time    0.2830: real time    0.2837
    SETDIJ:  cpu time    0.0428: real time    0.0429
     EDDAV:  cpu time  182.5165: real time  182.9473
    CHARGE:  cpu time    5.9268: real time    5.9408
    MIXING:  cpu time    0.0085: real time    0.0085
    --------------------------------------------
      LOOP:  cpu time  188.7777: real time  189.2232

 eigenvalue-minimisations  : 32720
 total energy-change (2. order) : 0.4174849E+02  (-0.2549977E+02)
 number of electron     911.9999976 magnetization      77.3385463
 augmentation part      338.0325179 magnetization      61.8473282

 Broyden mixing:
  rms(total) = 0.11585E+02    rms(broyden)= 0.11583E+02
  rms(prec ) = 0.14172E+02
  weight for this iteration     100.00

 eigenvalues of (default mixing * dielectric matrix)
  average eigenvalue GAMMA=   0.4125
  1.2988  0.5759  0.3311  0.3311  0.1339  0.1339  0.0827

 Free energy of the ion-electron system (eV)
  ---------------------------------------------------
  alpha Z        PSCENC =      3046.18122208
  Ewald energy   TEWEN  =    -57412.87717396
  -Hartree energ DENC   =    -27854.36291555
  -exchange      EXHF   =         0.00000000
  -V(xc)+E(xc)   XCENC  =      3561.67946631
  PAW double counting   =     89707.45268845   -93175.26565009
  entropy T*S    EENTRO =        -0.12260518
  eigenvalues    EBANDS =     -1326.42933278
  atomic energy  EATOM  =     82705.81968683
  Solvation  Ediel_sol  =         0.00000000
  ---------------------------------------------------
  free energy    TOTEN  =      -747.92461390 eV

  energy without entropy =     -747.80200872  energy(sigma->0) =     -747.86331131


--------------------------------------------------------------------------------------------------------




--------------------------------------- Iteration      1(  13)  ---------------------------------------


    POTLOK:  cpu time    0.2892: real time    0.2899
    SETDIJ:  cpu time    0.0432: real time    0.0433
     EDDAV:  cpu time  177.1226: real time  177.5407
    CHARGE:  cpu time    5.9442: real time    5.9583
    MIXING:  cpu time    0.0089: real time    0.0089
    --------------------------------------------
      LOOP:  cpu time  183.4081: real time  183.8411

 eigenvalue-minimisations  : 31568
 total energy-change (2. order) : 0.2864159E+02  (-0.1410392E+02)
 number of electron     911.9999978 magnetization      74.6097324
 augmentation part      337.9655271 magnetization      57.6792901

 Broyden mixing:
  rms(total) = 0.12073E+02    rms(broyden)= 0.12072E+02
  rms(prec ) = 0.14849E+02
  weight for this iteration     100.00

 eigenvalues of (default mixing * dielectric matrix)
  average eigenvalue GAMMA=   0.3960
  1.3638  0.5688  0.3711  0.3711  0.1441  0.1441  0.1248  0.0798

 Free energy of the ion-electron system (eV)
  ---------------------------------------------------
  alpha Z        PSCENC =      3046.18122208
  Ewald energy   TEWEN  =    -57412.87717396
  -Hartree energ DENC   =    -27865.06931347
  -exchange      EXHF   =         0.00000000
  -V(xc)+E(xc)   XCENC  =      3561.15956331
  PAW double counting   =     90462.65651668   -93934.98105379
  entropy T*S    EENTRO =        -0.11900132
  eigenvalues    EBANDS =     -1282.05346989
  atomic energy  EATOM  =     82705.81968683
  Solvation  Ediel_sol  =         0.00000000
  ---------------------------------------------------
  free energy    TOTEN  =      -719.28302354 eV

  energy without entropy =     -719.16402222  energy(sigma->0) =     -719.22352288


--------------------------------------------------------------------------------------------------------




--------------------------------------- Iteration      1(  14)  ---------------------------------------


    POTLOK:  cpu time    0.2861: real time    0.2868
    SETDIJ:  cpu time    0.0426: real time    0.0427
     EDDAV:  cpu time  173.5361: real time  173.9458
    CHARGE:  cpu time    5.7957: real time    5.8094
    MIXING:  cpu time    0.0098: real time    0.0098
    --------------------------------------------
      LOOP:  cpu time  179.6703: real time  180.0944

 eigenvalue-minimisations  : 30896
 total energy-change (2. order) : 0.2849429E+02  (-0.9386124E+01)
 number of electron     911.9999969 magnetization      72.8622619
 augmentation part      341.8773722 magnetization      55.0304841

 Broyden mixing:
  rms(total) = 0.73886E+01    rms(broyden)= 0.73874E+01
  rms(prec ) = 0.90214E+01
  weight for this iteration     100.00

 eigenvalues of (default mixing * dielectric matrix)
  average eigenvalue GAMMA=   0.3798
  1.2891  0.6096  0.4309  0.4309  0.1588  0.1588  0.1500  0.1083  0.0814

 Free energy of the ion-electron system (eV)
  ---------------------------------------------------
  alpha Z        PSCENC =      3046.18122208
  Ewald energy   TEWEN  =    -57412.87717396
  -Hartree energ DENC   =    -27880.27613079
  -exchange      EXHF   =         0.00000000
  -V(xc)+E(xc)   XCENC  =      3560.56604322
  PAW double counting   =     90792.31772042   -94264.68559371
  entropy T*S    EENTRO =        -0.12507519
  eigenvalues    EBANDS =     -1237.70943714
  atomic energy  EATOM  =     82705.81968683
  Solvation  Ediel_sol  =         0.00000000
  ---------------------------------------------------
  free energy    TOTEN  =      -690.78873825 eV

  energy without entropy =     -690.66366305  energy(sigma->0) =     -690.72620065


--------------------------------------------------------------------------------------------------------




--------------------------------------- Iteration      1(  15)  ---------------------------------------


    POTLOK:  cpu time    0.2899: real time    0.2905
    SETDIJ:  cpu time    0.0425: real time    0.0426
     EDDAV:  cpu time  166.8170: real time  167.2107
    CHARGE:  cpu time    6.2653: real time    6.2801
    MIXING:  cpu time    0.0098: real time    0.0098
    --------------------------------------------
      LOOP:  cpu time  173.4244: real time  173.8338

 eigenvalue-minimisations  : 29680
 total energy-change (2. order) : 0.1410741E+02  (-0.4086320E+01)
 number of electron     911.9999970 magnetization      70.4654295
 augmentation part      339.8812745 magnetization      50.9792679

 Broyden mixing:
  rms(total) = 0.68413E+01    rms(broyden)= 0.68400E+01
  rms(prec ) = 0.84161E+01
  weight for this iteration     100.00

 eigenvalues of (default mixing * dielectric matrix)
  average eigenvalue GAMMA=   0.3672
  1.3018  0.5820  0.4871  0.4871  0.2002  0.1472  0.1472  0.1197  0.1197  0.0802

 Free energy of the ion-electron system (eV)
  ---------------------------------------------------
  alpha Z        PSCENC =      3046.18122208
  Ewald energy   TEWEN  =    -57412.87717396
  -Hartree energ DENC   =    -27921.78733809
  -exchange      EXHF   =         0.00000000
  -V(xc)+E(xc)   XCENC  =      3559.15957967
  PAW double counting   =     90823.20379521   -94296.26653297
  entropy T*S    EENTRO =        -0.12821863
  eigenvalues    EBANDS =     -1179.98635212
  atomic energy  EATOM  =     82705.81968683
  Solvation  Ediel_sol  =         0.00000000
  ---------------------------------------------------
  free energy    TOTEN  =      -676.68133197 eV

  energy without entropy =     -676.55311334  energy(sigma->0) =     -676.61722265


--------------------------------------------------------------------------------------------------------




--------------------------------------- Iteration      1(  16)  ---------------------------------------


    POTLOK:  cpu time    0.3050: real time    0.3057
    SETDIJ:  cpu time    0.0433: real time    0.0434
     EDDAV:  cpu time  174.5123: real time  174.9242
    CHARGE:  cpu time    6.1390: real time    6.1535
    MIXING:  cpu time    0.0166: real time    0.0657
    --------------------------------------------
      LOOP:  cpu time  181.0163: real time  181.4925

 eigenvalue-minimisations  : 31104
 total energy-change (2. order) :-0.6448782E+00  (-0.5621975E+01)
 number of electron     911.9999976 magnetization      67.5246018
 augmentation part      338.0849673 magnetization      48.9255241

 Broyden mixing:
  rms(total) = 0.48919E+01    rms(broyden)= 0.48910E+01
  rms(prec ) = 0.58634E+01
  weight for this iteration     100.00

 eigenvalues of (default mixing * dielectric matrix)
  average eigenvalue GAMMA=   0.3664
  1.3902  0.5717  0.5717  0.4112  0.3245  0.1737  0.1501  0.1501  0.0812  0.1030
  0.1030

 Free energy of the ion-electron system (eV)
  ---------------------------------------------------
  alpha Z        PSCENC =      3046.18122208
  Ewald energy   TEWEN  =    -57412.87717396
  -Hartree energ DENC   =    -27961.97983347
  -exchange      EXHF   =         0.00000000
  -V(xc)+E(xc)   XCENC  =      3558.12290703
  PAW double counting   =     91044.47976490   -94522.06084270
  entropy T*S    EENTRO =        -0.12643491
  eigenvalues    EBANDS =     -1134.88550592
  atomic energy  EATOM  =     82705.81968683
  Solvation  Ediel_sol  =         0.00000000
  ---------------------------------------------------
  free energy    TOTEN  =      -677.32621012 eV

  energy without entropy =     -677.19977521  energy(sigma->0) =     -677.26299267


--------------------------------------------------------------------------------------------------------




--------------------------------------- Iteration      1(  17)  ---------------------------------------


    POTLOK:  cpu time    0.2889: real time    0.2895
    SETDIJ:  cpu time    0.0426: real time    0.0427
     EDDAV:  cpu time  168.7657: real time  169.1641
    CHARGE:  cpu time    6.2159: real time    6.2306
    MIXING:  cpu time    0.0107: real time    0.0107
    --------------------------------------------
      LOOP:  cpu time  175.3238: real time  175.7376

 eigenvalue-minimisations  : 29552
 total energy-change (2. order) : 0.1250076E+01  (-0.2216380E+01)
 number of electron     911.9999974 magnetization      64.9803227
 augmentation part      337.6356785 magnetization      47.0059901

 Broyden mixing:
  rms(total) = 0.37457E+01    rms(broyden)= 0.37446E+01
  rms(prec ) = 0.46739E+01
  weight for this iteration     100.00

 eigenvalues of (default mixing * dielectric matrix)
  average eigenvalue GAMMA=   0.3781
  1.5148  0.6364  0.6364  0.4043  0.4043  0.2366  0.1502  0.1502  0.1103  0.1103
  0.0803  0.1037

 Free energy of the ion-electron system (eV)
  ---------------------------------------------------
  alpha Z        PSCENC =      3046.18122208
  Ewald energy   TEWEN  =    -57412.87717396
  -Hartree energ DENC   =    -27983.32286598
  -exchange      EXHF   =         0.00000000
  -V(xc)+E(xc)   XCENC  =      3557.31368135
  PAW double counting   =     91401.35723832   -94883.32053714
  entropy T*S    EENTRO =        -0.12588365
  eigenvalues    EBANDS =     -1107.10150226
  atomic energy  EATOM  =     82705.81968683
  Solvation  Ediel_sol  =         0.00000000
  ---------------------------------------------------
  free energy    TOTEN  =      -676.07613441 eV

  energy without entropy =     -675.95025076  energy(sigma->0) =     -676.01319258


--------------------------------------------------------------------------------------------------------




--------------------------------------- Iteration      1(  18)  ---------------------------------------


    POTLOK:  cpu time    0.3001: real time    0.3008
    SETDIJ:  cpu time    0.0442: real time    0.0443
     EDDAV:  cpu time  174.8530: real time  175.2657
    CHARGE:  cpu time    6.0585: real time    6.0728
    MIXING:  cpu time    0.0114: real time    0.0114
    --------------------------------------------
      LOOP:  cpu time  181.2672: real time  181.6950

 eigenvalue-minimisations  : 30256
 total energy-change (2. order) : 0.1312536E+00  (-0.1438517E+01)
 number of electron     911.9999975 magnetization      62.1328710
 augmentation part      337.4877946 magnetization      45.2379912

 Broyden mixing:
  rms(total) = 0.32822E+01    rms(broyden)= 0.32814E+01
  rms(prec ) = 0.41674E+01
  weight for this iteration     100.00

 eigenvalues of (default mixing * dielectric matrix)
  average eigenvalue GAMMA=   0.3764
  1.5167  0.6799  0.6799  0.4377  0.4377  0.3096  0.1533  0.1533  0.1240  0.1158
  0.1158  0.0806  0.0883

 Free energy of the ion-electron system (eV)
  ---------------------------------------------------
  alpha Z        PSCENC =      3046.18122208
  Ewald energy   TEWEN  =    -57412.87717396
  -Hartree energ DENC   =    -27993.65901967
  -exchange      EXHF   =         0.00000000
  -V(xc)+E(xc)   XCENC  =      3556.77612596
  PAW double counting   =     91725.05756796   -95208.99212861
  entropy T*S    EENTRO =        -0.12651209
  eigenvalues    EBANDS =     -1094.12464933
  atomic energy  EATOM  =     82705.81968683
  Solvation  Ediel_sol  =         0.00000000
  ---------------------------------------------------
  free energy    TOTEN  =      -675.94488083 eV

  energy without entropy =     -675.81836874  energy(sigma->0) =     -675.88162479


--------------------------------------------------------------------------------------------------------




--------------------------------------- Iteration      1(  19)  ---------------------------------------


    POTLOK:  cpu time    0.2980: real time    0.2988
    SETDIJ:  cpu time    0.0444: real time    0.0445
     EDDAV:  cpu time  173.8275: real time  174.2378
    CHARGE:  cpu time    6.2356: real time    6.2504
    MIXING:  cpu time    0.0112: real time    0.0112
    --------------------------------------------
      LOOP:  cpu time  180.4167: real time  180.8426

 eigenvalue-minimisations  : 30304
 total energy-change (2. order) :-0.5199440E+00  (-0.1109374E+01)
 number of electron     911.9999972 magnetization      59.8815683
 augmentation part      337.6965141 magnetization      42.8186838

 Broyden mixing:
  rms(total) = 0.30288E+01    rms(broyden)= 0.30280E+01
  rms(prec ) = 0.37054E+01
  weight for this iteration     100.00

 eigenvalues of (default mixing * dielectric matrix)
  average eigenvalue GAMMA=   0.3740
  1.5559  0.6870  0.6870  0.4900  0.4900  0.3359  0.1829  0.1516  0.1516  0.1140
  0.1140  0.1112  0.0795  0.0851

 Free energy of the ion-electron system (eV)
  ---------------------------------------------------
  alpha Z        PSCENC =      3046.18122208
  Ewald energy   TEWEN  =    -57412.87717396
  -Hartree energ DENC   =    -27995.77024780
  -exchange      EXHF   =         0.00000000
  -V(xc)+E(xc)   XCENC  =      3556.22028087
  PAW double counting   =     91988.72542780   -95470.91818125
  entropy T*S    EENTRO =        -0.12431684
  eigenvalues    EBANDS =     -1093.72152256
  atomic energy  EATOM  =     82705.81968683
  Solvation  Ediel_sol  =         0.00000000
  ---------------------------------------------------
  free energy    TOTEN  =      -676.46482482 eV

  energy without entropy =     -676.34050799  energy(sigma->0) =     -676.40266641


--------------------------------------------------------------------------------------------------------




--------------------------------------- Iteration      1(  20)  ---------------------------------------


    POTLOK:  cpu time    0.2840: real time    0.2847
    SETDIJ:  cpu time    0.0462: real time    0.0463
     EDDAV:  cpu time  178.1160: real time  178.5364
    CHARGE:  cpu time    6.1084: real time    6.1228
    MIXING:  cpu time    0.0126: real time    0.0127
    --------------------------------------------
      LOOP:  cpu time  184.5672: real time  185.0028

 eigenvalue-minimisations  : 31392
 total energy-change (2. order) :-0.1047970E+01  (-0.9561521E+00)
 number of electron     911.9999978 magnetization      57.5705906
 augmentation part      337.5549934 magnetization      40.9161158

 Broyden mixing:
  rms(total) = 0.24619E+01    rms(broyden)= 0.24611E+01
  rms(prec ) = 0.30267E+01
  weight for this iteration     100.00

 eigenvalues of (default mixing * dielectric matrix)
  average eigenvalue GAMMA=   0.3806
  1.6035  0.7694  0.7694  0.4891  0.4891  0.3651  0.2943  0.1488  0.1488  0.1440
  0.1085  0.1085  0.1098  0.0800  0.0800

 Free energy of the ion-electron system (eV)
  ---------------------------------------------------
  alpha Z        PSCENC =      3046.18122208
  Ewald energy   TEWEN  =    -57412.87717396
  -Hartree energ DENC   =    -28009.87068257
  -exchange      EXHF   =         0.00000000
  -V(xc)+E(xc)   XCENC  =      3555.73107958
  PAW double counting   =     92161.02339324   -95643.32314030
  entropy T*S    EENTRO =        -0.12200821
  eigenvalues    EBANDS =     -1080.07517181
  atomic energy  EATOM  =     82705.81968683
  Solvation  Ediel_sol  =         0.00000000
  ---------------------------------------------------
  free energy    TOTEN  =      -677.51279511 eV

  energy without entropy =     -677.39078690  energy(sigma->0) =     -677.45179101


--------------------------------------------------------------------------------------------------------




--------------------------------------- Iteration      1(  21)  ---------------------------------------


    POTLOK:  cpu time    0.3080: real time    0.3087
    SETDIJ:  cpu time    0.0442: real time    0.0443
     EDDAV:  cpu time  182.7332: real time  183.1645
    CHARGE:  cpu time    6.1260: real time    6.1405
    MIXING:  cpu time    0.0127: real time    0.0128
    --------------------------------------------
      LOOP:  cpu time  189.2241: real time  189.6708

 eigenvalue-minimisations  : 32096
 total energy-change (2. order) :-0.6466143E+00  (-0.5763124E+00)
 number of electron     911.9999976 magnetization      54.6593951
 augmentation part      337.5329551 magnetization      38.4300407

 Broyden mixing:
  rms(total) = 0.18001E+01    rms(broyden)= 0.17995E+01
  rms(prec ) = 0.20999E+01
  weight for this iteration     100.00

 eigenvalues of (default mixing * dielectric matrix)
  average eigenvalue GAMMA=   0.3948
[...]
      7.30633      1.37374      7.76431        -1.729829     -0.903318      2.074858
      7.39849      3.99926      9.19796        -3.878945     -2.375814      0.853984
      5.81024      0.78871      5.47486        -4.202934      6.017589     -0.993143
      6.01621      0.91959      2.09180        -3.206977      2.127210      0.397561
      7.24818      3.86814     12.52419        -0.721471      1.639122     -1.131513
      7.06252      8.26313      0.93639         4.802674      6.066692     -0.320784
      6.03313      6.20471     13.84172        -1.977642     -1.005926     -1.301314
      7.29474      8.38549      6.30422         1.576798     -1.714306      3.529931
      5.50431      6.35769      7.95155         1.981694      0.919328     -2.021839
      5.58111      8.87125      8.96924         2.996822      0.913920      3.802246
      6.96039      5.98505      5.29252         2.109972     -3.197411      0.105235
      6.92605      5.73156      1.84632         9.136374     -0.361732      4.398984
      5.61402      8.66523     12.62202         3.804572      0.458439      1.389985
      0.02230      0.05293      7.25071        -0.652075      0.562575     -1.440515
      0.01292      9.68104      0.12760         0.160055     -0.164702     -0.475618
      1.28359      0.29710     12.08164         0.653342     -0.627260      2.464750
      8.54029      4.60097      2.21653         0.019784      1.224808      0.158053
      0.14551      4.55368      5.08549        -0.448568      1.132026     -0.418774
      1.63388      0.22479      9.22762        -1.622183     -0.425411      2.031019
      8.48250      2.53405     13.37946         4.682709      4.018944     -0.287255
      1.26639      2.20549      1.21616         1.195951      1.184992     -1.429597
      1.37016      2.21275      6.23151         0.950560      0.038868      0.694114
      0.30966      3.04597      8.36330        -4.476627     -4.050746     -2.136149
      1.90594      3.02192     10.91938        -1.083169      0.705835     -0.385823
      0.12332      1.88300      3.89177        -0.284151     -1.135768     -0.937720
      1.57895      4.73338      7.01608         0.071061      0.826092      1.032480
      1.50503      5.24622     14.50765        -4.896952     -5.075306      4.080359
      0.04729      5.02991     12.44640        -0.577431     -0.065009      0.364818
      1.12265      9.64811      2.25508        32.063924    -35.763301      7.098347
      1.63032      0.04615      4.77104        -0.331513     -1.425097      1.815583
      8.62429      4.98072      9.68332         3.348006      2.230464     -0.756705
      1.62521      7.68009     13.62919        -0.500517     -2.520376     -8.685794
      0.01554      6.85330      1.06231         0.011849      2.689314      4.482588
      0.05398      7.02619      6.15992         0.446836      0.012196     -0.024953
      1.65225      7.29526      8.30692        -3.623597      3.532089      1.145647
      0.07421      8.01558     11.09072         0.227014     -1.827615     -6.320166
      1.37037      6.60048      3.54075        -0.434076      3.743145      7.168006
      2.89437      9.68291      7.25390         1.836591      1.558692      0.324348
      2.92105      9.55704     14.48753        -0.067941      0.976367     -0.327625
      4.38353      0.02814     12.25025         1.802916      6.699810     -0.080097
      2.89781      4.29341      2.46934        -0.369570      2.109511     -0.775429
      2.92272      4.81239      4.89184         0.354065      0.067717      1.924615
      4.37556      0.30312      9.79588        -0.952991      0.386720     -2.311920
      3.16005      2.76744     13.35213        -5.015499     -2.953024      3.812057
      4.39330      2.30284      1.24051        -0.511611     -0.363078     -1.152837
      4.22621      2.22867      6.24655        -0.453189     -0.647351     -0.893841
      2.94000      2.75542      8.59721         0.520614      0.549138     -1.222797
      4.18429      2.97862     11.05913         0.384210      1.026862     -1.732910
      2.98429      1.62560      3.53175         0.416745      2.959148      9.002298
      4.17769      5.06377      7.39042         0.873139     -0.109194     -0.658935
      4.29727      5.14457      0.04097         0.354128     -1.080393     -0.644687
      2.83142      5.25775     12.21002        -0.439674     -1.512328      1.046429
      4.24787      9.51638      2.24328         0.976451     -0.317148     -1.062560
      4.45675      9.39846      4.80042         0.126883     -0.452943      1.950767
      2.97131      5.37651      9.43406        -0.365217     -2.750864      1.660663
      4.36959      7.42910     13.54917         0.948322     -0.090443      0.229354
      2.93764      7.07305      0.97025         0.483441      0.123473      0.616303
      2.75717      7.14250      6.17025         2.580074     -2.248172     -0.327278
      4.14399      7.85443      8.61899         4.165869     -3.929225     -3.284024
      3.05729      8.07039     10.96961        -0.466868     -0.686014     -0.558062
      4.15766      6.54003      3.56091         1.435665     -1.503296     -0.204523
      5.52201      9.65415      7.34099        -0.047158      1.206854     -0.675944
      5.65448      0.03065     14.57246        -0.081433      0.121041     -0.395395
      7.31861      0.41527     12.10843        -0.328678     -0.644825      2.366464
      5.92968      4.50649      2.07017        -3.798656     -1.399475      3.767099
      5.58194      4.41190      5.06924         1.485060     -0.162527     -0.641298
      7.09730      0.29200      9.28965         0.987859     -0.051048     -0.826725
      5.90990      2.57563     13.28910        -1.212800      1.157529      0.265916
      7.12418      2.22659      1.19855         3.370656     -3.947156      0.270869
      7.06294      2.19944      6.15196         0.840801     -0.318759      0.086325
      5.69892      2.64749      8.43104         0.567664      0.850936     -0.968819
      7.17096      3.09184     10.84981         0.387469      1.468609     -0.581941
      5.80810      1.88172      3.64076         0.233981     -1.554349      0.000896
      7.23005      4.83432      7.43660         0.783934     -0.058278     -0.486998
      7.17312      4.64561     14.38735        -0.085770     -0.257013     -0.585764
      5.88643      5.34552     12.03644         0.389745     -1.526502      2.621828
      7.20678      9.51077      2.45335         1.457084     -1.975259     -0.840667
      6.78971      9.34777      5.10275         4.880320     -2.481871     -4.095953
      5.52332      5.75359      9.42655        -0.011174     -3.203176      3.140954
      7.43786      7.61597     13.55391        -0.765122     -0.519871     -0.004742
      6.16840      6.94850      1.16531        -7.062036      0.761859     -3.060997
      5.89414      7.07198      6.25923        -1.727555      0.849600      0.761047
      7.42793      7.56083      8.36845        -0.064380      1.378317     -0.216332
      5.52640      8.25554     11.02168         0.877757     -1.692375     -2.872913
      7.06138      6.82799      3.87724         0.129257     -0.025177     -2.301661
 -----------------------------------------------------------------------------------
    total drift:                                0.003867     -0.003395      0.012897


--------------------------------------------------------------------------------------------------------



  FREE ENERGIE OF THE ION-ELECTRON SYSTEM (eV)
  ---------------------------------------------------
  free  energy   TOTEN  =      -689.6019599163 eV

  energy  without entropy=     -689.4789911815  energy(sigma->0) =     -689.54047555
 


--------------------------------------------------------------------------------------------------------


    POTLOK:  cpu time    0.3361: real time    0.3369


--------------------------------------------------------------------------------------------------------


     LOOP+:  cpu time15298.8958: real time15335.3330
    4ORBIT:  cpu time    0.0000: real time    0.0000

volume of typ            1:    24.8 %

volume of typ            2:     9.5 %
 
total charge     
 
# of ion       s       p       d       tot
------------------------------------------
    1        0.233   0.244   7.963   8.440
    2        0.190   0.184   7.913   8.287
    3        0.260   0.323   7.888   8.471
    4        0.249   0.295   7.960   8.503
    5        0.283   0.351   7.907   8.541
    6        0.259   0.291   7.900   8.450
    7        0.422   0.561   8.146   9.129
    8        0.246   0.252   7.874   8.372
    9        0.288   0.354   7.981   8.623
   10        0.279   0.351   7.983   8.613
   11        0.263   0.296   7.943   8.502
   12        0.233   0.252   7.895   8.380
   13        0.221   0.236   7.895   8.352
   14        0.249   0.309   7.842   8.400
   15        0.292   0.336   7.901   8.529
   16        0.304   0.367   7.867   8.538
   17        0.217   0.220   7.940   8.377
   18        0.213   0.232   7.903   8.349
   19        0.230   0.263   7.926   8.419
   20        0.232   0.272   7.937   8.440
   21        0.207   0.209   7.845   8.260
   22        0.256   0.298   7.903   8.457
   23        0.309   0.361   7.944   8.614
   24        0.296   0.342   7.914   8.552
   25        0.227   0.257   7.892   8.375
   26        0.316   0.407   7.935   8.657
   27        0.223   0.254   7.963   8.439
   28        0.317   0.411   7.956   8.684
   29        0.303   0.404   7.911   8.618
   30        0.254   0.283   7.899   8.437
   31        0.232   0.262   7.895   8.389
   32        0.311   0.379   7.928   8.618
   33        0.312   0.393   7.950   8.655
   34        0.282   0.326   7.915   8.523
   35        0.249   0.297   7.910   8.457
   36        0.233   0.255   7.909   8.396
   37        0.274   0.301   7.886   8.461
   38        0.296   0.361   7.946   8.603
   39        0.279   0.323   7.843   8.445
   40        0.249   0.297   7.821   8.367
   41        0.255   0.296   7.974   8.525
   42        0.212   0.232   7.939   8.383
   43        0.262   0.305   7.947   8.514
   44        0.278   0.352   7.968   8.598
   45        0.265   0.331   7.897   8.492
   46        0.269   0.312   7.890   8.471
   47        0.334   0.422   7.993   8.749
   48        0.291   0.353   7.910   8.554
   49        1.276   2.739   0.007   4.023
   50        1.289   2.682   0.003   3.974
   51        1.300   2.613   0.003   3.915
   52        1.284   2.707   0.008   3.999
   53        1.288   2.688   0.007   3.983
   54        1.269   2.785   0.011   4.065
   55        1.276   2.771   0.012   4.059
   56        1.278   2.728   0.007   4.013
   57        1.282   2.741   0.008   4.031
   58        1.278   2.808   0.015   4.101
   59        1.296   2.648   0.006   3.949
   60        1.296   2.653   0.006   3.955
   61        1.292   2.734   0.008   4.034
   62        1.281   2.809   0.016   4.106
   63        1.278   2.711   0.006   3.995
   64        1.326   2.876   0.041   4.243
   65        1.285   2.709   0.008   4.003
   66        1.292   2.697   0.009   3.998
   67        1.283   2.816   0.017   4.116
   68        1.287   2.754   0.011   4.052
   69        1.272   2.748   0.007   4.026
   70        1.273   2.787   0.011   4.071
   71        1.299   2.694   0.012   4.005
   72        1.293   2.736   0.014   4.044
   73        1.284   2.761   0.010   4.054
   74        1.286   2.721   0.006   4.013
   75        1.296   2.776   0.019   4.091
   76        1.296   2.668   0.008   3.972
   77        1.297   2.649   0.005   3.951
   78        1.303   2.640   0.006   3.948
   79        1.266   2.807   0.014   4.088
   80        1.285   2.690   0.004   3.979
   81        1.257   2.814   0.012   4.082
   82        1.268   2.778   0.010   4.055
   83        1.298   2.653   0.007   3.958
   84        1.300   2.736   0.016   4.052
   85        1.282   2.752   0.008   4.042
   86        1.286   2.702   0.005   3.994
   87        1.291   2.680   0.007   3.978
   88        1.286   2.682   0.005   3.973
   89        1.294   2.689   0.008   3.991
   90        1.288   2.705   0.008   4.000
   91        1.281   2.722   0.007   4.010
   92        1.283   2.716   0.006   4.005
   93        1.265   2.789   0.010   4.064
   94        1.278   2.825   0.016   4.119
   95        1.289   2.704   0.009   4.002
   96        1.293   2.629   0.003   3.926
   97        1.285   2.755   0.010   4.050
   98        1.280   2.712   0.005   3.997
   99        1.305   2.605   0.003   3.913
  100        1.281   2.830   0.022   4.132
  101        1.283   2.741   0.012   4.036
  102        1.284   2.690   0.006   3.980
  103        1.280   2.723   0.006   4.010
  104        1.279   2.765   0.011   4.055
  105        1.273   2.735   0.007   4.016
  106        1.273   2.706   0.004   3.983
  107        1.290   2.657   0.005   3.951
  108        1.298   2.630   0.004   3.932
  109        1.283   2.690   0.004   3.977
  110        1.288   2.734   0.007   4.029
  111        1.297   2.612   0.003   3.913
  112        1.288   2.717   0.009   4.014
  113        1.293   2.804   0.021   4.118
  114        1.299   2.695   0.011   4.004
  115        1.267   2.762   0.007   4.037
  116        1.270   2.862   0.022   4.155
  117        1.259   2.815   0.012   4.086
  118        1.280   2.709   0.005   3.995
  119        1.297   2.669   0.008   3.974
  120        1.297   2.669   0.008   3.973
--------------------------------------------------
tot         105.30  211.22  380.92  697.44
 
magnetization (x)
 
# of ion       s       p       d       tot
------------------------------------------
    1        0.001   0.001   0.045   0.048
    2        0.003   0.000   0.820   0.824
    3        0.000   0.001  -0.134  -0.132
    4        0.001   0.002  -0.103  -0.100
    5       -0.002   0.000   0.238   0.236
    6       -0.001   0.001   0.116   0.117
    7       -0.003   0.001   0.216   0.215
    8        0.004   0.019   1.023   1.046
    9       -0.001  -0.003  -0.294  -0.298
   10        0.003   0.005   0.170   0.178
   11        0.001   0.014   1.004   1.019
   12        0.002   0.009   0.423   0.434
   13       -0.002  -0.000   0.247   0.245
   14       -0.002   0.002  -0.037  -0.037
   15        0.006   0.015   0.899   0.920
   16        0.002   0.007   0.916   0.924
   17        0.002   0.002   0.171   0.175
   18        0.002   0.001   0.499   0.502
   19        0.001   0.001   0.389   0.392
   20       -0.001  -0.002  -0.785  -0.788
   21       -0.001   0.003   0.667   0.669
   22       -0.000   0.012   0.479   0.491
   23        0.002   0.011   0.590   0.603
   24        0.001   0.005   0.404   0.410
   25        0.000   0.002   0.066   0.068
   26       -0.001   0.002  -0.106  -0.105
   27       -0.001  -0.001  -0.467  -0.469
   28        0.004   0.004   0.142   0.150
   29       -0.000   0.003   0.375   0.378
   30       -0.002   0.008   0.355   0.362
   31        0.002   0.001   0.669   0.671
   32       -0.001   0.002   0.241   0.242
   33       -0.001  -0.007  -0.275  -0.282
   34       -0.002  -0.003  -0.137  -0.141
   35        0.003   0.004   0.484   0.492
   36        0.004   0.001   0.092   0.096
   37       -0.000  -0.003   0.146   0.142
   38        0.001   0.002   0.422   0.424
   39       -0.001   0.007   0.459   0.465
   40       -0.000   0.003   0.094   0.096
   41       -0.002  -0.001  -0.231  -0.234
   42        0.000   0.001   0.006   0.007
   43        0.009   0.008   0.742   0.759
   44        0.002   0.005   0.178   0.185
   45        0.000  -0.000  -0.058  -0.058
   46        0.006   0.022   1.281   1.309
   47        0.000   0.001   0.210   0.211
   48        0.000   0.006   0.588   0.594
   49        0.004  -0.005   0.000  -0.001
   50        0.001   0.058   0.000   0.059
   51        0.008   0.321   0.000   0.329
   52        0.004   0.098   0.000   0.102
   53        0.003   0.117  -0.000   0.120
   54        0.003   0.059  -0.000   0.062
   55        0.003   0.012  -0.000   0.015
   56        0.002   0.020   0.000   0.023
   57       -0.000  -0.029   0.000  -0.030
   58        0.001  -0.001   0.000  -0.000
   59        0.013   0.507   0.000   0.521
   60        0.006   0.294   0.000   0.301
   61        0.001  -0.026   0.000  -0.024
   62        0.003  -0.002   0.000   0.001
   63        0.004   0.073   0.000   0.077
   64        0.003   0.101   0.000   0.104
   65        0.007   0.152   0.000   0.159
   66       -0.000  -0.057   0.000  -0.057
   67       -0.000   0.013  -0.000   0.013
   68       -0.000   0.012  -0.000   0.012
   69        0.005   0.097   0.000   0.102
   70        0.006   0.053   0.000   0.060
   71        0.011   0.524   0.000   0.535
   72        0.008   0.407   0.000   0.415
   73        0.002   0.033   0.000   0.035
   74        0.001   0.023  -0.000   0.024
   75        0.003   0.039  -0.000   0.041
   76        0.006   0.208   0.000   0.214
   77        0.004   0.113   0.000   0.118
   78        0.004   0.125  -0.000   0.128
   79        0.008   0.049   0.000   0.057
   80        0.001   0.014   0.000   0.015
   81        0.002   0.015   0.000   0.017
   82       -0.000  -0.004  -0.000  -0.004
   83        0.011   0.430  -0.000   0.441
   84        0.009   0.367   0.000   0.376
   85        0.003   0.004   0.000   0.008
   86        0.001   0.013   0.000   0.014
   87        0.005   0.138   0.000   0.143
   88        0.005   0.086   0.000   0.090
   89        0.003   0.088   0.000   0.090
   90        0.004   0.116   0.000   0.119
   91        0.003   0.010   0.000   0.013
   92       -0.000  -0.008  -0.000  -0.008
   93        0.004   0.048   0.000   0.052
   94        0.002   0.010   0.000   0.012
   95        0.007   0.288   0.000   0.296
   96        0.009   0.414  -0.000   0.423
   97       -0.001  -0.025   0.000  -0.026
   98        0.002  -0.004   0.000  -0.002
   99        0.007   0.351   0.000   0.358
  100        0.001   0.019  -0.000   0.020
  101        0.006   0.195  -0.000   0.200
  102        0.002   0.039   0.000   0.041
  103        0.001   0.005   0.000   0.006
  104       -0.002  -0.049  -0.000  -0.051
  105        0.003   0.039   0.000   0.042
  106       -0.004  -0.027  -0.000  -0.031
  107        0.006   0.277  -0.000   0.283
  108        0.010   0.492   0.000   0.503
  109        0.003   0.037   0.000   0.040
  110        0.000  -0.004   0.000  -0.004
  111        0.002   0.089  -0.000   0.091
  112        0.003   0.100   0.000   0.103
  113        0.005   0.218  -0.000   0.223
  114        0.005   0.173  -0.000   0.178
  115        0.001   0.011   0.000   0.012
  116        0.001   0.002  -0.000   0.003
  117        0.008   0.057   0.000   0.065
  118        0.002   0.046   0.000   0.049
  119        0.012   0.526  -0.000   0.538
  120        0.014   0.655   0.000   0.669
--------------------------------------------------
tot           0.32    8.82   13.24   22.38
 

 total amount of memory used by VASP MPI-rank0   564578. kBytes
=======================================================================

   base      :      30000. kBytes
   nonlr-proj:      62114. kBytes
   fftplans  :      10454. kBytes
   grid      :      60014. kBytes
   one-center:       3732. kBytes
   wavefun   :     398264. kBytes
 
  
  
 General timing and accounting informations for this job:
 ========================================================
  
                  Total CPU time used (sec):    15463.188
                            User time (sec):    15446.529
                          System time (sec):       16.659
                         Elapsed time (sec):    15504.623
  
                   Maximum memory used (kb):      667504.
                   Average memory used (kb):           0.
  
                          Minor page faults:        45850
                          Major page faults:           32
                 Voluntary context switches:         1195
