 vasp.5.4.4.18Apr17-6-g9f103f2a35 (build May 12 2020 04:58:55) complex          
  
 MD_VERSION_INFO: Compiled 2020-05-12T11:58:55-UTC in devlin.sd.materialsdesign.
 com:/home/medea2/data/build/wwolf/vasp-gpu5.4.4/13047/x86_64/src/src/build/std 
 from svn 13047
 
 This VASP executable licensed from Materials Design, Inc.
 
 executed on                        Lin64 date 2023.03.25  06:32:21
 running on   16 total cores
 distrk:  each k-point on   16 cores,    1 groups
 distr:  one band on NCORES_PER_BAND=   1 cores,   16 groups


--------------------------------------------------------------------------------------------------------


 INCAR:
 POTCAR:    PAW_PBE Ni 02Aug2007                  
 POTCAR:    PAW_PBE O 08Apr2002                   

 ----------------------------------------------------------------------------- 
|                                                                             |
|           W    W    AA    RRRRR   N    N  II  N    N   GGGG   !!!           |
|           W    W   A  A   R    R  NN   N  II  NN   N  G    G  !!!           |
|           W    W  A    A  R    R  N N  N  II  N N  N  G       !!!           |
|           W WW W  AAAAAA  RRRRR   N  N N  II  N  N N  G  GGG   !            |
|           WW  WW  A    A  R   R   N   NN  II  N   NN  G    G                |
|           W    W  A    A  R    R  N    N  II  N    N   GGGG   !!!           |
|                                                                             |
|      For optimal performance we recommend to set                            |
|        NCORE= 4 - approx SQRT( number of cores)                             |
|      NCORE specifies how many cores store one orbital (NPAR=cpu/NCORE).     |
|      This setting can  greatly improve the performance of VASP for DFT.     |
|      The default,   NCORE=1            might be grossly inefficient         |
|      on modern multi-core architectures or massively parallel machines.     |
|      Do your own testing !!!!                                               |
|      Unfortunately you need to use the default for GW and RPA calculations. |
|      (for HF NCORE is supported but not extensively tested yet)             |
|                                                                             |
 ----------------------------------------------------------------------------- 

 POTCAR:    PAW_PBE Ni 02Aug2007                  
  local pseudopotential read in
  partial core-charges read in
  partial kinetic energy density read in
  atomic valenz-charges read in
  non local Contribution for L=           2  read in
    real space projection operators read in
  non local Contribution for L=           2  read in
    real space projection operators read in
  non local Contribution for L=           0  read in
    real space projection operators read in
  non local Contribution for L=           0  read in
    real space projection operators read in
  non local Contribution for L=           1  read in
    real space projection operators read in
  non local Contribution for L=           1  read in
    real space projection operators read in
    PAW grid and wavefunctions read in
 
   number of l-projection  operators is LMAX  =           6
   number of lm-projection operators is LMMAX =          18
 
 POTCAR:    PAW_PBE O 08Apr2002                   
  local pseudopotential read in
  partial core-charges read in
  partial kinetic energy density read in
  kinetic energy density of atom read in
  atomic valenz-charges read in
  non local Contribution for L=           0  read in
    real space projection operators read in
  non local Contribution for L=           0  read in
    real space projection operators read in
  non local Contribution for L=           1  read in
    real space projection operators read in
  non local Contribution for L=           1  read in
    real space projection operators read in
    PAW grid and wavefunctions read in
 
   number of l-projection  operators is LMAX  =           4
   number of lm-projection operators is LMMAX =           8
 
 Optimization of the real space projectors (new method)

 maximal supplied QI-value         = 16.25
 optimisation between [QCUT,QGAM] = [ 11.38, 22.75] = [ 36.24,144.96] Ry 
 Optimized for a Real-space Cutoff    1.47 Angstroem

   l    n(q)    QCUT    max X(q) W(low)/X(q) W(high)/X(q)  e(spline) 
   2      9    11.376    60.317    0.17E-03    0.16E-04    0.16E-06
   2      9    11.376    55.921    0.17E-03    0.16E-04    0.17E-06
   0     10    11.376    51.690    0.45E-04    0.60E-04    0.21E-06
   0     10    11.376    30.015    0.37E-04    0.55E-04    0.19E-06
   1     10    11.376    18.849    0.83E-04    0.11E-03    0.92E-07
   1     10    11.376    14.624    0.69E-04    0.92E-04    0.82E-07
 Optimization of the real space projectors (new method)

 maximal supplied QI-value         = 24.76
 optimisation between [QCUT,QGAM] = [ 11.39, 22.77] = [ 36.31,145.25] Ry 
 Optimized for a Real-space Cutoff    1.10 Angstroem

   l    n(q)    QCUT    max X(q) W(low)/X(q) W(high)/X(q)  e(spline) 
   0      7    11.387    20.381    0.22E-03    0.48E-03    0.18E-06
   0      7    11.387    15.268    0.22E-03    0.52E-03    0.19E-06
   1      7    11.387     5.964    0.22E-03    0.73E-03    0.24E-06
   1      7    11.387     5.382    0.19E-03    0.60E-03    0.21E-06

 ----------------------------------------------------------------------------- 
|                                                                             |
|  ADVICE TO THIS USER RUNNING 'VASP/VAMP'   (HEAR YOUR MASTER'S VOICE ...):  |
|                                                                             |
|      You enforced a specific xc-type in the INCAR file,                     |
|      a different type was found on the POTCAR file                          |
|          I HOPE YOU KNOW, WHAT YOU ARE  DOING                               |
|                                                                             |
 ----------------------------------------------------------------------------- 

  PAW_PBE Ni 02Aug2007                  :
 energy of atom  1       EATOM=-1077.6739
 kinetic energy error for atom=    0.0030 (will be added to EATOM!!)
  PAW_PBE O 08Apr2002                   :
 energy of atom  2       EATOM= -432.3788
 kinetic energy error for atom=    0.0224 (will be added to EATOM!!)
 
 
 POSCAR: Ni2O3_Cmcm_scale_1_000_disp_0_10_round_2
  positions in direct lattice
  No initial velocities read in
 exchange correlation table for  LEXCH =       14
   RHO(1)=    0.500       N(1)  =     2000
   RHO(2)=  100.500       N(2)  =     4000
 


--------------------------------------------------------------------------------------------------------


 ion  position               nearest neighbor table
   1  0.999  0.362  0.054- 110 1.94  52 1.95  55 1.97 104 1.99  56 2.10  62 2.24  47 2.66  33 2.74
                            17 2.80   7 2.82  10 2.97   2 2.99  34 3.04
   2  0.152  0.144  0.942-  51 1.77  55 1.90  50 2.05  56 2.14  79 2.17  74 2.25  34 2.76   8 2.82
                            17 2.98  16 2.98   1 2.99  32 3.03  18 3.06
   3  0.998  0.361  0.461- 105 2.01  58 2.06  53 2.08  57 2.09 109 2.16  61 2.24  36 2.66  19 2.75
                            37 2.77  35 2.83   6 2.92   4 3.02  46 3.04  12 3.05  14 3.07
   4  0.167  0.130  0.556-  54 1.85  57 2.04  73 2.07  58 2.11  82 2.13  49 2.16  36 2.76  13 2.80
                             5 2.88  11 2.97   3 3.02  20 3.02  19 3.02
   5  0.185  0.399  0.640-  58 1.77  90 1.84  59 1.88  82 1.95  61 2.16  66 2.20  21 2.63   4 2.88
                            37 3.01  19 3.01   8 3.09
   6  0.995  0.096  0.366-  60 1.72  65 1.81  57 1.92 105 1.93 113 2.00  49 2.20  36 2.82  22 2.92
                            38 2.92   3 2.92  11 2.93  43 3.05
   7  0.985  0.095  0.128-  60 1.88 112 1.91 104 2.01  50 2.01  56 2.14  64 2.19  39 2.78   1 2.82
                             9 2.87  34 2.95  41 2.97  23 3.00
   8  0.155  0.401  0.851-  59 1.59  63 1.79  87 1.99  55 2.17  79 2.24  62 2.30   2 2.82  40 2.83
                            10 3.01  17 3.02  24 3.02   5 3.09
   9  0.150  0.866  0.051-  64 1.90  50 1.96  67 1.96  68 2.00  92 2.18  74 2.28  41 2.78  15 2.79
                             7 2.87  10 2.91  23 2.98  26 3.02
  10  0.010  0.632  0.958-  68 1.97  62 1.97  67 2.02  63 2.03 115 2.08 110 2.09  26 2.75   9 2.91
                            41 2.92   1 2.97  47 2.99  15 2.99   8 3.01  16 3.02  40 3.06  42 3.07
  11  0.185  0.876  0.444-  65 2.04  49 2.05  73 2.06  70 2.09  93 2.22  69 2.39  27 2.65  22 2.84
                             6 2.93  14 2.93  43 2.96   4 2.97
  12  0.980  0.641  0.555-  66 1.70 118 1.80 109 1.90  70 2.13  69 2.14  61 2.26  37 2.64  43 2.70
                            44 2.77  13 2.93   3 3.05  46 3.07
  13  1.000  0.916  0.637-  54 1.82 102 1.85  71 1.87 118 2.11  49 2.14  70 2.23   4 2.80  45 2.87
                            43 2.90  12 2.93  36 2.98  29 3.09
  14  0.169  0.597  0.366-  53 1.89  93 1.89  72 1.93  77 1.93  69 2.07  61 2.28  30 2.72  19 2.86
                            46 2.92  11 2.93   3 3.07
  15  0.162  0.613  0.142-  72 1.57  68 1.86  52 1.96  76 1.99  92 2.15  62 2.42  47 2.78   9 2.79
                            31 2.91  10 2.99
  16  0.994  0.903  0.857-  99 1.81  71 1.83  51 1.93 115 2.02  67 2.10  50 2.36  48 2.93  32 2.95
                            34 2.96   2 2.98  10 3.02  41 3.05
  17  0.319  0.375  0.033-  62 1.86  79 1.90  76 2.00  86 2.08  56 2.10  80 2.28   1 2.80  26 2.85
                            24 2.88   2 2.98  23 3.01   8 3.02  31 3.04
  18  0.503  0.128  0.948-  75 1.91  74 1.99  98 2.01  79 2.09 103 2.17  80 2.19  48 2.72  24 2.83
                            34 2.89  32 2.91  25 3.01  39 3.01  23 3.03   2 3.06
  19  0.313  0.363  0.449-  77 1.80  61 2.03  82 2.07  81 2.12  57 2.12  85 2.28  22 2.73   3 2.75
                            14 2.86  30 2.87   5 3.01   4 3.02  28 3.08
  20  0.512  0.131  0.539-  81 1.86  97 1.91  73 1.98  78 2.03 106 2.13  82 2.20  27 2.76  45 2.89
                            38 2.95  36 2.96  22 2.99   4 3.02  35 3.05
  21  0.486  0.416  0.639-  90 1.74 114 1.83  82 2.02  83 2.06  85 2.22 106 2.24   5 2.63  28 2.71
                            44 2.95
  22  0.329  0.111  0.366-  81 1.85  84 1.93  65 1.94  57 2.00  73 2.21  89 2.25  19 2.73  11 2.84
                            38 2.89   6 2.92  20 2.99  27 3.06
  23  0.330  0.099  0.128-  84 1.78  64 1.81  56 1.92  88 1.94  80 2.02  74 2.24  39 2.93  25 2.97
                             9 2.98   7 3.00  17 3.01  18 3.03
  24  0.501  0.394  0.869-  83 1.60  87 1.86  79 1.89 103 1.95 111 2.06  86 2.31  18 2.83  40 2.87
                            17 2.88  42 2.97   8 3.02  33 3.05
  25  0.507  0.862  0.054-  88 1.96  92 1.97 116 1.98  91 2.07  74 2.21  98 2.24  31 2.73  39 2.83
                            41 2.83  48 2.93  23 2.97  42 2.98  18 3.01  26 3.05
  26  0.325  0.642  0.952-  62 1.96  92 1.97  87 1.97  86 1.98  67 2.05  91 2.15  10 2.75  32 2.82
                            17 2.85  42 2.90  31 2.98   9 3.02  25 3.05
  27  0.487  0.870  0.465-  94 1.73  97 1.90  73 1.94  89 1.97 117 2.23  93 2.26  11 2.65  20 2.76
                            28 2.78  29 2.89  45 2.89  44 3.01  22 3.06
  28  0.369  0.638  0.550-  94 1.83  90 1.87  85 1.93  93 2.02  61 2.16  70 2.21  44 2.56  21 2.71
                            27 2.78  29 2.87  30 2.94  19 3.08
  29  0.353  0.895  0.646-  78 1.84  95 1.84  54 2.12  94 2.18  70 2.25  73 2.37  45 2.78  28 2.87
                            27 2.89  13 3.09
  30  0.481  0.582  0.363-  77 1.84  93 1.86  96 1.89 101 1.96  85 2.14 117 2.35  14 2.72  19 2.87
                            35 2.91  28 2.94  46 3.08
  31  0.496  0.604  0.128-  96 1.80  92 1.95  86 2.00 100 2.00  76 2.01 116 2.24  25 2.73  15 2.91
                            26 2.98  42 3.04  17 3.04  33 3.08  47 3.08
  32  0.332  0.902  0.866-  95 1.79  75 1.88  91 1.95  74 2.04  51 2.08  67 2.10  26 2.82  48 2.85
                            18 2.91  16 2.95   2 3.03
  33  0.685  0.365  0.046- 104 1.91 100 1.93 110 1.96 103 2.02  80 2.18  86 2.37  47 2.73   1 2.74
                            39 2.93  34 2.96  40 2.97  24 3.05  42 3.06  31 3.08
  34  0.835  0.135  0.949-  99 1.76  98 1.95  55 1.99 104 2.01 103 2.10  50 2.12   2 2.76  40 2.86
                            48 2.87  18 2.89   7 2.95  33 2.96  16 2.96  41 3.03  39 3.03   1 3.04
  35  0.674  0.378  0.454- 101 1.75  85 2.00 109 2.08 106 2.19 105 2.20  81 2.37  44 2.77   3 2.83
                            46 2.85  37 2.87  30 2.91  36 2.97  20 3.05  38 3.05
  36  0.852  0.148  0.536- 105 1.90 106 2.13 102 2.14  49 2.15  58 2.32  97 2.39   3 2.66   4 2.76
                             6 2.82  37 2.92  20 2.96  35 2.97  13 2.98  43 3.05
  37  0.841  0.420  0.622- 109 1.79  66 1.80  58 2.06 106 2.07 114 2.08 107 2.24  12 2.64   3 2.77
                            44 2.82  35 2.87  36 2.92   5 3.01
  38  0.660  0.099  0.358- 108 1.80  89 1.93 113 1.98  81 2.13 105 2.17  97 2.29  22 2.89   6 2.92
                            20 2.95  35 3.05
  39  0.667  0.090  0.129-  88 1.79 108 1.95  80 2.05 112 2.05  98 2.10 104 2.11   7 2.78  25 2.83
                            33 2.93  23 2.93  41 2.99  18 3.01  34 3.03
  40  0.831  0.401  0.864- 107 1.54  63 1.89 103 1.94  55 2.09 111 2.10 110 2.30   8 2.83  34 2.86
                            24 2.87  33 2.97  42 3.02  10 3.06
  41  0.832  0.855  0.040- 116 1.80 115 1.94 112 2.02  98 2.13  68 2.17  50 2.19   9 2.78  25 2.83
                            48 2.86  10 2.92  42 2.92   7 2.97  39 2.99  34 3.03  16 3.05
  42  0.658  0.640  0.945- 111 1.62 116 1.98  86 2.07  91 2.08 115 2.11 110 2.38  48 2.80  26 2.90
                            41 2.92  24 2.97  25 2.98  40 3.02  31 3.04  33 3.06  10 3.07
  43  0.847  0.853  0.465- 118 1.75  49 1.94  69 1.97 117 2.05 113 2.08  97 2.23  12 2.70  46 2.87
                            45 2.88  13 2.90  44 2.92  11 2.96  36 3.05   6 3.05
  44  0.662  0.631  0.542-  94 1.93  85 1.94 114 1.96 109 1.96 117 2.06 118 2.19  28 2.56  35 2.77
                            12 2.77  37 2.82  43 2.92  21 2.95  45 2.96  46 3.00  27 3.01
  45  0.671  0.907  0.628-  78 1.74 102 1.79 119 1.80  97 2.08  94 2.11 118 2.11  29 2.78  13 2.87
                            43 2.88  20 2.89  27 2.89  44 2.96
  46  0.834  0.598  0.365-  69 1.87 120 1.89  53 1.93 117 2.05 101 2.07 109 2.33  35 2.85  43 2.87
                            14 2.92  44 3.00   3 3.04  12 3.07  30 3.08
  47  0.847  0.567  0.133-  52 1.84 100 1.84 120 1.90 110 1.95  68 2.11 116 2.37   1 2.66  33 2.73
                            15 2.78  10 2.99  31 3.08
  48  0.659  0.910  0.877-  91 1.91  98 1.98  99 2.03 119 2.08  75 2.08 115 2.17  18 2.72  42 2.80
                            32 2.85  41 2.86  34 2.87  25 2.93  16 2.93
  49  0.006  0.985  0.498-  43 1.94  11 2.05  13 2.14  36 2.15   4 2.16   6 2.20
  50  0.009  0.006  0.004-   9 1.96   7 2.01   2 2.05  34 2.12  41 2.19  16 2.36
  51  0.153  0.040  0.842-   2 1.77  16 1.93  32 2.08
  52  0.015  0.465  0.168-  47 1.84   1 1.95  15 1.96
  53  0.005  0.476  0.341-  14 1.89  46 1.93   3 2.08
  54  0.162  0.028  0.663-  13 1.82   4 1.85  29 2.12
  55  0.995  0.279  0.931-   2 1.90   1 1.97  34 1.99  40 2.09   8 2.17
  56  0.173  0.217  0.079-  23 1.92   1 2.10  17 2.10   2 2.14   7 2.14
  57  0.151  0.204  0.426-   6 1.92  22 2.00   4 2.04   3 2.09  19 2.12
  58  0.032  0.301  0.595-   5 1.77   3 2.06  37 2.06   4 2.11  36 2.32
  59  0.173  0.320  0.757-   8 1.59   5 1.88
  60  0.986  0.145  0.253-   6 1.72   7 1.88
  61  0.179  0.507  0.511-  19 2.03   5 2.16  28 2.16   3 2.24  12 2.26  14 2.28
  62  0.175  0.504  0.993-  17 1.86  26 1.96  10 1.97   1 2.24   8 2.30  15 2.42
  63  0.999  0.520  0.841-   8 1.79  40 1.89  10 2.03
  64  0.189  0.970  0.159-  23 1.81   9 1.90   7 2.19
  65  0.159  0.995  0.330-   6 1.81  22 1.94  11 2.04
  66  0.989  0.541  0.651-  12 1.70  37 1.80   5 2.20
  67  0.158  0.786  0.928-   9 1.96  10 2.02  26 2.05  16 2.10  32 2.10
  68  0.008  0.711  0.083-  15 1.86  10 1.97   9 2.00  47 2.11  41 2.17
  69  0.986  0.710  0.416-  46 1.87  43 1.97  14 2.07  12 2.14  11 2.39
  70  0.170  0.777  0.571-  11 2.09  12 2.13  28 2.21  13 2.23  29 2.25
  71  0.000  0.815  0.747-  16 1.83  13 1.87
  72  0.163  0.669  0.243-  15 1.57  14 1.93
  73  0.340  0.010  0.502-  27 1.94  20 1.98  11 2.06   4 2.07  22 2.21  29 2.37
  74  0.338  0.001  0.989-  18 1.99  32 2.04  25 2.21  23 2.24   2 2.25   9 2.28
  75  0.479  0.035  0.834-  32 1.88  18 1.91  48 2.08
  76  0.324  0.471  0.154-  15 1.99  17 2.00  31 2.01
  77  0.324  0.459  0.344-  19 1.80  30 1.84  14 1.93
  78  0.517  0.014  0.655-  45 1.74  29 1.84  20 2.03
  79  0.344  0.283  0.919-  24 1.89  17 1.90  18 2.09   2 2.17   8 2.24
  80  0.500  0.224  0.084-  23 2.02  39 2.05  33 2.18  18 2.19  17 2.28
  81  0.482  0.211  0.425-  22 1.85  20 1.86  19 2.12  38 2.13  35 2.37
  82  0.338  0.283  0.580-   5 1.95  21 2.02  19 2.07   4 2.13  20 2.20
  83  0.510  0.330  0.768-  24 1.60  21 2.06
  84  0.326  0.171  0.240-  23 1.78  22 1.93
  85  0.507  0.502  0.499-  28 1.93  44 1.94  35 2.00  30 2.14  21 2.22  19 2.28
  86  0.487  0.520  0.003-  26 1.98  31 2.00  42 2.07  17 2.08  24 2.31  33 2.37
  87  0.343  0.518  0.846-  24 1.86  26 1.97   8 1.99
  88  0.506  0.986  0.161-  39 1.79  23 1.94  25 1.96
  89  0.512  0.952  0.342-  38 1.93  27 1.97  22 2.25
  90  0.334  0.531  0.655-  21 1.74   5 1.84  28 1.87
  91  0.496  0.794  0.920-  48 1.91  32 1.95  25 2.07  42 2.08  26 2.15
  92  0.342  0.727  0.075-  31 1.95  26 1.97  25 1.97  15 2.15   9 2.18
  93  0.335  0.695  0.418-  30 1.86  14 1.89  28 2.02  11 2.22  27 2.26
  94  0.513  0.774  0.563-  27 1.73  28 1.83  44 1.93  45 2.11  29 2.18
  95  0.344  0.812  0.759-  32 1.79  29 1.84
  96  0.500  0.661  0.245-  31 1.80  30 1.89
  97  0.650  0.991  0.498-  27 1.90  20 1.91  45 2.08  43 2.23  38 2.29  36 2.39
  98  0.677  0.010  0.995-  34 1.95  48 1.98  18 2.01  39 2.10  41 2.13  25 2.24
  99  0.843  0.031  0.850-  34 1.76  16 1.81  48 2.03
 100  0.668  0.474  0.157-  47 1.84  33 1.93  31 2.00
 101  0.657  0.459  0.347-  35 1.75  30 1.96  46 2.07
 102  0.825  0.022  0.655-  45 1.79  13 1.85  36 2.14
 103  0.672  0.287  0.918-  40 1.94  24 1.95  33 2.02  34 2.10  18 2.17
 104  0.832  0.226  0.073-  33 1.91   1 1.99  34 2.01   7 2.01  39 2.11
 105  0.844  0.221  0.416-  36 1.90   6 1.93   3 2.01  38 2.17  35 2.20
 106  0.674  0.277  0.588-  37 2.07  20 2.13  36 2.13  35 2.19  21 2.24
 107  0.832  0.341  0.766-  40 1.54  37 2.24
 108  0.674  0.180  0.248-  38 1.80  39 1.95
 109  0.835  0.509  0.514-  37 1.79  12 1.90  44 1.96  35 2.08   3 2.16  46 2.33
 110  0.848  0.492  0.009-   1 1.94  47 1.95  33 1.96  10 2.09  40 2.30  42 2.38
 111  0.659  0.551  0.852-  42 1.62  24 2.06  40 2.10
 112  0.840  0.956  0.161-   7 1.91  41 2.02  39 2.05
 113  0.826  0.961  0.343-  38 1.98   6 2.00  43 2.08
 114  0.648  0.533  0.659-  21 1.83  44 1.96  37 2.08
 115  0.844  0.774  0.919-  41 1.94  16 2.02  10 2.08  42 2.11  48 2.17
 116  0.682  0.733  0.066-  41 1.80  42 1.98  25 1.98  31 2.24  47 2.37
 117  0.673  0.730  0.418-  46 2.05  43 2.05  44 2.06  27 2.23  30 2.35
 118  0.845  0.778  0.575-  43 1.75  12 1.80  13 2.11  45 2.11  44 2.19
 119  0.653  0.839  0.743-  45 1.80  48 2.08
 120  0.795  0.659  0.244-  46 1.89  47 1.90
 
  LATTYP: Found a simple orthorhombic cell.
 ALAT       =     8.7082700000
 B/A-ratio  =     1.1146370060
 C/A-ratio  =     1.6738812646
  
  Lattice vectors:
  
 A1 = (   8.7082700000,   0.0000000000,   0.0000000000)
 A2 = (   0.0000000000,   9.7065600000,   0.0000000000)
 A3 = (   0.0000000000,   0.0000000000,  14.5766100000)


Analysis of symmetry for initial positions (statically):
=====================================================================
 Subroutine PRICEL returns:
 Original cell was already a primitive cell.
 

 Routine SETGRP: Setting up the symmetry group for a 
 simple orthorhombic supercell.


 Subroutine GETGRP returns: Found  1 space group operations
 (whereof  1 operations were pure point group operations)
 out of a pool of  8 trial point group operations.


The static configuration has the point symmetry C_1 .


Analysis of symmetry for dynamics (positions and initial velocities):
=====================================================================
 Subroutine PRICEL returns:
 Original cell was already a primitive cell.
 

 Routine SETGRP: Setting up the symmetry group for a 
 simple orthorhombic supercell.


 Subroutine GETGRP returns: Found  1 space group operations
 (whereof  1 operations were pure point group operations)
 out of a pool of  8 trial point group operations.


The dynamic configuration has the point symmetry C_1 .


Analysis of structural, dynamic, and magnetic symmetry:
=====================================================================
 Subroutine PRICEL returns:
 Original cell was already a primitive cell.
 

 Routine SETGRP: Setting up the symmetry group for a 
 simple orthorhombic supercell.


 Subroutine GETGRP returns: Found  1 space group operations
 (whereof  1 operations were pure point group operations)
 out of a pool of  8 trial point group operations.


The magnetic configuration has the point symmetry C_1 .


 Subroutine INISYM returns: Found  1 space group operations
 (whereof  1 operations are pure point group operations),
 and found     1 'primitive' translations

 
 
 KPOINTS: Automatic mesh                          

Automatic generation of k-mesh.
Space group operators:
 irot       det(A)        alpha          n_x          n_y          n_z        tau_x        tau_y        tau_z
    1     1.000000     0.000001     1.000000     0.000000     0.000000     0.000000     0.000000     0.000000
 
 Subroutine IBZKPT returns following result:
 ===========================================
 
 Found     10 irreducible k-points:
 
 Following reciprocal coordinates:
            Coordinates               Weight
  0.000000  0.000000  0.000000      1.000000
  0.333333  0.000000  0.000000      2.000000
  0.000000  0.333333  0.000000      2.000000
  0.333333  0.333333  0.000000      2.000000
 -0.333333  0.333333  0.000000      2.000000
  0.000000  0.000000  0.500000      1.000000
  0.333333  0.000000  0.500000      2.000000
  0.000000  0.333333  0.500000      2.000000
  0.333333  0.333333  0.500000      2.000000
 -0.333333  0.333333  0.500000      2.000000
 
 Following cartesian coordinates:
            Coordinates               Weight
  0.000000  0.000000  0.000000      1.000000
  0.038278  0.000000  0.000000      2.000000
  0.000000  0.034341  0.000000      2.000000
  0.038278  0.034341  0.000000      2.000000
 -0.038278  0.034341  0.000000      2.000000
  0.000000  0.000000  0.034302      1.000000
  0.038278  0.000000  0.034302      2.000000
  0.000000  0.034341  0.034302      2.000000
  0.038278  0.034341  0.034302      2.000000
 -0.038278  0.034341  0.034302      2.000000
 


--------------------------------------------------------------------------------------------------------




 Dimension of arrays:
   k-points           NKPTS =     10   k-points in BZ     NKDIM =     10   number of bands    NBANDS=    608
   number of dos      NEDOS =    301   number of ions     NIONS =    120
   non local maximal  LDIM  =      6   non local SUM 2l+1 LMDIM =     18
   total plane-waves  NPLWV = 497664
   max r-space proj   IRMAX =   5472   max aug-charges    IRDMAX=  13291
   dimension x,y,z NGX =    64 NGY =   72 NGZ =  108
   dimension x,y,z NGXF=   128 NGYF=  144 NGZF=  216
   support grid    NGXF=   128 NGYF=  144 NGZF=  216
   ions per type =              48  72
   NGX,Y,Z   is equivalent  to a cutoff of  12.22, 12.33, 12.32 a.u.
   NGXF,Y,Z  is equivalent  to a cutoff of  24.44, 24.66, 24.63 a.u.

 SYSTEM =  unknown system                          
 POSCAR =  Ni2O3_Cmcm_scale_1_000_disp_0_10_round_2

 Startparameter for this run:
   NWRITE =      1    write-flag & timer
   PREC   = accura    normal or accurate (medium, high low for compatibility)
   ISTART =      0    job   : 0-new  1-cont  2-samecut
   ICHARG =      2    charge: 1-file 2-atom 10-const
   ISPIN  =      2    spin polarized calculation?
   LNONCOLLINEAR =      F non collinear calculations
   LSORBIT =      F    spin-orbit coupling
   INIWAV =      1    electr: 0-lowe 1-rand  2-diag
   LASPH  =      F    aspherical Exc in radial PAW
   METAGGA=      F    non-selfconsistent MetaGGA calc.

 Electronic Relaxation 1
   ENCUT  =  500.0 eV  36.75 Ry    6.06 a.u.  15.88 17.70 26.58*2*pi/ulx,y,z
   ENINI  =  500.0     initial cutoff
   ENAUG  =  605.4 eV  augmentation charge cutoff
   NELM   =     80;   NELMIN=  2; NELMDL= -5     # of ELM steps 
   EDIFF  = 0.1E-04   stopping-criterion for ELM
   LREAL  =      T    real-space projection
   NLSPLINE    = F    spline interpolate recip. space projectors
   LCOMPAT=      F    compatible to vasp.4.4
   GGA_COMPAT  = T    GGA compatible to vasp.4.4-vasp.4.6
   LMAXPAW     = -100 max onsite density
   LMAXMIX     =    2 max onsite mixed and CHGCAR
   VOSKOWN=      1    Vosko Wilk Nusair interpolation
   ROPT   =   -0.00025  -0.00025
 Ionic relaxation
   EDIFFG = 0.1E-03   stopping-criterion for IOM
   NSW    =      0    number of steps for IOM
   NBLOCK =      1;   KBLOCK =      1    inner block; outer block 
   IBRION =     -1    ionic relax: 0-MD 1-quasi-New 2-CG
   NFREE  =      0    steps in history (QN), initial steepest desc. (CG)
   ISIF   =      2    stress and relaxation
   IWAVPR =     10    prediction:  0-non 1-charg 2-wave 3-comb
   ISYM   =      2    0-nonsym 1-usesym 2-fastsym
   LCORR  =      T    Harris-Foulkes like correction to forces

   POTIM  = 0.5000    time-step for ionic-motion
   TEIN   =    0.0    initial temperature
   TEBEG  =    0.0;   TEEND  =   0.0 temperature during run
   SMASS  =  -3.00    Nose mass-parameter (am)
   estimated Nose-frequenzy (Omega)   =  0.10E-29 period in steps =****** mass=  -0.173E-26a.u.
   SCALEE = 1.0000    scale energy and forces
   NPACO  =    256;   APACO  = 16.0  distance and # of slots for P.C.
   PSTRESS=    0.0 pullay stress

  Mass of Ions in am
   POMASS =  58.69 16.00
  Ionic Valenz
   ZVAL   =  10.00  6.00
  Atomic Wigner-Seitz radii
   RWIGS  =   1.15  0.73
  virtual crystal weights 
   VCA    =   1.00  1.00
   NELECT =     912.0000    total number of electrons
   NUPDOWN=      -1.0000    fix difference up-down

 DOS related values:
   EMIN   =  10.00;   EMAX   =-10.00  energy-range for DOS
   EFERMI =   0.00
   ISMEAR =     0;   SIGMA  =   0.05  broadening in eV -4-tet -1-fermi 0-gaus

 Electronic relaxation 2 (details)
   IALGO  =     38    algorithm
   LDIAG  =      T    sub-space diagonalisation (order eigenvalues)
   LSUBROT=      F    optimize rotation matrix (better conditioning)
   TURBO    =      0    0=normal 1=particle mesh
   IRESTART =      0    0=no restart 2=restart with 2 vectors
   NREBOOT  =      0    no. of reboots
   NMIN     =      0    reboot dimension
   EREF     =   0.00    reference energy to select bands
   IMIX   =      4    mixing-type and parameters
     AMIX     =   0.40;   BMIX     =  1.00
     AMIX_MAG =   1.60;   BMIX_MAG =  1.00
     AMIN     =   0.10
     WC   =   100.;   INIMIX=   1;  MIXPRE=   1;  MAXMIX= -45

 Intra band minimization:
   WEIMIN = 0.0000     energy-eigenvalue tresh-hold
   EBREAK =  0.41E-08  absolut break condition
   DEPER  =   0.30     relativ break condition  

   TIME   =   0.40     timestep for ELM

  volume/ion in A,a.u.               =      10.27        69.29
  Fermi-wavevector in a.u.,A,eV,Ry     =   1.480887  2.798470 29.837925  2.193026
  Thomas-Fermi vector in A             =   2.594865
 
 Write flags
   LWAVE        =      F    write WAVECAR
   LDOWNSAMPLE  =      F    k-point downsampling of WAVECAR
   LCHARG       =      T    write CHGCAR
   LVTOT        =      F    write LOCPOT, total local potential
   LVHAR        =      F    write LOCPOT, Hartree potential only
   LELF         =      F    write electronic localiz. function (ELF)
   LORBIT       =      0    0 simple, 1 ext, 2 COOP (PROOUT), +10 PAW based schemes


 Dipole corrections
   LMONO  =      F    monopole corrections only (constant potential shift)
   LDIPOL =      F    correct potential (dipole corrections)
   IDIPOL =      0    1-x, 2-y, 3-z, 4-all directions 
   EPSILON=  1.0000000 bulk dielectric constant

 Exchange correlation treatment:
   GGA     =    PS    GGA type
   LEXCH   =    14    internal setting for exchange type
   VOSKOWN=      1    Vosko Wilk Nusair interpolation
   LHFCALC =     F    Hartree Fock is set to
   LHFONE  =     F    Hartree Fock one center treatment
   AEXX    =    0.0000 exact exchange contribution

 Linear response parameters
   LEPSILON=     F    determine dielectric tensor
   LRPA    =     F    only Hartree local field effects (RPA)
   LNABLA  =     F    use nabla operator in PAW spheres
   LVEL    =     F    velocity operator in full k-point grid
   LINTERFAST=   F  fast interpolation
   KINTER  =     0    interpolate to denser k-point grid
   CSHIFT  =0.1000    complex shift for real part using Kramers Kronig
   OMEGAMAX=  -1.0    maximum frequency
   DEG_THRESHOLD= 0.2000000E-02 threshold for treating states as degnerate
   RTIME   =   -0.100 relaxation time in fs
  (WPLASMAI=    0.000 imaginary part of plasma frequency in eV, 0.658/RTIME)
   DFIELD  = 0.0000000 0.0000000 0.0000000 field for delta impulse in time
 
 Orbital magnetization related:
   ORBITALMAG=     F  switch on orbital magnetization
   LCHIMAG   =     F  perturbation theory with respect to B field
   DQ        =  0.001000  dq finite difference perturbation B field
   LLRAUG    =     F  two centre corrections for induced B field



--------------------------------------------------------------------------------------------------------


 Static calculation
 charge density and potential will be updated during run
 spin polarized calculation
 Variant of blocked Davidson
 Davidson routine will perform the subspace rotation
 perform sub-space diagonalisation
    after iterative eigenvector-optimisation
 modified Broyden-mixing scheme, WC =      100.0
 initial mixing is a Kerker type mixing with AMIX =  0.4000 and BMIX =      1.0000
 Hartree-type preconditioning will be used
 using additional bands          152
 real space projection scheme for non local part
 use partial core corrections
 calculate Harris-corrections to forces 
   (improved forces if not selfconsistent)
 use gradient corrections 
 use of overlap-Matrix (Vanderbilt PP)
 Gauss-broadening in eV      SIGMA  =   0.05


--------------------------------------------------------------------------------------------------------


  energy-cutoff  :      500.00
  volume of cell :     1232.12
      direct lattice vectors                 reciprocal lattice vectors
     8.708270000  0.000000000  0.000000000     0.114833371  0.000000000  0.000000000
     0.000000000  9.706560000  0.000000000     0.000000000  0.103023110  0.000000000
     0.000000000  0.000000000 14.576610000     0.000000000  0.000000000  0.068603057

  length of vectors
     8.708270000  9.706560000 14.576610000     0.114833371  0.103023110  0.068603057


 
 k-points in units of 2pi/SCALE and weight: Automatic mesh                          
   0.00000000  0.00000000  0.00000000       0.056
   0.03827779  0.00000000  0.00000000       0.111
   0.00000000  0.03434104  0.00000000       0.111
   0.03827779  0.03434104  0.00000000       0.111
  -0.03827779  0.03434104  0.00000000       0.111
   0.00000000  0.00000000  0.03430153       0.056
   0.03827779  0.00000000  0.03430153       0.111
   0.00000000  0.03434104  0.03430153       0.111
   0.03827779  0.03434104  0.03430153       0.111
  -0.03827779  0.03434104  0.03430153       0.111
 
 k-points in reciprocal lattice and weights: Automatic mesh                          
   0.00000000  0.00000000  0.00000000       0.056
   0.33333333  0.00000000  0.00000000       0.111
   0.00000000  0.33333333  0.00000000       0.111
   0.33333333  0.33333333  0.00000000       0.111
  -0.33333333  0.33333333  0.00000000       0.111
   0.00000000  0.00000000  0.50000000       0.056
   0.33333333  0.00000000  0.50000000       0.111
   0.00000000  0.33333333  0.50000000       0.111
   0.33333333  0.33333333  0.50000000       0.111
  -0.33333333  0.33333333  0.50000000       0.111
 
 position of ions in fractional coordinates (direct lattice) 
   0.99940328  0.36221442  0.05389704
   0.15223844  0.14431922  0.94151165
   0.99763599  0.36094337  0.46098941
   0.16652501  0.13032262  0.55617392
   0.18516956  0.39891936  0.64011681
   0.99485414  0.09565250  0.36639467
   0.98535351  0.09463939  0.12808534
   0.15530875  0.40130439  0.85101791
   0.14971552  0.86574811  0.05116913
   0.00978521  0.63185953  0.95803284
   0.18467452  0.87550185  0.44375563
   0.97993478  0.64078899  0.55528753
   0.99972628  0.91583365  0.63705053
   0.16924338  0.59703650  0.36614444
   0.16180909  0.61299410  0.14168227
   0.99359326  0.90308152  0.85748659
   0.31899971  0.37467801  0.03256544
   0.50342066  0.12834594  0.94839416
   0.31285482  0.36304527  0.44944389
   0.51216050  0.13081083  0.53927337
   0.48620703  0.41587738  0.63926596
   0.32932034  0.11107011  0.36645680
   0.32995009  0.09931657  0.12781596
   0.50115259  0.39435515  0.86858001
   0.50726858  0.86223359  0.05413669
   0.32525757  0.64219068  0.95239590
   0.48673831  0.87044709  0.46490138
   0.36886497  0.63759202  0.55004841
   0.35295314  0.89520610  0.64577458
   0.48093062  0.58207409  0.36309232
   0.49559193  0.60394637  0.12804346
   0.33187664  0.90242453  0.86574723
   0.68459230  0.36524830  0.04616136
   0.83513628  0.13484198  0.94881187
   0.67381098  0.37848124  0.45383939
   0.85152706  0.14806895  0.53632711
   0.84139358  0.41979577  0.62151361
   0.66016030  0.09866316  0.35847920
   0.66652318  0.09032707  0.12856035
   0.83094045  0.40077771  0.86359710
   0.83168594  0.85512735  0.04041094
   0.65815793  0.64037233  0.94539242
   0.84733021  0.85281270  0.46535675
   0.66245237  0.63061369  0.54222608
   0.67071529  0.90656959  0.62835273
   0.83416218  0.59789064  0.36534889
   0.84727210  0.56746628  0.13329673
   0.65852973  0.91004913  0.87743723
   0.00551624  0.98529471  0.49771369
   0.00858160  0.00577166  0.00393582
   0.15310955  0.03962766  0.84245808
   0.01521126  0.46540216  0.16814223
   0.00476744  0.47595285  0.34068712
   0.16200404  0.02777489  0.66348649
   0.99485911  0.27907407  0.93063980
   0.17259097  0.21707337  0.07933550
   0.15054062  0.20418296  0.42559948
   0.03163663  0.30098581  0.59466727
   0.17322053  0.31986567  0.75732834
   0.98628266  0.14524860  0.25291019
   0.17853932  0.50726523  0.51063529
   0.17545957  0.50356778  0.99277049
   0.99851304  0.51957849  0.84084971
   0.18851980  0.97041562  0.15920430
   0.15870130  0.99506499  0.32977411
   0.98935651  0.54149492  0.65147076
   0.15754924  0.78550768  0.92775432
   0.00783892  0.71090947  0.08254772
   0.98610775  0.71027730  0.41578148
   0.17043305  0.77664139  0.57085035
   0.00036165  0.81474607  0.74653649
   0.16308835  0.66885944  0.24309778
   0.34037652  0.00961081  0.50220273
   0.33773099  0.00051562  0.98928365
   0.47902503  0.03545071  0.83386095
   0.32425918  0.47050371  0.15420888
   0.32415561  0.45894376  0.34363661
   0.51685133  0.01425899  0.65493450
   0.34437220  0.28298722  0.91851633
   0.50037096  0.22394275  0.08435032
   0.48164607  0.21085518  0.42451574
   0.33830648  0.28278351  0.58020232
   0.51013723  0.33001967  0.76762939
   0.32558881  0.17102961  0.24004066
   0.50684198  0.50247717  0.49892196
   0.48683574  0.52023637  0.00287237
   0.34281776  0.51789536  0.84567339
   0.50575091  0.98602161  0.16065759
   0.51228940  0.95223334  0.34195468
   0.33433929  0.53076235  0.65466164
   0.49640321  0.79369037  0.91972062
   0.34182781  0.72688049  0.07494810
   0.33495251  0.69523661  0.41845589
   0.51256530  0.77377374  0.56327181
   0.34449387  0.81193179  0.75926202
   0.49959262  0.66132172  0.24526739
   0.65009490  0.99078618  0.49803777
   0.67705491  0.01041475  0.99486489
   0.84289058  0.03096193  0.85032568
   0.66753624  0.47391032  0.15676235
   0.65663817  0.45865981  0.34676533
   0.82519755  0.02156529  0.65515625
   0.67208584  0.28697579  0.91785878
   0.83160047  0.22555411  0.07298057
   0.84447006  0.22141427  0.41579545
   0.67399372  0.27734242  0.58823113
   0.83160879  0.34108578  0.76574947
   0.67363789  0.18033143  0.24770402
   0.83507528  0.50868627  0.51402142
   0.84795639  0.49207901  0.00907542
   0.65907624  0.55094111  0.85195398
   0.83959430  0.95607611  0.16119967
   0.82600600  0.96086932  0.34273235
   0.64830110  0.53267258  0.65923182
   0.84353729  0.77412323  0.91930392
   0.68217623  0.73258833  0.06587535
   0.67310340  0.73008645  0.41784761
   0.84468608  0.77770382  0.57476183
   0.65261789  0.83915730  0.74311360
   0.79548247  0.65937448  0.24440412
 
 position of ions in cartesian coordinates  (Angst):
   8.70307360  3.51585600  0.78563613
   1.32573344  1.40084317 13.72404813
   8.68768356  3.50351848  6.71966284
   1.45014475  1.26498433  8.10713032
   1.61250652  3.87213470  9.33073309
   8.66345846  0.92845673  5.34079221
   8.58072441  0.91862292  1.86705005
   1.35247053  3.89528514 12.40495618
   1.30376317  8.40343597  0.74587245
   0.08521225  6.13318244 13.96487108
   1.60819558  8.49811124  6.46845275
   8.53353665  6.21985678  8.09420976
   8.70588637  8.88959427  9.28603713
   1.47381705  5.79517061  5.33714471
   1.40907724  5.95006401  2.06524719
   8.65247838  8.76581496 12.49924760
   2.77793560  3.63683458  0.47469372
   4.38392303  1.24579757 13.82437180
   2.72442424  3.52392070  6.55136830
   4.46003192  1.26972317  7.86077760
   4.23402209  4.03673874  9.31833059
   2.86781044  1.07810869  5.34169786
   2.87329447  0.96402225  1.86312340
   4.36417206  3.82783192 12.66095206
   4.41743176  8.36932208  0.78912942
   2.83243074  6.23346237 13.88270360
   4.23864862  8.44904691  6.77668610
   3.21217575  6.18882520  8.01784115
   3.07361124  8.68937172  9.41320420
   4.18807369  5.64993708  5.29265514
   4.31574834  5.86224168  1.86643958
   2.89007139  8.75943785 12.61965973
   5.96161459  3.54530454  0.67287614
   7.27259221  1.30885177 13.83046059
   5.86772794  3.67375086  6.61543979
   7.41532755  1.43724015  7.81783111
   7.32708247  4.07477283  9.05956150
   5.74885414  0.95767988  5.22541149
   5.80426381  0.87676512  1.87397408
   7.23605379  3.89017289 12.58831812
   7.24254572  8.30034493  0.58905451
   5.73141696  6.21581244 13.78061660
   7.37878025  8.27787764  6.78332386
   5.76881410  6.12108962  7.90381810
   5.84076984  8.79967212  9.15925269
   7.26410949  5.80346137  5.32554828
   7.37827421  5.50814549  1.94301445
   5.73465469  8.83344648 12.79006030
   0.04803691  9.56382222  7.25497835
   0.07473089  0.05602296  0.05737091
   1.33331930  0.38464826 12.28018287
   0.13246376  4.51745399  2.45094371
   0.04151615  4.61986490  4.96606328
   1.41077492  0.26959864  9.67138380
   8.66350174  2.70884920 13.56557342
   1.50296877  2.10703569  1.15644264
   1.31094836  1.98191415  6.20379764
   0.27550032  2.92153682  8.66823287
   1.50845114  3.10479532 11.03927985
   8.58881570  1.40986425  3.68657320
   1.55476860  4.92380039  7.44333147
   1.52794931  4.88791087 14.47122825
   8.69532115  5.04331979 12.25673829
   1.64168132  9.41939744  2.32065899
   1.38201377  9.65865803  4.80698859
   8.61558362  5.25605293  9.49623519
   1.37198132  7.62457743 13.52351290
   0.06826343  6.90048543  1.20326592
   8.58729254  6.89434923  6.06068448
   1.48417702  7.53851625  8.32106292
   0.00314935  7.90838161 10.88197127
   1.42021739  6.49232429  3.54354153
   2.96409064  0.09328790  7.32041334
   2.94105265  0.00500490 14.42040195
   4.17147930  0.34410444 12.15486586
   2.82373649  4.56697249  2.24784270
   2.82283457  4.45476514  5.00905685
   4.50088093  0.13840574  9.54672478
   2.99888610  2.74683243 13.38885432
   4.35736542  2.17371374  1.22954172
   4.19430402  2.04667846  6.18800038
   2.94606417  2.74485511  8.45738294
   4.44241274  3.20335573 11.18943424
   2.83531527  1.66010917  3.49897908
   4.41371681  4.87732480  7.27259083
   4.23949707  5.04970554  0.04186942
   2.98534961  5.02698239 12.32705119
   4.40421548  9.57087792  2.34184303
   4.46115441  9.24291005  4.98454001
   2.91151681  5.15187660  9.54274741
   4.32281318  7.70400320 13.40640879
   2.97672886  7.05550909  1.09248922
   2.91685689  6.74835587  6.09966831
   4.46355703  7.51068123  8.21059350
   2.99994563  7.88106464 11.06746635
   4.35058742  6.41915895  3.57516709
   5.66120191  9.61712550  7.25970234
   5.89597696  0.10109140 14.50175750
   7.34011875  0.30053383 12.39486581
   5.81308581  4.60003896  2.28506364
   5.71818248  4.45200897  5.05466298
   7.18604307  0.20932478  9.54995715
   5.85270496  2.78554772 13.37926947
   7.24180142  2.18935450  1.06380931
   7.35387329  2.14917090  6.06088811
   5.86931929  2.69204084  8.57441577
   7.24187388  3.31076959 11.16203138
   5.86622063  1.75039785  3.61068489
   7.27206101  4.93759380  7.49268977
   7.38423319  4.77639444  0.13228886
   5.73941385  5.34774294 12.41860090
   7.31141385  9.28021013  2.34974472
   7.19308327  9.32673571  4.99587580
   5.64558102  5.17041836  9.60936514
   7.34575048  7.51407358 13.40033471
   5.94057480  7.11091258  0.96023929
   5.86156615  7.08662793  6.09080165
   7.35575445  7.54882879  8.37807904
   5.68317279  8.14533068 10.83207713
   6.92727613  6.40025795  3.56258354
 


--------------------------------------------------------------------------------------------------------


 k-point  1 :   0.0000 0.0000 0.0000  plane waves:   31277
 k-point  2 :   0.3333 0.0000 0.0000  plane waves:   31312
 k-point  3 :   0.0000 0.3333 0.0000  plane waves:   31260
 k-point  4 :   0.3333 0.3333 0.0000  plane waves:   31279
 k-point  5 :  -0.3333 0.3333 0.0000  plane waves:   31279
 k-point  6 :   0.0000 0.0000 0.5000  plane waves:   31266
 k-point  7 :   0.3333 0.0000 0.5000  plane waves:   31290
 k-point  8 :   0.0000 0.3333 0.5000  plane waves:   31266
 k-point  9 :   0.3333 0.3333 0.5000  plane waves:   31268
 k-point 10 :  -0.3333 0.3333 0.5000  plane waves:   31268

 maximum and minimum number of plane-waves per node :     31312    31260

 maximum number of plane-waves:     31312
 maximum index in each direction: 
   IXMAX=   16   IYMAX=   17   IZMAX=   26
   IXMIN=  -16   IYMIN=  -18   IZMIN=  -27

 The following grids will avoid any aliasing or wrap around errors in the Hartre
 e energy
  - symmetry arguments have not been applied
  - exchange correlation energies might require even more grid points
  - we recommend to set PREC=Normal or Accurate and rely on VASP defaults
 WARNING: aliasing errors must be expected set NGX to    70 to avoid them
 NGY is ok and might be reduce to    72
 NGZ is ok and might be reduce to   108

 serial   3D FFT for wavefunctions
 parallel 3D FFT for charge:
    minimum data exchange during FFTs selected (reduces bandwidth)


 total amount of memory used by VASP MPI-rank0   564591. kBytes
=======================================================================

   base      :      30000. kBytes
   nonlr-proj:      62127. kBytes
   fftplans  :      10454. kBytes
   grid      :      60014. kBytes
   one-center:       3732. kBytes
   wavefun   :     398264. kBytes
 
     INWAV:  cpu time    0.0000: real time    0.0000
 Broyden mixing: mesh for mixing (old mesh)
   NGX = 31   NGY = 35   NGZ = 53
  (NGX  =128   NGY  =144   NGZ  =216)
  gives a total of  57505 points

 initial charge density was supplied:
 charge density of overlapping atoms calculated
 number of electron     912.0000000 magnetization     120.0000000
 keeping initial charge density in first step


--------------------------------------------------------------------------------------------------------


 Maximum index for non-local projection operator         5279
 Maximum index for augmentation-charges          918 (set IRDMAX)


--------------------------------------------------------------------------------------------------------


 First call to EWALD:  gamma=   0.165
 Maximum number of real-space cells 3x 3x 2
 Maximum number of reciprocal cells 2x 3x 4

    FEWALD:  cpu time    0.0058: real time    0.0058


--------------------------------------- Iteration      1(   1)  ---------------------------------------


    POTLOK:  cpu time    0.3250: real time    0.3688
    SETDIJ:  cpu time    0.0431: real time    0.0432
     EDDAV:  cpu time  160.0911: real time  160.4693
    --------------------------------------------
      LOOP:  cpu time  160.4617: real time  160.8838

 eigenvalue-minimisations  : 24320
 total energy-change (2. order) : 0.1166656E+05  (-0.3813367E+05)
 number of electron     912.0000000 magnetization     120.0000000
 augmentation part      912.0000000 magnetization     120.0000000

 Free energy of the ion-electron system (eV)
  ---------------------------------------------------
  alpha Z        PSCENC =      3046.18122208
  Ewald energy   TEWEN  =    -58194.73066588
  -Hartree energ DENC   =    -28144.16925268
  -exchange      EXHF   =         0.00000000
  -V(xc)+E(xc)   XCENC  =      3583.41341426
  PAW double counting   =     71080.72462945   -74396.17323249
  entropy T*S    EENTRO =        -0.01955741
  eigenvalues    EBANDS =     11985.51640484
  atomic energy  EATOM  =     82705.81968683
  Solvation  Ediel_sol  =         0.00000000
  ---------------------------------------------------
  free energy    TOTEN  =     11666.56264900 eV

  energy without entropy =    11666.58220641  energy(sigma->0) =    11666.57242770


--------------------------------------------------------------------------------------------------------




--------------------------------------- Iteration      1(   2)  ---------------------------------------


     EDDAV:  cpu time  158.8705: real time  159.2456
    --------------------------------------------
      LOOP:  cpu time  158.8715: real time  159.2466

 eigenvalue-minimisations  : 24320
 total energy-change (2. order) :-0.9818032E+04  (-0.8955325E+04)
 number of electron     912.0000000 magnetization     120.0000000
 augmentation part      912.0000000 magnetization     120.0000000

 Free energy of the ion-electron system (eV)
  ---------------------------------------------------
  alpha Z        PSCENC =      3046.18122208
  Ewald energy   TEWEN  =    -58194.73066588
  -Hartree energ DENC   =    -28144.16925268
  -exchange      EXHF   =         0.00000000
  -V(xc)+E(xc)   XCENC  =      3583.41341426
  PAW double counting   =     71080.72462945   -74396.17323249
  entropy T*S    EENTRO =        -0.05029068
  eigenvalues    EBANDS =      2167.51559482
  atomic energy  EATOM  =     82705.81968683
  Solvation  Ediel_sol  =         0.00000000
  ---------------------------------------------------
  free energy    TOTEN  =      1848.53110571 eV

  energy without entropy =     1848.58139639  energy(sigma->0) =     1848.55625105


--------------------------------------------------------------------------------------------------------




--------------------------------------- Iteration      1(   3)  ---------------------------------------


     EDDAV:  cpu time  162.3288: real time  162.7121
    --------------------------------------------
      LOOP:  cpu time  162.3288: real time  162.7120

 eigenvalue-minimisations  : 24736
 total energy-change (2. order) :-0.2483524E+04  (-0.2161333E+04)
 number of electron     912.0000000 magnetization     120.0000000
 augmentation part      912.0000000 magnetization     120.0000000

 Free energy of the ion-electron system (eV)
  ---------------------------------------------------
  alpha Z        PSCENC =      3046.18122208
  Ewald energy   TEWEN  =    -58194.73066588
  -Hartree energ DENC   =    -28144.16925268
  -exchange      EXHF   =         0.00000000
  -V(xc)+E(xc)   XCENC  =      3583.41341426
  PAW double counting   =     71080.72462945   -74396.17323249
  entropy T*S    EENTRO =        -0.20366131
  eigenvalues    EBANDS =      -315.85493099
  atomic energy  EATOM  =     82705.81968683
  Solvation  Ediel_sol  =         0.00000000
  ---------------------------------------------------
  free energy    TOTEN  =      -634.99279073 eV

  energy without entropy =     -634.78912942  energy(sigma->0) =     -634.89096008


--------------------------------------------------------------------------------------------------------




--------------------------------------- Iteration      1(   4)  ---------------------------------------


     EDDAV:  cpu time  173.3787: real time  173.7882
    --------------------------------------------
      LOOP:  cpu time  173.3788: real time  173.7883

 eigenvalue-minimisations  : 27312
 total energy-change (2. order) :-0.3343941E+03  (-0.3191765E+03)
 number of electron     912.0000000 magnetization     120.0000000
 augmentation part      912.0000000 magnetization     120.0000000

 Free energy of the ion-electron system (eV)
  ---------------------------------------------------
  alpha Z        PSCENC =      3046.18122208
  Ewald energy   TEWEN  =    -58194.73066588
  -Hartree energ DENC   =    -28144.16925268
  -exchange      EXHF   =         0.00000000
  -V(xc)+E(xc)   XCENC  =      3583.41341426
  PAW double counting   =     71080.72462945   -74396.17323249
  entropy T*S    EENTRO =        -0.22164803
  eigenvalues    EBANDS =      -650.23108137
  atomic energy  EATOM  =     82705.81968683
  Solvation  Ediel_sol  =         0.00000000
  ---------------------------------------------------
  free energy    TOTEN  =      -969.38692783 eV

  energy without entropy =     -969.16527980  energy(sigma->0) =     -969.27610382


--------------------------------------------------------------------------------------------------------




--------------------------------------- Iteration      1(   5)  ---------------------------------------


     EDDAV:  cpu time  181.6708: real time  182.0997
    CHARGE:  cpu time    6.5166: real time    6.5320
    MIXING:  cpu time    0.0076: real time    0.0076
    --------------------------------------------
      LOOP:  cpu time  188.1915: real time  188.6358

 eigenvalue-minimisations  : 26880
 total energy-change (2. order) :-0.1156922E+02  (-0.1143486E+02)
 number of electron     911.9999979 magnetization     124.4323788
 augmentation part      303.5172199 magnetization      90.0598283

 Broyden mixing:
  rms(total) = 0.16490E+02    rms(broyden)= 0.16488E+02
  rms(prec ) = 0.18221E+02
  weight for this iteration     100.00

 Free energy of the ion-electron system (eV)
  ---------------------------------------------------
  alpha Z        PSCENC =      3046.18122208
  Ewald energy   TEWEN  =    -58194.73066588
  -Hartree energ DENC   =    -28144.16925268
  -exchange      EXHF   =         0.00000000
  -V(xc)+E(xc)   XCENC  =      3583.41341426
  PAW double counting   =     71080.72462945   -74396.17323249
  entropy T*S    EENTRO =        -0.22244079
  eigenvalues    EBANDS =      -661.79950842
  atomic energy  EATOM  =     82705.81968683
  Solvation  Ediel_sol  =         0.00000000
  ---------------------------------------------------
  free energy    TOTEN  =      -980.95614765 eV

  energy without entropy =     -980.73370686  energy(sigma->0) =     -980.84492725


--------------------------------------------------------------------------------------------------------




--------------------------------------- Iteration      1(   6)  ---------------------------------------


    POTLOK:  cpu time    0.3687: real time    0.3696
    SETDIJ:  cpu time    0.0622: real time    0.0623
     EDDAV:  cpu time  230.1287: real time  230.6721
    CHARGE:  cpu time    5.9224: real time    5.9364
    MIXING:  cpu time    0.0064: real time    0.0065
    --------------------------------------------
      LOOP:  cpu time  236.4884: real time  237.0468

 eigenvalue-minimisations  : 37136
 total energy-change (2. order) :-0.1332763E+03  (-0.1997951E+03)
 number of electron     911.9999991 magnetization     116.6202072
 augmentation part      393.5676332 magnetization     113.8005742

 Broyden mixing:
  rms(total) = 0.29873E+02    rms(broyden)= 0.29870E+02
  rms(prec ) = 0.32073E+02
  weight for this iteration     100.00

 eigenvalues of (default mixing * dielectric matrix)
  average eigenvalue GAMMA=   0.2377
  0.2377

 Free energy of the ion-electron system (eV)
  ---------------------------------------------------
  alpha Z        PSCENC =      3046.18122208
  Ewald energy   TEWEN  =    -58194.73066588
  -Hartree energ DENC   =    -26850.68779731
  -exchange      EXHF   =         0.00000000
  -V(xc)+E(xc)   XCENC  =      3611.79238053
  PAW double counting   =     76542.67066933   -79415.41400525
  entropy T*S    EENTRO =        -0.07369942
  eigenvalues    EBANDS =     -2559.79021739
  atomic energy  EATOM  =     82705.81968683
  Solvation  Ediel_sol  =         0.00000000
  ---------------------------------------------------
  free energy    TOTEN  =     -1114.23242649 eV

  energy without entropy =    -1114.15872707  energy(sigma->0) =    -1114.19557678


--------------------------------------------------------------------------------------------------------




--------------------------------------- Iteration      1(   7)  ---------------------------------------


    POTLOK:  cpu time    0.2987: real time    0.2994
    SETDIJ:  cpu time    0.0446: real time    0.0447
     EDDAV:  cpu time  196.3068: real time  196.7704
    CHARGE:  cpu time    5.9899: real time    6.0040
    MIXING:  cpu time    0.0066: real time    0.0066
    --------------------------------------------
      LOOP:  cpu time  202.6465: real time  203.1250

 eigenvalue-minimisations  : 33040
 total energy-change (2. order) : 0.3478881E+03  (-0.5088550E+02)
 number of electron     911.9999966 magnetization     108.4038579
 augmentation part      352.8135119 magnetization      93.8561426

 Broyden mixing:
  rms(total) = 0.12718E+02    rms(broyden)= 0.12716E+02
  rms(prec ) = 0.13882E+02
  weight for this iteration     100.00

 eigenvalues of (default mixing * dielectric matrix)
  average eigenvalue GAMMA=   0.4793
  0.4793  0.4793

 Free energy of the ion-electron system (eV)
  ---------------------------------------------------
  alpha Z        PSCENC =      3046.18122208
  Ewald energy   TEWEN  =    -58194.73066588
  -Hartree energ DENC   =    -27437.04868259
  -exchange      EXHF   =         0.00000000
  -V(xc)+E(xc)   XCENC  =      3579.39119739
  PAW double counting   =     79227.43353991   -82403.67752333
  entropy T*S    EENTRO =        -0.10868821
  eigenvalues    EBANDS =     -1289.60437163
  atomic energy  EATOM  =     82705.81968683
  Solvation  Ediel_sol  =         0.00000000
  ---------------------------------------------------
  free energy    TOTEN  =      -766.34428544 eV

  energy without entropy =     -766.23559723  energy(sigma->0) =     -766.28994134


--------------------------------------------------------------------------------------------------------




--------------------------------------- Iteration      1(   8)  ---------------------------------------


    POTLOK:  cpu time    0.2987: real time    0.2994
    SETDIJ:  cpu time    0.0443: real time    0.0444
     EDDAV:  cpu time  211.1011: real time  211.5995
    CHARGE:  cpu time    5.9699: real time    5.9840
    MIXING:  cpu time    0.0078: real time    0.0078
    --------------------------------------------
      LOOP:  cpu time  217.4217: real time  217.9350

 eigenvalue-minimisations  : 35920
 total energy-change (2. order) :-0.1530154E+03  (-0.2474686E+02)
 number of electron     911.9999997 magnetization     100.7889100
 augmentation part      349.6540495 magnetization      89.7983840

 Broyden mixing:
  rms(total) = 0.18144E+02    rms(broyden)= 0.18141E+02
  rms(prec ) = 0.22239E+02
  weight for this iteration     100.00

 eigenvalues of (default mixing * dielectric matrix)
  average eigenvalue GAMMA=   0.4444
  0.5829  0.5829  0.1674

 Free energy of the ion-electron system (eV)
  ---------------------------------------------------
  alpha Z        PSCENC =      3046.18122208
  Ewald energy   TEWEN  =    -58194.73066588
  -Hartree energ DENC   =    -27230.13396452
  -exchange      EXHF   =         0.00000000
  -V(xc)+E(xc)   XCENC  =      3560.14372071
  PAW double counting   =     81301.86386253   -84585.15687544
  entropy T*S    EENTRO =        -0.07315305
  eigenvalues    EBANDS =     -1523.27353248
  atomic energy  EATOM  =     82705.81968683
  Solvation  Ediel_sol  =         0.00000000
  ---------------------------------------------------
  free energy    TOTEN  =      -919.35969922 eV

  energy without entropy =     -919.28654617  energy(sigma->0) =     -919.32312270


--------------------------------------------------------------------------------------------------------




--------------------------------------- Iteration      1(   9)  ---------------------------------------


    POTLOK:  cpu time    0.2999: real time    0.3007
    SETDIJ:  cpu time    0.0438: real time    0.0439
     EDDAV:  cpu time  190.7222: real time  191.1726
    CHARGE:  cpu time    6.2362: real time    6.2510
    MIXING:  cpu time    0.0106: real time    0.0106
    --------------------------------------------
      LOOP:  cpu time  197.3128: real time  197.7788

 eigenvalue-minimisations  : 30752
 total energy-change (2. order) : 0.7522562E+02  (-0.4762876E+02)
 number of electron     911.9999988 magnetization      95.6127519
 augmentation part      341.5512946 magnetization      81.6210322

 Broyden mixing:
  rms(total) = 0.15455E+02    rms(broyden)= 0.15453E+02
  rms(prec ) = 0.19640E+02
  weight for this iteration     100.00

 eigenvalues of (default mixing * dielectric matrix)
  average eigenvalue GAMMA=   0.4194
  0.6557  0.6557  0.1831  0.1831

 Free energy of the ion-electron system (eV)
  ---------------------------------------------------
  alpha Z        PSCENC =      3046.18122208
  Ewald energy   TEWEN  =    -58194.73066588
  -Hartree energ DENC   =    -27239.39617016
  -exchange      EXHF   =         0.00000000
  -V(xc)+E(xc)   XCENC  =      3552.72601717
  PAW double counting   =     83145.76687755   -86494.86807335
  entropy T*S    EENTRO =        -0.11340650
  eigenvalues    EBANDS =     -1365.51956821
  atomic energy  EATOM  =     82705.81968683
  Solvation  Ediel_sol  =         0.00000000
  ---------------------------------------------------
  free energy    TOTEN  =      -844.13408048 eV

  energy without entropy =     -844.02067398  energy(sigma->0) =     -844.07737723


--------------------------------------------------------------------------------------------------------




--------------------------------------- Iteration      1(  10)  ---------------------------------------


    POTLOK:  cpu time    0.3858: real time    0.3868
    SETDIJ:  cpu time    0.0633: real time    0.0635
     EDDAV:  cpu time  190.9086: real time  191.3594
    CHARGE:  cpu time    5.9901: real time    6.0042
    MIXING:  cpu time    0.0083: real time    0.0083
    --------------------------------------------
      LOOP:  cpu time  197.3562: real time  197.8222

 eigenvalue-minimisations  : 31984
 total energy-change (2. order) : 0.3733994E+02  (-0.2505531E+02)
 number of electron     911.9999987 magnetization      91.2756851
 augmentation part      337.5110278 magnetization      71.9499348

 Broyden mixing:
  rms(total) = 0.13701E+02    rms(broyden)= 0.13699E+02
  rms(prec ) = 0.18469E+02
  weight for this iteration     100.00

 eigenvalues of (default mixing * dielectric matrix)
  average eigenvalue GAMMA=   0.3905
  0.7099  0.7099  0.2165  0.2165  0.0994

 Free energy of the ion-electron system (eV)
  ---------------------------------------------------
  alpha Z        PSCENC =      3046.18122208
  Ewald energy   TEWEN  =    -58194.73066588
  -Hartree energ DENC   =    -27219.74394193
  -exchange      EXHF   =         0.00000000
  -V(xc)+E(xc)   XCENC  =      3551.11819380
  PAW double counting   =     84237.73355545   -87607.65347435
  entropy T*S    EENTRO =        -0.13356115
  eigenvalues    EBANDS =     -1325.38515634
  atomic energy  EATOM  =     82705.81968683
  Solvation  Ediel_sol  =         0.00000000
  ---------------------------------------------------
  free energy    TOTEN  =      -806.79414149 eV

  energy without entropy =     -806.66058035  energy(sigma->0) =     -806.72736092


--------------------------------------------------------------------------------------------------------




--------------------------------------- Iteration      1(  11)  ---------------------------------------


    POTLOK:  cpu time    0.2991: real time    0.2998
    SETDIJ:  cpu time    0.0440: real time    0.0441
     EDDAV:  cpu time  186.1523: real time  186.5918
    CHARGE:  cpu time    6.0805: real time    6.0949
    MIXING:  cpu time    0.0083: real time    0.0083
    --------------------------------------------
      LOOP:  cpu time  192.5843: real time  193.0389

 eigenvalue-minimisations  : 29920
 total energy-change (2. order) : 0.2158674E+02  (-0.1323462E+02)
 number of electron     911.9999979 magnetization      86.7488859
 augmentation part      336.9985494 magnetization      67.1269253

 Broyden mixing:
  rms(total) = 0.13153E+02    rms(broyden)= 0.13151E+02
  rms(prec ) = 0.17300E+02
  weight for this iteration     100.00

 eigenvalues of (default mixing * dielectric matrix)
  average eigenvalue GAMMA=   0.3825
  1.0042  0.5866  0.2385  0.2385  0.1232  0.1041

 Free energy of the ion-electron system (eV)
  ---------------------------------------------------
  alpha Z        PSCENC =      3046.18122208
  Ewald energy   TEWEN  =    -58194.73066588
  -Hartree energ DENC   =    -27203.52782379
  -exchange      EXHF   =         0.00000000
  -V(xc)+E(xc)   XCENC  =      3551.09861897
  PAW double counting   =     85205.03255881   -88592.94224292
  entropy T*S    EENTRO =        -0.13123986
  eigenvalues    EBANDS =     -1302.00751219
  atomic energy  EATOM  =     82705.81968683
  Solvation  Ediel_sol  =         0.00000000
  ---------------------------------------------------
  free energy    TOTEN  =      -785.20739796 eV

  energy without entropy =     -785.07615810  energy(sigma->0) =     -785.14177803


--------------------------------------------------------------------------------------------------------




--------------------------------------- Iteration      1(  12)  ---------------------------------------


    POTLOK:  cpu time    0.2979: real time    0.2986
    SETDIJ:  cpu time    0.0440: real time    0.0441
     EDDAV:  cpu time  182.7213: real time  183.1527
    CHARGE:  cpu time    6.0541: real time    6.0684
    MIXING:  cpu time    0.0085: real time    0.0085
    --------------------------------------------
      LOOP:  cpu time  189.1258: real time  189.5724

 eigenvalue-minimisations  : 30592
 total energy-change (2. order) : 0.4473707E+02  (-0.8059620E+01)
 number of electron     911.9999980 magnetization      83.4727095
 augmentation part      339.5893222 magnetization      65.8494144

 Broyden mixing:
  rms(total) = 0.96916E+01    rms(broyden)= 0.96894E+01
  rms(prec ) = 0.13522E+02
  weight for this iteration     100.00

 eigenvalues of (default mixing * dielectric matrix)
  average eigenvalue GAMMA=   0.3869
  1.1518  0.5792  0.3150  0.3150  0.1356  0.1356  0.0764

 Free energy of the ion-electron system (eV)
  ---------------------------------------------------
  alpha Z        PSCENC =      3046.18122208
  Ewald energy   TEWEN  =    -58194.73066588
  -Hartree energ DENC   =    -27197.26147554
  -exchange      EXHF   =         0.00000000
  -V(xc)+E(xc)   XCENC  =      3551.02873417
  PAW double counting   =     86157.44226741   -89562.60779038
  entropy T*S    EENTRO =        -0.12165766
  eigenvalues    EBANDS =     -1246.22065015
  atomic energy  EATOM  =     82705.81968683
  Solvation  Ediel_sol  =         0.00000000
  ---------------------------------------------------
  free energy    TOTEN  =      -740.47032914 eV

  energy without entropy =     -740.34867148  energy(sigma->0) =     -740.40950031


--------------------------------------------------------------------------------------------------------




--------------------------------------- Iteration      1(  13)  ---------------------------------------


    POTLOK:  cpu time    0.3072: real time    0.3080
    SETDIJ:  cpu time    0.0440: real time    0.0441
     EDDAV:  cpu time  181.1765: real time  181.6042
    CHARGE:  cpu time    6.0639: real time    6.0782
    MIXING:  cpu time    0.0099: real time    0.0099
    --------------------------------------------
      LOOP:  cpu time  187.6016: real time  188.0445

 eigenvalue-minimisations  : 30832
 total energy-change (2. order) : 0.5966817E+01  (-0.7841570E+01)
 number of electron     911.9999988 magnetization      79.2984649
 augmentation part      339.3171115 magnetization      62.4050802

 Broyden mixing:
  rms(total) = 0.10420E+02    rms(broyden)= 0.10419E+02
  rms(prec ) = 0.13359E+02
  weight for this iteration     100.00

 eigenvalues of (default mixing * dielectric matrix)
  average eigenvalue GAMMA=   0.3851
  1.2927  0.5720  0.3805  0.3805  0.1479  0.1479  0.0855  0.0736

 Free energy of the ion-electron system (eV)
  ---------------------------------------------------
  alpha Z        PSCENC =      3046.18122208
  Ewald energy   TEWEN  =    -58194.73066588
  -Hartree energ DENC   =    -27195.82718898
  -exchange      EXHF   =         0.00000000
  -V(xc)+E(xc)   XCENC  =      3550.64768073
  PAW double counting   =     86644.50613690   -90055.25879466
  entropy T*S    EENTRO =        -0.11707895
  eigenvalues    EBANDS =     -1235.72450978
  atomic energy  EATOM  =     82705.81968683
  Solvation  Ediel_sol  =         0.00000000
  ---------------------------------------------------
  free energy    TOTEN  =      -734.50351171 eV

  energy without entropy =     -734.38643276  energy(sigma->0) =     -734.44497223


--------------------------------------------------------------------------------------------------------




--------------------------------------- Iteration      1(  14)  ---------------------------------------


    POTLOK:  cpu time    0.2995: real time    0.3002
    SETDIJ:  cpu time    0.0438: real time    0.0439
     EDDAV:  cpu time  189.8377: real time  190.2860
    CHARGE:  cpu time    6.1816: real time    6.1962
    MIXING:  cpu time    0.0096: real time    0.0096
    --------------------------------------------
      LOOP:  cpu time  196.3722: real time  196.8359

 eigenvalue-minimisations  : 32128
 total energy-change (2. order) : 0.1786079E+02  (-0.7148812E+01)
 number of electron     911.9999975 magnetization      76.7008352
 augmentation part      340.8737597 magnetization      58.8530437

 Broyden mixing:
  rms(total) = 0.71854E+01    rms(broyden)= 0.71840E+01
  rms(prec ) = 0.86308E+01
  weight for this iteration     100.00

 eigenvalues of (default mixing * dielectric matrix)
  average eigenvalue GAMMA=   0.3698
  1.3407  0.6045  0.3912  0.3912  0.1524  0.1524  0.1297  0.0831  0.0831

 Free energy of the ion-electron system (eV)
  ---------------------------------------------------
  alpha Z        PSCENC =      3046.18122208
  Ewald energy   TEWEN  =    -58194.73066588
  -Hartree energ DENC   =    -27219.99058173
  -exchange      EXHF   =         0.00000000
  -V(xc)+E(xc)   XCENC  =      3550.74687395
  PAW double counting   =     87200.56379172   -90621.55437865
  entropy T*S    EENTRO =        -0.13706316
  eigenvalues    EBANDS =     -1183.54160224
  atomic energy  EATOM  =     82705.81968683
  Solvation  Ediel_sol  =         0.00000000
  ---------------------------------------------------
  free energy    TOTEN  =      -716.64271708 eV

  energy without entropy =     -716.50565392  energy(sigma->0) =     -716.57418550


--------------------------------------------------------------------------------------------------------




--------------------------------------- Iteration      1(  15)  ---------------------------------------


    POTLOK:  cpu time    0.3040: real time    0.3047
    SETDIJ:  cpu time    0.0440: real time    0.0441
     EDDAV:  cpu time  181.7109: real time  182.1399
    CHARGE:  cpu time    6.1459: real time    6.1604
    MIXING:  cpu time    0.0101: real time    0.0101
    --------------------------------------------
      LOOP:  cpu time  188.2149: real time  188.6593

 eigenvalue-minimisations  : 29712
 total energy-change (2. order) : 0.1216090E+02  (-0.4209244E+01)
 number of electron     911.9999978 magnetization      74.0769733
 augmentation part      340.9442093 magnetization      56.0736295

 Broyden mixing:
  rms(total) = 0.38739E+01    rms(broyden)= 0.38721E+01
  rms(prec ) = 0.50020E+01
  weight for this iteration     100.00

 eigenvalues of (default mixing * dielectric matrix)
  average eigenvalue GAMMA=   0.3712
  1.2911  0.7178  0.4323  0.4323  0.2518  0.1517  0.1517  0.1274  0.0814  0.0744

 Free energy of the ion-electron system (eV)
  ---------------------------------------------------
  alpha Z        PSCENC =      3046.18122208
  Ewald energy   TEWEN  =    -58194.73066588
  -Hartree energ DENC   =    -27244.28901570
  -exchange      EXHF   =         0.00000000
  -V(xc)+E(xc)   XCENC  =      3550.49864123
  PAW double counting   =     87481.75984932   -90909.80333028
  entropy T*S    EENTRO =        -0.12103831
  eigenvalues    EBANDS =     -1139.79716470
  atomic energy  EATOM  =     82705.81968683
  Solvation  Ediel_sol  =         0.00000000
  ---------------------------------------------------
  free energy    TOTEN  =      -704.48181541 eV

  energy without entropy =     -704.36077710  energy(sigma->0) =     -704.42129625


--------------------------------------------------------------------------------------------------------




--------------------------------------- Iteration      1(  16)  ---------------------------------------


    POTLOK:  cpu time    0.2984: real time    0.2991
    SETDIJ:  cpu time    0.0441: real time    0.0442
     EDDAV:  cpu time  176.8416: real time  177.2591
    CHARGE:  cpu time    6.1104: real time    6.1248
    MIXING:  cpu time    0.0096: real time    0.0096
    --------------------------------------------
      LOOP:  cpu time  183.3041: real time  183.7369

 eigenvalue-minimisations  : 30128
 total energy-change (2. order) :-0.2478732E+01  (-0.2055031E+01)
 number of electron     911.9999978 magnetization      71.7932982
 augmentation part      338.3094966 magnetization      53.6020851

 Broyden mixing:
  rms(total) = 0.54517E+01    rms(broyden)= 0.54507E+01
  rms(prec ) = 0.65565E+01
  weight for this iteration     100.00

 eigenvalues of (default mixing * dielectric matrix)
  average eigenvalue GAMMA=   0.3625
  1.3221  0.7032  0.4802  0.4802  0.2866  0.1721  0.1466  0.1466  0.0872  0.0872
  0.0761

 Free energy of the ion-electron system (eV)
  ---------------------------------------------------
  alpha Z        PSCENC =      3046.18122208
  Ewald energy   TEWEN  =    -58194.73066588
  -Hartree energ DENC   =    -27280.63269361
  -exchange      EXHF   =         0.00000000
  -V(xc)+E(xc)   XCENC  =      3550.03811235
  PAW double counting   =     87630.61507342   -91063.36145905
  entropy T*S    EENTRO =        -0.13265134
  eigenvalues    EBANDS =     -1100.75717204
  atomic energy  EATOM  =     82705.81968683
  Solvation  Ediel_sol  =         0.00000000
  ---------------------------------------------------
  free energy    TOTEN  =      -706.96054725 eV

  energy without entropy =     -706.82789591  energy(sigma->0) =     -706.89422158


--------------------------------------------------------------------------------------------------------




--------------------------------------- Iteration      1(  17)  ---------------------------------------


    POTLOK:  cpu time    0.3030: real time    0.3037
    SETDIJ:  cpu time    0.0440: real time    0.0441
     EDDAV:  cpu time  180.8649: real time  181.2920
    CHARGE:  cpu time    5.8937: real time    5.9076
    MIXING:  cpu time    0.0111: real time    0.0112
    --------------------------------------------
      LOOP:  cpu time  187.1167: real time  187.5585

 eigenvalue-minimisations  : 31424
 total energy-change (2. order) :-0.3811525E+00  (-0.2784976E+01)
 number of electron     911.9999977 magnetization      69.3473213
 augmentation part      337.6655362 magnetization      52.3718599

 Broyden mixing:
  rms(total) = 0.39164E+01    rms(broyden)= 0.39157E+01
  rms(prec ) = 0.47575E+01
  weight for this iteration     100.00

 eigenvalues of (default mixing * dielectric matrix)
  average eigenvalue GAMMA=   0.3603
  1.4061  0.5511  0.5511  0.5072  0.4120  0.2540  0.1461  0.1461  0.1092  0.0839
  0.0839  0.0727

 Free energy of the ion-electron system (eV)
  ---------------------------------------------------
  alpha Z        PSCENC =      3046.18122208
  Ewald energy   TEWEN  =    -58194.73066588
  -Hartree energ DENC   =    -27303.40603753
  -exchange      EXHF   =         0.00000000
  -V(xc)+E(xc)   XCENC  =      3549.61816379
  PAW double counting   =     87811.16306599   -91247.59856384
  entropy T*S    EENTRO =        -0.12188128
  eigenvalues    EBANDS =     -1074.26668994
  atomic energy  EATOM  =     82705.81968683
  Solvation  Ediel_sol  =         0.00000000
  ---------------------------------------------------
  free energy    TOTEN  =      -707.34169979 eV

  energy without entropy =     -707.21981851  energy(sigma->0) =     -707.28075915


--------------------------------------------------------------------------------------------------------




--------------------------------------- Iteration      1(  18)  ---------------------------------------


    POTLOK:  cpu time    0.2994: real time    0.3001
    SETDIJ:  cpu time    0.0456: real time    0.0457
     EDDAV:  cpu time  165.6138: real time  166.0049
    CHARGE:  cpu time    5.9438: real time    5.9578
    MIXING:  cpu time    0.0109: real time    0.0109
    --------------------------------------------
      LOOP:  cpu time  171.9136: real time  172.3195

 eigenvalue-minimisations  : 28672
 total energy-change (2. order) : 0.1685656E+01  (-0.1349012E+01)
 number of electron     911.9999976 magnetization      66.7133361
 augmentation part      337.9918100 magnetization      50.3115983

 Broyden mixing:
  rms(total) = 0.26594E+01    rms(broyden)= 0.26587E+01
  rms(prec ) = 0.32327E+01
  weight for this iteration     100.00

 eigenvalues of (default mixing * dielectric matrix)
  average eigenvalue GAMMA=   0.3651
  1.4461  0.6513  0.6513  0.4632  0.4632  0.2833  0.1542  0.1542  0.1154  0.1154
  0.0945  0.0769  0.0769

 Free energy of the ion-electron system (eV)
  ---------------------------------------------------
  alpha Z        PSCENC =      3046.18122208
  Ewald energy   TEWEN  =    -58194.73066588
  -Hartree energ DENC   =    -27314.62232004
  -exchange      EXHF   =         0.00000000
  -V(xc)+E(xc)   XCENC  =      3549.32415578
  PAW double counting   =     88025.55909722   -91465.14427719
  entropy T*S    EENTRO =        -0.12416746
  eigenvalues    EBANDS =     -1057.91877515
  atomic energy  EATOM  =     82705.81968683
  Solvation  Ediel_sol  =         0.00000000
  ---------------------------------------------------
  free energy    TOTEN  =      -705.65604382 eV

  energy without entropy =     -705.53187635  energy(sigma->0) =     -705.59396009


--------------------------------------------------------------------------------------------------------




--------------------------------------- Iteration      1(  19)  ---------------------------------------


    POTLOK:  cpu time    0.3024: real time    0.3031
    SETDIJ:  cpu time    0.0428: real time    0.0429
     EDDAV:  cpu time  174.6683: real time  175.0807
    CHARGE:  cpu time    5.9149: real time    5.9288
    MIXING:  cpu time    0.0112: real time    0.0112
    --------------------------------------------
      LOOP:  cpu time  180.9396: real time  181.3668

 eigenvalue-minimisations  : 30624
 total energy-change (2. order) :-0.7779976E+00  (-0.6675265E+00)
 number of electron     911.9999974 magnetization      62.6126644
 augmentation part      337.9516354 magnetization      45.6975171

 Broyden mixing:
  rms(total) = 0.26698E+01    rms(broyden)= 0.26691E+01
  rms(prec ) = 0.31598E+01
  weight for this iteration     100.00

 eigenvalues of (default mixing * dielectric matrix)
  average eigenvalue GAMMA=   0.3804
  1.5377  0.7779  0.7779  0.4690  0.4690  0.3260  0.2024  0.1501  0.1501  0.1301
  0.0903  0.0903  0.0764  0.0780

 Free energy of the ion-electron system (eV)
  ---------------------------------------------------
  alpha Z        PSCENC =      3046.18122208
  Ewald energy   TEWEN  =    -58194.73066588
  -Hartree energ DENC   =    -27321.47152302
  -exchange      EXHF   =         0.00000000
  -V(xc)+E(xc)   XCENC  =      3548.91194998
  PAW double counting   =     88216.47199819   -91656.00876348
  entropy T*S    EENTRO =        -0.13082834
  eigenvalues    EBANDS =     -1051.47711783
  atomic energy  EATOM  =     82705.81968683
  Solvation  Ediel_sol  =         0.00000000
  ---------------------------------------------------
  free energy    TOTEN  =      -706.43404146 eV

  energy without entropy =     -706.30321313  energy(sigma->0) =     -706.36862730


--------------------------------------------------------------------------------------------------------




--------------------------------------- Iteration      1(  20)  ---------------------------------------


    POTLOK:  cpu time    0.2979: real time    0.2986
    SETDIJ:  cpu time    0.0429: real time    0.0430
     EDDAV:  cpu time  180.9106: real time  181.3378
    CHARGE:  cpu time    5.8295: real time    5.8433
    MIXING:  cpu time    0.0114: real time    0.0115
    --------------------------------------------
      LOOP:  cpu time  187.0923: real time  187.5341

 eigenvalue-minimisations  : 31952
 total energy-change (2. order) :-0.3015926E+01  (-0.8407062E+00)
 number of electron     911.9999976 magnetization      58.5553137
 augmentation part      338.2253861 magnetization      42.5166195

 Broyden mixing:
  rms(total) = 0.26692E+01    rms(broyden)= 0.26685E+01
  rms(prec ) = 0.31812E+01
  weight for this iteration     100.00

 eigenvalues of (default mixing * dielectric matrix)
  average eigenvalue GAMMA=   0.3926
  1.5981  0.8952  0.8952  0.5107  0.4134  0.4134  0.2731  0.1483  0.1483  0.1527
  0.1066  0.0911  0.0911  0.0760  0.0760

 Free energy of the ion-electron system (eV)
  ---------------------------------------------------
  alpha Z        PSCENC =      3046.18122208
  Ewald energy   TEWEN  =    -58194.73066588
  -Hartree energ DENC   =    -27334.02846193
  -exchange      EXHF   =         0.00000000
  -V(xc)+E(xc)   XCENC  =      3548.21289462
  PAW double counting   =     88519.94759900   -91960.21955536
  entropy T*S    EENTRO =        -0.11894981
  eigenvalues    EBANDS =     -1040.51373694
  atomic energy  EATOM  =     82705.81968683
  Solvation  Ediel_sol  =         0.00000000
  ---------------------------------------------------
  free energy    TOTEN  =      -709.44996740 eV

  energy without entropy =     -709.33101759  energy(sigma->0) =     -709.39049249


--------------------------------------------------------------------------------------------------------




--------------------------------------- Iteration      1(  21)  ---------------------------------------


    POTLOK:  cpu time    0.2934: real time    0.2941
    SETDIJ:  cpu time    0.0430: real time    0.0431
     EDDAV:  cpu time  179.9880: real time  180.4129
    CHARGE:  cpu time    5.8454: real time    5.8592
    MIXING:  cpu time    0.0121: real time    0.0121
    --------------------------------------------
[...]
      7.41533      1.43724      7.81783        -0.940041     -0.981048      1.547724
      7.32708      4.07477      9.05956        -1.214691     -2.126669      4.584559
      5.74885      0.95768      5.22541         0.462539     -1.269143     -0.951849
      5.80426      0.87677      1.87397         0.711634      0.888635      1.902935
      7.23605      3.89017     12.58832         0.256631      3.659317      4.707562
      7.24255      8.30034      0.58905         1.568455      1.543215      1.158509
      5.73142      6.21581     13.78062         0.296600      1.993821      3.401336
      7.37878      8.27788      6.78332        -1.506064      2.343723     -4.098959
      5.76881      6.12109      7.90382         0.255312      0.452797      0.238904
      5.84077      8.79967      9.15925         0.657722     -0.755410      1.418807
      7.26411      5.80346      5.32555        -0.981146     -0.641841     -2.125688
      7.37827      5.50815      1.94301        -1.769196      2.004360      2.504483
      5.73465      8.83345     12.79006         0.578575      0.447023     -3.720778
      0.04804      9.56382      7.25498        -0.157063      0.232047      0.265585
      0.07473      0.05602      0.05737        -0.639473     -0.460844      0.415350
      1.33332      0.38465     12.28018         0.113123     -1.499639      0.016587
      0.13246      4.51745      2.45094        -0.217447     -0.186125     -1.936969
      0.04152      4.61986      4.96606        -0.357954      0.253183      1.984363
      1.41077      0.26960      9.67138         0.520220     -0.015484     -1.044506
      8.66350      2.70885     13.56557        -0.149370     -0.229172      0.024228
      1.50297      2.10704      1.15644        -0.650372      0.187132     -1.309342
      1.31095      1.98191      6.20380         0.316856      0.941864      0.891113
      0.27550      2.92154      8.66823        -1.759880     -1.263845     -1.444506
      1.50845      3.10480     11.03928         0.311654     -1.267862     -4.115116
      8.58882      1.40986      3.68657        -0.253782      1.345002     -2.026404
      1.55477      4.92380      7.44333        -0.092982     -0.592582     -0.438629
      1.52795      4.88791     14.47123        -0.978653     -0.047098     -0.137417
      8.69532      5.04332     12.25674        -0.417909      0.519089      1.170107
      1.64168      9.41940      2.32066        -1.506748     -0.247428     -1.718227
      1.38201      9.65866      4.80699         1.438477     -1.271053      2.139749
      8.61558      5.25605      9.49624         0.640199     -0.854818      1.541897
      1.37198      7.62458     13.52351         0.322060     -0.121735     -0.085003
      0.06826      6.90049      1.20327        -0.716394      0.240727     -0.676353
      8.58729      6.89435      6.06068         0.783365     -0.082112      0.645959
      1.48418      7.53852      8.32106         0.249678      0.519318     -0.245455
      0.00315      7.90838     10.88197        -0.169059      1.522387     -0.284064
      1.42022      6.49232      3.54354         0.454341      1.744934      5.569719
      2.96409      0.09329      7.32041        -0.733920     -0.098659      0.242883
      2.94105      0.00500     14.42040        -0.033986      0.070638      0.382147
      4.17148      0.34410     12.15487         0.831519     -0.490286      1.904433
      2.82374      4.56697      2.24784         0.047995      0.740985     -2.114554
      2.82283      4.45477      5.00906        -0.512096      0.226372      0.663868
      4.50088      0.13841      9.54672        -1.288664      1.672621     -0.970245
      2.99889      2.74683     13.38885        -0.473081     -0.977434      0.917296
      4.35737      2.17371      1.22954         0.329439     -0.481784     -1.765311
      4.19430      2.04668      6.18800         0.767218      1.034884     -0.392448
      2.94606      2.74486      8.45738         0.277306     -0.430525     -1.066571
      4.44241      3.20336     11.18943         0.129514     -0.973033     -4.805815
      2.83532      1.66011      3.49898         0.203219      0.224523      1.318804
      4.41372      4.87732      7.27259         0.369808     -0.583340     -0.751630
      4.23950      5.04971      0.04187         0.655751     -0.005504     -0.159167
      2.98535      5.02698     12.32705        -0.859257      0.463090      0.706161
      4.40422      9.57088      2.34184        -0.636160     -0.996022     -1.509897
      4.46115      9.24291      4.98454        -1.044670      1.632174      1.965217
      2.91152      5.15188      9.54275        -0.065214      0.722890      0.541348
      4.32281      7.70400     13.40641         0.083517     -0.364231      0.954835
      2.97673      7.05551      1.09249        -0.548468      0.227187     -0.292375
      2.91686      6.74836      6.09967        -0.101866      1.526173      0.283102
      4.46356      7.51068      8.21059         0.488803     -0.465710      2.866882
      2.99995      7.88106     11.06747        -0.086249      0.888733     -0.699798
      4.35059      6.41916      3.57517         0.087508     -0.157529      0.295950
      5.66120      9.61713      7.25970         1.055143     -0.125534      0.186109
      5.89598      0.10109     14.50176        -0.471105      0.080606      0.373033
      7.34012      0.30053     12.39487        -1.172190     -0.849628     -0.609979
      5.81309      4.60004      2.28506        -0.219975     -0.301530     -1.691112
      5.71818      4.45201      5.05466         0.366791      1.552413      0.246725
      7.18604      0.20932      9.54996         1.033275      1.034464     -1.254247
      5.85270      2.78555     13.37927        -0.411771     -0.179163      1.046686
      7.24180      2.18935      1.06381        -0.337966     -1.202678     -0.095270
      7.35387      2.14917      6.06089        -0.622145      0.131561      0.809826
      5.86932      2.69204      8.57442         0.264306      0.765812     -1.749344
      7.24187      3.31077     11.16203        -0.169756     -2.287877     -6.873763
      5.86622      1.75040      3.61068        -0.113137     -1.077038     -0.477710
      7.27206      4.93759      7.49269        -0.541939      0.180842     -2.267683
      7.38423      4.77639      0.13229         0.216593      0.209106     -0.546964
      5.73941      5.34774     12.41860         0.043548     -3.200225     -2.435714
      7.31141      9.28021      2.34974        -0.745577      0.872187     -2.570418
      7.19308      9.32674      4.99588         0.524579      0.782325      2.024481
      5.64558      5.17042      9.60937         0.663097      0.077805     -1.504130
      7.34575      7.51407     13.40033        -0.181856     -0.013575      0.600199
      5.94057      7.11091      0.96024        -1.113373     -1.060564     -0.310025
      5.86157      7.08663      6.09080         0.500996     -1.158964      1.285847
      7.35575      7.54883      8.37808        -1.109075      0.418692      1.789357
      5.68317      8.14533     10.83208         0.420480     -0.253831      0.798536
      6.92728      6.40026      3.56258         1.039718     -0.870848     -0.284285
 -----------------------------------------------------------------------------------
    total drift:                               -0.014950     -0.017277     -0.010108


--------------------------------------------------------------------------------------------------------



  FREE ENERGIE OF THE ION-ELECTRON SYSTEM (eV)
  ---------------------------------------------------
  free  energy   TOTEN  =      -722.4203828623 eV

  energy  without entropy=     -722.3172495061  energy(sigma->0) =     -722.36881618
 


--------------------------------------------------------------------------------------------------------


    POTLOK:  cpu time    0.3463: real time    0.3730


--------------------------------------------------------------------------------------------------------


     LOOP+:  cpu time15653.5375: real time15690.9780
    4ORBIT:  cpu time    0.0000: real time    0.0000

volume of typ            1:    24.8 %

volume of typ            2:     9.5 %
 
total charge     
 
# of ion       s       p       d       tot
------------------------------------------
    1        0.225   0.257   7.903   8.385
    2        0.238   0.269   7.882   8.390
    3        0.201   0.209   7.917   8.328
    4        0.217   0.234   7.898   8.349
    5        0.263   0.332   7.863   8.459
    6        0.281   0.358   7.848   8.487
    7        0.229   0.260   7.855   8.344
    8        0.300   0.352   7.885   8.536
    9        0.225   0.252   7.907   8.385
   10        0.216   0.242   7.909   8.367
   11        0.196   0.190   7.910   8.296
   12        0.270   0.330   7.913   8.513
   13        0.259   0.293   7.840   8.392
   14        0.245   0.288   7.850   8.384
   15        0.299   0.373   7.875   8.547
   16        0.257   0.296   7.833   8.386
   17        0.227   0.258   7.904   8.389
   18        0.219   0.234   7.897   8.350
   19        0.224   0.244   7.918   8.386
   20        0.229   0.264   7.898   8.391
   21        0.258   0.290   7.869   8.417
   22        0.238   0.271   7.852   8.361
   23        0.270   0.331   7.829   8.430
   24        0.303   0.382   7.869   8.554
   25        0.217   0.232   7.892   8.340
   26        0.225   0.258   7.888   8.371
   27        0.255   0.315   7.915   8.485
   28        0.239   0.289   7.917   8.446
   29        0.231   0.236   7.853   8.320
   30        0.253   0.294   7.848   8.395
   31        0.243   0.286   7.843   8.372
   32        0.256   0.307   7.838   8.401
   33        0.224   0.246   7.908   8.379
   34        0.247   0.295   7.911   8.453
   35        0.225   0.236   7.950   8.411
   36        0.202   0.195   7.926   8.323
   37        0.248   0.296   7.887   8.431
   38        0.239   0.256   7.828   8.324
   39        0.244   0.276   7.850   8.370
   40        0.308   0.377   7.893   8.578
   41        0.235   0.261   7.913   8.408
   42        0.263   0.317   7.929   8.509
   43        0.245   0.295   7.901   8.440
   44        0.236   0.275   7.920   8.432
   45        0.285   0.348   7.870   8.503
   46        0.245   0.275   7.835   8.355
   47        0.262   0.304   7.855   8.421
   48        0.220   0.245   7.872   8.337
   49        1.282   2.728   0.006   4.016
   50        1.284   2.729   0.006   4.019
   51        1.286   2.699   0.008   3.993
   52        1.292   2.682   0.008   3.981
   53        1.287   2.677   0.006   3.969
   54        1.285   2.694   0.007   3.987
   55        1.275   2.751   0.007   4.033
   56        1.270   2.732   0.005   4.007
   57        1.272   2.746   0.007   4.024
   58        1.272   2.750   0.008   4.030
   59        1.290   2.728   0.012   4.030
   60        1.290   2.679   0.007   3.976
   61        1.293   2.683   0.004   3.981
   62        1.278   2.749   0.008   4.035
   63        1.284   2.711   0.008   4.002
   64        1.292   2.676   0.007   3.975
   65        1.291   2.686   0.007   3.984
   66        1.289   2.723   0.010   4.022
   67        1.266   2.749   0.006   4.021
   68        1.272   2.756   0.008   4.035
   69        1.274   2.737   0.006   4.017
   70        1.280   2.684   0.003   3.967
   71        1.292   2.657   0.006   3.954
   72        1.292   2.721   0.012   4.025
   73        1.280   2.736   0.007   4.022
   74        1.286   2.705   0.005   3.996
   75        1.293   2.669   0.006   3.967
   76        1.293   2.656   0.005   3.953
   77        1.285   2.713   0.009   4.006
   78        1.284   2.724   0.009   4.018
   79        1.277   2.736   0.007   4.020
   80        1.278   2.697   0.004   3.979
   81        1.269   2.752   0.008   4.029
   82        1.270   2.733   0.006   4.009
   83        1.296   2.692   0.010   3.998
   84        1.295   2.648   0.006   3.949
   85        1.289   2.728   0.008   4.025
   86        1.285   2.723   0.006   4.014
   87        1.286   2.693   0.006   3.985
   88        1.287   2.698   0.008   3.993
   89        1.295   2.642   0.005   3.941
   90        1.278   2.750   0.011   4.039
   91        1.273   2.745   0.007   4.025
   92        1.272   2.742   0.006   4.020
   93        1.265   2.764   0.007   4.036
   94        1.264   2.813   0.012   4.089
   95        1.289   2.672   0.007   3.968
   96        1.289   2.662   0.006   3.956
   97        1.285   2.729   0.007   4.022
   98        1.277   2.751   0.007   4.036
   99        1.280   2.735   0.009   4.025
  100        1.290   2.682   0.007   3.979
  101        1.286   2.697   0.008   3.991
  102        1.284   2.704   0.008   3.996
  103        1.271   2.751   0.006   4.028
  104        1.265   2.764   0.007   4.037
  105        1.266   2.750   0.007   4.023
  106        1.271   2.703   0.004   3.978
  107        1.299   2.704   0.012   4.015
  108        1.294   2.648   0.005   3.947
  109        1.278   2.779   0.011   4.067
  110        1.277   2.753   0.007   4.037
  111        1.291   2.722   0.011   4.024
  112        1.294   2.650   0.005   3.949
  113        1.295   2.644   0.004   3.944
  114        1.287   2.684   0.006   3.977
  115        1.273   2.731   0.006   4.009
  116        1.270   2.752   0.008   4.030
  117        1.282   2.694   0.004   3.980
  118        1.269   2.790   0.011   4.070
  119        1.293   2.642   0.004   3.940
  120        1.298   2.629   0.005   3.932
--------------------------------------------------
tot         104.07  208.83  378.88  691.79
 
magnetization (x)
 
# of ion       s       p       d       tot
------------------------------------------
    1        0.002  -0.000   0.676   0.678
    2       -0.005  -0.002  -0.896  -0.903
    3        0.003   0.002   0.900   0.905
    4        0.005   0.002   0.725   0.731
    5        0.000   0.002   0.108   0.110
    6       -0.002   0.002   0.376   0.377
    7        0.000   0.003   0.490   0.492
    8        0.001   0.003   0.353   0.357
    9        0.001   0.001   0.353   0.355
   10       -0.000   0.002  -0.806  -0.804
   11       -0.004   0.000  -0.965  -0.968
   12       -0.000   0.002   0.035   0.037
   13       -0.002   0.001   0.125   0.124
   14       -0.002   0.001   0.264   0.263
   15        0.000   0.012   0.835   0.848
   16       -0.000   0.008   0.572   0.580
   17       -0.001   0.001   0.267   0.267
   18       -0.000   0.001   0.050   0.050
   19        0.001   0.001   0.024   0.026
   20        0.001   0.001   0.489   0.490
   21        0.001   0.009   0.370   0.380
   22       -0.001   0.003   0.511   0.514
   23       -0.001   0.005   0.355   0.360
   24       -0.000   0.006   0.559   0.565
   25        0.003   0.003   0.862   0.868
   26       -0.001   0.002  -0.740  -0.739
   27       -0.002  -0.000  -0.446  -0.448
   28       -0.000  -0.000  -0.300  -0.300
   29        0.001   0.012   1.051   1.064
   30       -0.001   0.001   0.178   0.178
   31       -0.000   0.003   0.522   0.525
   32       -0.001   0.000   0.286   0.286
   33        0.002   0.001   0.581   0.584
   34       -0.002   0.003  -0.491  -0.490
   35       -0.001   0.000   0.045   0.044
   36        0.007   0.001   0.969   0.976
   37       -0.001  -0.001  -0.084  -0.086
   38       -0.001   0.014   0.922   0.935
   39       -0.001   0.007   0.165   0.171
   40        0.004   0.009   0.795   0.808
   41       -0.002  -0.002  -0.255  -0.260
   42       -0.005   0.002  -0.431  -0.434
   43       -0.001   0.000  -0.360  -0.360
   44        0.000   0.001  -0.331  -0.330
   45       -0.001   0.002   0.102   0.103
   46       -0.002   0.005   0.543   0.546
   47       -0.002   0.003   0.099   0.100
   48       -0.001  -0.001   0.780   0.778
   49        0.001  -0.012   0.000  -0.011
   50       -0.003  -0.033  -0.000  -0.036
   51        0.000  -0.075   0.000  -0.075
   52        0.006   0.127   0.000   0.133
   53        0.005   0.104   0.000   0.109
   54        0.006   0.160   0.000   0.165
   55       -0.002  -0.018  -0.000  -0.019
   56        0.003   0.002   0.000   0.006
   57        0.007   0.035   0.000   0.042
   58        0.005   0.061   0.000   0.066
   59        0.005   0.206   0.000   0.211
   60        0.013   0.516  -0.000   0.529
   61       -0.000  -0.001   0.000  -0.001
   62       -0.004   0.004  -0.000  -0.000
   63        0.002   0.052  -0.000   0.053
   64        0.005   0.164  -0.000   0.169
   65        0.002  -0.013  -0.000  -0.011
   66        0.001   0.048  -0.000   0.049
   67       -0.004  -0.042  -0.000  -0.047
   68       -0.000   0.002   0.000   0.002
   69       -0.001  -0.028  -0.000  -0.028
   70       -0.001  -0.018  -0.000  -0.019
   71        0.007   0.337  -0.000   0.344
   72        0.011   0.478   0.000   0.489
   73        0.001  -0.014   0.000  -0.013
   74        0.001  -0.014   0.000  -0.012
   75        0.004   0.098   0.000   0.103
   76        0.007   0.206   0.000   0.212
   77        0.002  -0.003   0.000  -0.001
   78        0.005   0.086   0.000   0.092
   79        0.002  -0.001   0.000   0.001
   80        0.004  -0.022   0.000  -0.017
   81        0.004   0.019   0.000   0.022
   82        0.004   0.023   0.000   0.027
   83        0.010   0.450  -0.000   0.460
   84        0.012   0.521   0.000   0.533
   85       -0.001  -0.023   0.000  -0.024
   86       -0.001  -0.018  -0.000  -0.020
   87        0.002   0.035   0.000   0.037
   88        0.004   0.111  -0.000   0.115
   89        0.005   0.195   0.000   0.201
   90        0.001   0.071  -0.000   0.072
   91        0.001  -0.025   0.000  -0.024
   92        0.005   0.058   0.000   0.062
   93       -0.005  -0.037   0.000  -0.041
   94       -0.004  -0.011  -0.000  -0.015
   95        0.010   0.434  -0.000   0.444
   96        0.009   0.397  -0.000   0.405
   97       -0.000  -0.007   0.000  -0.007
   98        0.003  -0.016   0.000  -0.012
   99        0.003   0.022   0.000   0.026
  100        0.003   0.049   0.000   0.052
  101        0.002   0.031  -0.000   0.033
  102        0.003   0.026   0.000   0.029
  103        0.000  -0.014  -0.000  -0.014
  104        0.008   0.039   0.000   0.047
  105        0.008   0.088   0.000   0.096
  106        0.005   0.014   0.000   0.019
  107        0.009   0.493   0.000   0.503
  108        0.011   0.524   0.000   0.535
  109        0.002  -0.010   0.000  -0.008
  110        0.003   0.007   0.000   0.010
  111        0.003   0.071  -0.000   0.074
  112        0.003   0.077  -0.000   0.080
  113        0.005   0.173   0.000   0.179
  114        0.001   0.043  -0.000   0.044
  115        0.000  -0.026   0.000  -0.026
  116        0.004   0.006   0.000   0.010
  117       -0.002  -0.027  -0.000  -0.029
  118       -0.003  -0.024  -0.000  -0.027
  119        0.011   0.457  -0.000   0.468
  120        0.010   0.447  -0.000   0.457
--------------------------------------------------
tot           0.23    7.16   10.23   17.63
 

 total amount of memory used by VASP MPI-rank0   564591. kBytes
=======================================================================

   base      :      30000. kBytes
   nonlr-proj:      62127. kBytes
   fftplans  :      10454. kBytes
   grid      :      60014. kBytes
   one-center:       3732. kBytes
   wavefun   :     398264. kBytes
 
  
  
 General timing and accounting informations for this job:
 ========================================================
  
                  Total CPU time used (sec):    15826.049
                            User time (sec):    15801.906
                          System time (sec):       24.143
                         Elapsed time (sec):    15868.094
  
                   Maximum memory used (kb):      668784.
                   Average memory used (kb):           0.
  
                          Minor page faults:        44475
                          Major page faults:           26
                 Voluntary context switches:         1172
