 vasp.5.4.4.18Apr17-6-g9f103f2a35 (build May 12 2020 04:58:55) complex          
  
 MD_VERSION_INFO: Compiled 2020-05-12T11:58:55-UTC in devlin.sd.materialsdesign.
 com:/home/medea2/data/build/wwolf/vasp-gpu5.4.4/13047/x86_64/src/src/build/std 
 from svn 13047
 
 This VASP executable licensed from Materials Design, Inc.
 
 executed on                        Lin64 date 2023.03.25  06:42:28
 running on   16 total cores
 distrk:  each k-point on   16 cores,    1 groups
 distr:  one band on NCORES_PER_BAND=   1 cores,   16 groups


--------------------------------------------------------------------------------------------------------


 INCAR:
 POTCAR:    PAW_PBE Ni 02Aug2007                  
 POTCAR:    PAW_PBE O 08Apr2002                   

 ----------------------------------------------------------------------------- 
|                                                                             |
|           W    W    AA    RRRRR   N    N  II  N    N   GGGG   !!!           |
|           W    W   A  A   R    R  NN   N  II  NN   N  G    G  !!!           |
|           W    W  A    A  R    R  N N  N  II  N N  N  G       !!!           |
|           W WW W  AAAAAA  RRRRR   N  N N  II  N  N N  G  GGG   !            |
|           WW  WW  A    A  R   R   N   NN  II  N   NN  G    G                |
|           W    W  A    A  R    R  N    N  II  N    N   GGGG   !!!           |
|                                                                             |
|      For optimal performance we recommend to set                            |
|        NCORE= 4 - approx SQRT( number of cores)                             |
|      NCORE specifies how many cores store one orbital (NPAR=cpu/NCORE).     |
|      This setting can  greatly improve the performance of VASP for DFT.     |
|      The default,   NCORE=1            might be grossly inefficient         |
|      on modern multi-core architectures or massively parallel machines.     |
|      Do your own testing !!!!                                               |
|      Unfortunately you need to use the default for GW and RPA calculations. |
|      (for HF NCORE is supported but not extensively tested yet)             |
|                                                                             |
 ----------------------------------------------------------------------------- 

 POTCAR:    PAW_PBE Ni 02Aug2007                  
  local pseudopotential read in
  partial core-charges read in
  partial kinetic energy density read in
  atomic valenz-charges read in
  non local Contribution for L=           2  read in
    real space projection operators read in
  non local Contribution for L=           2  read in
    real space projection operators read in
  non local Contribution for L=           0  read in
    real space projection operators read in
  non local Contribution for L=           0  read in
    real space projection operators read in
  non local Contribution for L=           1  read in
    real space projection operators read in
  non local Contribution for L=           1  read in
    real space projection operators read in
    PAW grid and wavefunctions read in
 
   number of l-projection  operators is LMAX  =           6
   number of lm-projection operators is LMMAX =          18
 
 POTCAR:    PAW_PBE O 08Apr2002                   
  local pseudopotential read in
  partial core-charges read in
  partial kinetic energy density read in
  kinetic energy density of atom read in
  atomic valenz-charges read in
  non local Contribution for L=           0  read in
    real space projection operators read in
  non local Contribution for L=           0  read in
    real space projection operators read in
  non local Contribution for L=           1  read in
    real space projection operators read in
  non local Contribution for L=           1  read in
    real space projection operators read in
    PAW grid and wavefunctions read in
 
   number of l-projection  operators is LMAX  =           4
   number of lm-projection operators is LMMAX =           8
 
 Optimization of the real space projectors (new method)

 maximal supplied QI-value         = 16.25
 optimisation between [QCUT,QGAM] = [ 11.38, 22.75] = [ 36.24,144.96] Ry 
 Optimized for a Real-space Cutoff    1.47 Angstroem

   l    n(q)    QCUT    max X(q) W(low)/X(q) W(high)/X(q)  e(spline) 
   2      9    11.376    60.317    0.17E-03    0.16E-04    0.16E-06
   2      9    11.376    55.921    0.17E-03    0.16E-04    0.17E-06
   0     10    11.376    51.690    0.45E-04    0.60E-04    0.21E-06
   0     10    11.376    30.015    0.37E-04    0.55E-04    0.19E-06
   1     10    11.376    18.849    0.83E-04    0.11E-03    0.92E-07
   1     10    11.376    14.624    0.69E-04    0.92E-04    0.82E-07
 Optimization of the real space projectors (new method)

 maximal supplied QI-value         = 24.76
 optimisation between [QCUT,QGAM] = [ 11.39, 22.77] = [ 36.31,145.25] Ry 
 Optimized for a Real-space Cutoff    1.10 Angstroem

   l    n(q)    QCUT    max X(q) W(low)/X(q) W(high)/X(q)  e(spline) 
   0      7    11.387    20.381    0.22E-03    0.48E-03    0.18E-06
   0      7    11.387    15.268    0.22E-03    0.52E-03    0.19E-06
   1      7    11.387     5.964    0.22E-03    0.73E-03    0.24E-06
   1      7    11.387     5.382    0.19E-03    0.60E-03    0.21E-06

 ----------------------------------------------------------------------------- 
|                                                                             |
|  ADVICE TO THIS USER RUNNING 'VASP/VAMP'   (HEAR YOUR MASTER'S VOICE ...):  |
|                                                                             |
|      You enforced a specific xc-type in the INCAR file,                     |
|      a different type was found on the POTCAR file                          |
|          I HOPE YOU KNOW, WHAT YOU ARE  DOING                               |
|                                                                             |
 ----------------------------------------------------------------------------- 

  PAW_PBE Ni 02Aug2007                  :
 energy of atom  1       EATOM=-1077.6739
 kinetic energy error for atom=    0.0030 (will be added to EATOM!!)
  PAW_PBE O 08Apr2002                   :
 energy of atom  2       EATOM= -432.3788
 kinetic energy error for atom=    0.0224 (will be added to EATOM!!)
 
 
 POSCAR: Ni2O3_Cmcm_scale_1_000_disp_0_05_round_1
  positions in direct lattice
  No initial velocities read in
 exchange correlation table for  LEXCH =       14
   RHO(1)=    0.500       N(1)  =     2000
   RHO(2)=  100.500       N(2)  =     4000
 


--------------------------------------------------------------------------------------------------------


 ion  position               nearest neighbor table
   1  0.001  0.355  0.045-  55 1.91  56 1.99  52 2.01 104 2.07  62 2.18 110 2.23   7 2.74  17 2.86
                            33 2.91  34 2.94   2 2.96   8 2.97  15 3.03  10 3.05  40 3.09
   2  0.167  0.130  0.951-  51 1.83  50 1.94  74 2.04  56 2.05  55 2.14  79 2.22  16 2.82  34 2.92
                             9 2.92  18 2.93   8 2.94  32 2.95   1 2.96  17 3.02   7 3.08
   3  0.995  0.366  0.451-  53 1.85 109 2.02  58 2.06 105 2.08  61 2.08  57 2.13  35 2.83  14 2.93
                             6 2.97  46 2.99  12 3.02  36 3.02  19 3.03   5 3.06   4 3.07
   4  0.167  0.133  0.548-  54 1.84  57 2.01  73 2.02  49 2.05  58 2.06  82 2.09  20 2.88   5 2.89
                            36 2.93  13 2.94  29 2.99  11 3.04   3 3.07
   5  0.162  0.401  0.634-  59 1.87  66 1.94  90 2.00  58 2.02  82 2.03  61 2.21  37 2.83   4 2.89
                            21 2.96  12 2.96  28 3.01   3 3.06
   6  0.011  0.093  0.360-  60 1.73  65 1.85 113 1.97  57 2.04 105 2.21  49 2.25  22 2.81   3 2.97
                            11 3.04  38 3.05  43 3.07
   7  0.994  0.107  0.135-  60 1.83 112 1.99  64 2.00  56 2.02 104 2.03  50 2.17   1 2.74  39 2.85
                            34 2.99  23 2.99  41 3.00   9 3.07   2 3.08
   8  0.166  0.407  0.870-  59 1.88  63 1.92  87 1.96  79 2.03  62 2.04  55 2.18  24 2.85  26 2.88
                            40 2.92  10 2.93   2 2.94   1 2.97  17 2.99
   9  0.171  0.867  0.047-  64 1.89  67 1.94  74 2.04  68 2.04  50 2.06  92 2.12  25 2.83   2 2.92
                            15 2.93  23 2.93  26 2.96  41 3.02  10 3.03   7 3.07  16 3.08
  10  0.997  0.637  0.952-  63 1.91  68 1.98 110 2.03  62 2.08 115 2.11  67 2.15  26 2.87  42 2.87
                             8 2.93  16 2.99  40 3.02   9 3.03   1 3.05  41 3.06  15 3.07
  11  0.159  0.851  0.458-  70 1.81  69 1.92  65 1.97  93 2.03  49 2.08  73 2.26  43 2.76  12 2.77
                            14 2.88  28 2.91  13 2.92  27 2.93   6 3.04   4 3.04
  12  0.006  0.640  0.549-  66 1.93  69 1.98  70 2.00 118 2.02  61 2.14 109 2.19  11 2.77  13 2.80
                            43 2.87  28 2.87  44 2.94   5 2.96  37 2.99   3 3.02  14 3.08
  13  0.001  0.900  0.631-  71 1.87 102 1.97 118 1.97  54 1.98  70 2.02  49 2.13  12 2.80  45 2.90
                            43 2.91  11 2.92   4 2.94  29 2.96  36 2.97
  14  0.163  0.591  0.362-  72 1.81  53 1.92  77 1.95  69 2.05  93 2.09  61 2.17  11 2.88  46 2.90
                             3 2.93  19 2.93  30 2.95  12 3.08
  15  0.159  0.597  0.137-  72 1.78  52 1.93  76 1.99  68 2.02  92 2.05  62 2.27  47 2.91   9 2.93
                            31 2.99  17 3.00   1 3.03  26 3.05  10 3.07
  16  0.009  0.915  0.862-  71 1.83  51 1.87  99 1.90  67 2.06 115 2.20  50 2.23   2 2.82  32 2.84
                            34 2.93  10 2.99  48 3.02   9 3.08
  17  0.329  0.364  0.048-  76 1.83  79 1.91  56 2.05  80 2.07  62 2.10  86 2.15   1 2.86  33 2.94
                            26 2.96   8 2.99  23 3.00  15 3.00   2 3.02  31 3.03  18 3.03  24 3.08
  18  0.504  0.137  0.950-  75 1.85  80 1.94 103 1.98  79 2.12  74 2.13  98 2.14  24 2.85  34 2.86
                            48 2.91   2 2.93  33 2.95  32 3.00  25 3.03  17 3.03  39 3.05
  19  0.343  0.373  0.450-  77 1.83  85 2.00  61 2.03  82 2.08  81 2.15  57 2.19  30 2.75  35 2.84
                            14 2.93  28 2.94  20 2.96  22 2.97  21 2.99   3 3.03
  20  0.498  0.148  0.552-  78 1.96  81 1.98  82 2.00 106 2.02  73 2.10  97 2.19  21 2.79   4 2.88
                            36 2.90  35 2.94  19 2.96  29 3.01  45 3.02  27 3.08
  21  0.501  0.410  0.631-  83 1.91  90 1.94 114 2.01  82 2.06  85 2.07 106 2.08  20 2.79  44 2.82
                            28 2.89  37 2.92   5 2.96  19 2.99  35 3.04
  22  0.333  0.100  0.358-  84 1.78  65 1.84  89 2.01  57 2.06  81 2.07  73 2.27   6 2.81  38 2.86
                            19 2.97  27 3.02
  23  0.337  0.089  0.142-  84 1.76  64 1.82  88 1.91  80 2.17  56 2.18  74 2.30  39 2.88  25 2.90
                             9 2.93   7 2.99  17 3.00
  24  0.494  0.400  0.862-  83 1.77  87 1.87 111 1.88  79 1.93 103 2.15  86 2.18  18 2.85   8 2.85
                            40 2.94  42 3.00  26 3.02  17 3.08  33 3.08
  25  0.496  0.865  0.051-  88 1.83  91 2.05  98 2.06 116 2.07  74 2.08  92 2.11  31 2.83   9 2.83
                            41 2.86  23 2.90  39 2.91  26 3.03  18 3.03  42 3.08
  26  0.326  0.634  0.955-  87 1.92  62 1.96  92 1.97  67 2.08  86 2.13  91 2.18  10 2.87   8 2.88
                             9 2.96  32 2.96  17 2.96  42 2.97  24 3.02  25 3.03  31 3.05  15 3.05
  27  0.494  0.867  0.455-  89 1.91  94 1.98  73 2.06  97 2.06  93 2.09 117 2.10  11 2.93  28 2.96
                            38 2.99  45 2.99  30 3.00  22 3.02  43 3.03  29 3.03  20 3.08
  28  0.336  0.637  0.549-  90 1.77  94 2.04  93 2.08  70 2.08  85 2.10  61 2.14  12 2.87  21 2.89
                            44 2.90  11 2.91  29 2.93  19 2.94  27 2.96   5 3.01  30 3.03
  29  0.341  0.906  0.640-  95 1.74  78 1.82  54 2.05  94 2.11  70 2.16  73 2.25  45 2.85  28 2.93
                            13 2.96   4 2.99  20 3.01  27 3.03
  30  0.501  0.586  0.369-  77 1.81 101 1.91  96 1.95 117 1.96  85 2.11  93 2.11  19 2.75  46 2.87
                            35 2.89  14 2.95  27 3.00  44 3.02  28 3.03
  31  0.502  0.601  0.134-  96 1.84 100 1.93 116 1.99  92 1.99  76 2.01  86 2.24  47 2.81  25 2.83
                            15 2.99  42 3.01  33 3.02  17 3.03  26 3.05
  32  0.334  0.904  0.860-  95 1.82  51 1.91  75 1.96  67 2.04  91 2.07  74 2.17  16 2.84  48 2.86
                             2 2.95  26 2.96  18 3.00
  33  0.666  0.361  0.045- 100 1.90 104 1.98  80 2.03 103 2.03  86 2.06 110 2.14   1 2.91  39 2.92
                            42 2.92  17 2.94  18 2.95  47 2.97  34 2.97  31 3.02  40 3.07  24 3.08
  34  0.832  0.132  0.954-  99 1.86  55 1.98 103 2.02 104 2.04  50 2.08  98 2.10  18 2.86   2 2.92
                            41 2.92  16 2.93   1 2.94  40 2.94  48 2.95  33 2.97   7 2.99  39 3.00
  35  0.669  0.360  0.451- 101 1.86 105 1.98 109 2.05  81 2.08  85 2.10 106 2.10   3 2.83  19 2.84
                            38 2.85  30 2.89  44 2.93  20 2.94  36 2.97  46 3.02  21 3.04
  36  0.830  0.133  0.547- 102 1.84 106 2.04 105 2.05  97 2.07  58 2.08  49 2.10  45 2.90  20 2.90
                             4 2.93  35 2.97  13 2.97  43 2.98  37 2.98   3 3.02  38 3.07
  37  0.837  0.408  0.638- 107 1.77 114 1.89  66 1.90 106 2.07  58 2.11 109 2.22   5 2.83  44 2.87
                            21 2.92  36 2.98  12 2.99
  38  0.661  0.098  0.364- 108 1.81 113 1.92  89 1.93  81 1.95 105 2.04  97 2.27  35 2.85  22 2.86
                            27 2.99   6 3.05  36 3.07
  39  0.667  0.091  0.133- 108 1.87  88 1.89 112 1.91 104 2.02  98 2.08  80 2.11  41 2.82   7 2.85
                            23 2.88  25 2.91  33 2.92  34 3.00  18 3.05
  40  0.831  0.401  0.861- 107 1.79 111 1.85  63 1.93  55 2.05 103 2.08 110 2.26   8 2.92  24 2.94
                            34 2.94  42 2.96  10 3.02  33 3.07   1 3.09
  41  0.824  0.868  0.052- 112 1.77  98 1.97 116 2.04 115 2.05  68 2.15  50 2.25  39 2.82  25 2.86
                            47 2.91  34 2.92   7 3.00   9 3.02  42 3.05  10 3.06
  42  0.667  0.629  0.953- 111 1.91 110 1.93  86 2.00 116 2.10 115 2.11  91 2.13  10 2.87  33 2.92
                            40 2.96  26 2.97  24 3.00  47 3.01  31 3.01  48 3.02  41 3.05  25 3.08
  43  0.842  0.857  0.458- 118 1.95  69 2.03 113 2.04  49 2.07  97 2.15 117 2.22  11 2.76  46 2.84
                            12 2.87  13 2.91  45 2.97  36 2.98  44 3.01  27 3.03   6 3.07
  44  0.669  0.625  0.548- 114 1.78  85 2.01 109 2.03 117 2.07  94 2.09 118 2.16  21 2.82  37 2.87
                            28 2.90  35 2.93  12 2.94  45 2.96  43 3.01  30 3.02  46 3.06
  45  0.668  0.904  0.630- 119 1.91 102 1.94  78 1.99  94 2.04  97 2.05 118 2.07  29 2.85  36 2.90
                            13 2.90  44 2.96  43 2.97  27 2.99  20 3.02
  46  0.830  0.602  0.363- 120 1.80 101 1.93  53 1.97 117 2.05  69 2.09 109 2.22  43 2.84  30 2.87
                            14 2.90   3 2.99  35 3.02  44 3.06
  47  0.825  0.596  0.136- 120 1.84 100 1.92 116 2.01  52 2.02 110 2.17  68 2.19  31 2.81  15 2.91
                            41 2.91  33 2.97  42 3.01
  48  0.662  0.909  0.862- 119 1.85  75 1.88  99 1.93  91 2.02 115 2.06  98 2.24  32 2.86  18 2.91
                            34 2.95  16 3.02  42 3.02
  49  0.003  1.000  0.501-   4 2.05  43 2.07  11 2.08  36 2.10  13 2.13   6 2.25
  50  0.012  0.009  0.002-   2 1.94   9 2.06  34 2.08   7 2.17  16 2.23  41 2.25
  51  0.173  0.035  0.843-   2 1.83  16 1.87  32 1.91
  52  0.999  0.464  0.162-  15 1.93   1 2.01  47 2.02
  53  0.995  0.466  0.343-   3 1.85  14 1.92  46 1.97
  54  0.162  0.040  0.658-   4 1.84  13 1.98  29 2.05
  55  0.987  0.275  0.926-   1 1.91  34 1.98  40 2.05   2 2.14   8 2.18
  56  0.164  0.221  0.078-   1 1.99   7 2.02  17 2.05   2 2.05  23 2.18
  57  0.168  0.216  0.423-   4 2.01   6 2.04  22 2.06   3 2.13  19 2.19
  58  0.001  0.276  0.579-   5 2.02   4 2.06   3 2.06  36 2.08  37 2.11
  59  0.167  0.327  0.752-   5 1.87   8 1.88
  60  0.999  0.169  0.253-   6 1.73   7 1.83
  61  0.170  0.495  0.496-  19 2.03   3 2.08  28 2.14  12 2.14  14 2.17   5 2.21
  62  0.169  0.503  0.994-  26 1.96   8 2.04  10 2.08  17 2.10   1 2.18  15 2.27
  63  0.998  0.529  0.843-  10 1.91   8 1.92  40 1.93
  64  0.170  0.978  0.154-  23 1.82   9 1.89   7 2.00
  65  0.176  0.974  0.351-  22 1.84   6 1.85  11 1.97
  66  0.001  0.534  0.660-  37 1.90  12 1.93   5 1.94
  67  0.169  0.790  0.924-   9 1.94  32 2.04  16 2.06  26 2.08  10 2.15
  68  0.006  0.723  0.075-  10 1.98  15 2.02   9 2.04  41 2.15  47 2.19
  69  0.005  0.718  0.423-  11 1.92  12 1.98  43 2.03  14 2.05  46 2.09
  70  0.166  0.783  0.573-  11 1.81  12 2.00  13 2.02  28 2.08  29 2.16
  71  0.008  0.830  0.751-  16 1.83  13 1.87
  72  0.162  0.669  0.249-  15 1.78  14 1.81
  73  0.335  0.009  0.501-   4 2.02  27 2.06  20 2.10  29 2.25  11 2.26  22 2.27
  74  0.332  0.997  0.996-   9 2.04   2 2.04  25 2.08  18 2.13  32 2.17  23 2.30
  75  0.502  0.035  0.842-  18 1.85  48 1.88  32 1.96
  76  0.331  0.465  0.153-  17 1.83  15 1.99  31 2.01
  77  0.342  0.473  0.344-  30 1.81  19 1.83  14 1.95
  78  0.494  0.030  0.660-  29 1.82  20 1.96  45 1.99
  79  0.339  0.294  0.926-  17 1.91  24 1.93   8 2.03  18 2.12   2 2.22
  80  0.501  0.220  0.071-  18 1.94  33 2.03  17 2.07  39 2.11  23 2.17
  81  0.505  0.211  0.422-  38 1.95  20 1.98  22 2.07  35 2.08  19 2.15
  82  0.331  0.283  0.580-  20 2.00   5 2.03  21 2.06  19 2.08   4 2.09
  83  0.505  0.329  0.750-  24 1.77  21 1.91
  84  0.338  0.177  0.247-  23 1.76  22 1.78
  85  0.504  0.499  0.502-  19 2.00  44 2.01  21 2.07  35 2.10  28 2.10  30 2.11
  86  0.505  0.498  0.997-  42 2.00  33 2.06  26 2.13  17 2.15  24 2.18  31 2.24
  87  0.339  0.530  0.843-  24 1.87  26 1.92   8 1.96
  88  0.505  0.965  0.157-  25 1.83  39 1.89  23 1.91
  89  0.503  0.963  0.341-  27 1.91  38 1.93  22 2.01
  90  0.333  0.536  0.651-  28 1.77  21 1.94   5 2.00
  91  0.504  0.784  0.921-  48 2.02  25 2.05  32 2.07  42 2.13  26 2.18
  92  0.332  0.711  0.080-  26 1.97  31 1.99  15 2.05  25 2.11   9 2.12
  93  0.329  0.721  0.418-  11 2.03  28 2.08  27 2.09  14 2.09  30 2.11
  94  0.505  0.777  0.577-  27 1.98  45 2.04  28 2.04  44 2.09  29 2.11
  95  0.337  0.826  0.747-  29 1.74  32 1.82
  96  0.500  0.677  0.250-  31 1.84  30 1.95
  97  0.665  0.995  0.504-  45 2.05  27 2.06  36 2.07  43 2.15  20 2.19  38 2.27
  98  0.666  0.995  0.005-  41 1.97  25 2.06  39 2.08  34 2.10  18 2.14  48 2.24
  99  0.836  0.031  0.846-  34 1.86  16 1.90  48 1.93
 100  0.662  0.467  0.155-  33 1.90  47 1.92  31 1.93
 101  0.671  0.467  0.345-  35 1.86  30 1.91  46 1.93
 102  0.834  0.032  0.654-  36 1.84  45 1.94  13 1.97
 103  0.669  0.270  0.920-  18 1.98  34 2.02  33 2.03  40 2.08  24 2.15
 104  0.823  0.223  0.080-  33 1.98  39 2.02   7 2.03  34 2.04   1 2.07
 105  0.827  0.221  0.420-  35 1.98  38 2.04  36 2.05   3 2.08   6 2.21
 106  0.672  0.277  0.584-  20 2.02  36 2.04  37 2.07  21 2.08  35 2.10
 107  0.839  0.331  0.748-  37 1.77  40 1.79
 108  0.656  0.172  0.249-  38 1.81  39 1.87
 109  0.832  0.497  0.498-   3 2.02  44 2.03  35 2.05  12 2.19  46 2.22  37 2.22
 110  0.829  0.510  0.998-  42 1.93  10 2.03  33 2.14  47 2.17   1 2.23  40 2.26
 111  0.663  0.517  0.846-  40 1.85  24 1.88  42 1.91
 112  0.832  0.965  0.154-  41 1.77  39 1.91   7 1.99
 113  0.829  0.975  0.342-  38 1.92   6 1.97  43 2.04
 114  0.677  0.538  0.656-  44 1.78  37 1.89  21 2.01
 115  0.827  0.785  0.922-  41 2.05  48 2.06  42 2.11  10 2.11  16 2.20
 116  0.665  0.722  0.083-  31 1.99  47 2.01  41 2.04  25 2.07  42 2.10
 117  0.654  0.713  0.419-  30 1.96  46 2.05  44 2.07  27 2.10  43 2.22
 118  0.841  0.778  0.581-  43 1.95  13 1.97  12 2.02  45 2.07  44 2.16
 119  0.676  0.823  0.750-  48 1.85  45 1.91
 120  0.834  0.677  0.250-  46 1.80  47 1.84
 
  LATTYP: Found a simple orthorhombic cell.
 ALAT       =     8.7082700000
 B/A-ratio  =     1.1146370060
 C/A-ratio  =     1.6738812646
  
  Lattice vectors:
  
 A1 = (   8.7082700000,   0.0000000000,   0.0000000000)
 A2 = (   0.0000000000,   9.7065600000,   0.0000000000)
 A3 = (   0.0000000000,   0.0000000000,  14.5766100000)


Analysis of symmetry for initial positions (statically):
=====================================================================
 Subroutine PRICEL returns:
 Original cell was already a primitive cell.
 

 Routine SETGRP: Setting up the symmetry group for a 
 simple orthorhombic supercell.


 Subroutine GETGRP returns: Found  1 space group operations
 (whereof  1 operations were pure point group operations)
 out of a pool of  8 trial point group operations.


The static configuration has the point symmetry C_1 .


Analysis of symmetry for dynamics (positions and initial velocities):
=====================================================================
 Subroutine PRICEL returns:
 Original cell was already a primitive cell.
 

 Routine SETGRP: Setting up the symmetry group for a 
 simple orthorhombic supercell.


 Subroutine GETGRP returns: Found  1 space group operations
 (whereof  1 operations were pure point group operations)
 out of a pool of  8 trial point group operations.


The dynamic configuration has the point symmetry C_1 .


Analysis of structural, dynamic, and magnetic symmetry:
=====================================================================
 Subroutine PRICEL returns:
 Original cell was already a primitive cell.
 

 Routine SETGRP: Setting up the symmetry group for a 
 simple orthorhombic supercell.


 Subroutine GETGRP returns: Found  1 space group operations
 (whereof  1 operations were pure point group operations)
 out of a pool of  8 trial point group operations.


The magnetic configuration has the point symmetry C_1 .


 Subroutine INISYM returns: Found  1 space group operations
 (whereof  1 operations are pure point group operations),
 and found     1 'primitive' translations

 
 
 KPOINTS: Automatic mesh                          

Automatic generation of k-mesh.
Space group operators:
 irot       det(A)        alpha          n_x          n_y          n_z        tau_x        tau_y        tau_z
    1     1.000000     0.000001     1.000000     0.000000     0.000000     0.000000     0.000000     0.000000
 
 Subroutine IBZKPT returns following result:
 ===========================================
 
 Found     10 irreducible k-points:
 
 Following reciprocal coordinates:
            Coordinates               Weight
  0.000000  0.000000  0.000000      1.000000
  0.333333  0.000000  0.000000      2.000000
  0.000000  0.333333  0.000000      2.000000
  0.333333  0.333333  0.000000      2.000000
 -0.333333  0.333333  0.000000      2.000000
  0.000000  0.000000  0.500000      1.000000
  0.333333  0.000000  0.500000      2.000000
  0.000000  0.333333  0.500000      2.000000
  0.333333  0.333333  0.500000      2.000000
 -0.333333  0.333333  0.500000      2.000000
 
 Following cartesian coordinates:
            Coordinates               Weight
  0.000000  0.000000  0.000000      1.000000
  0.038278  0.000000  0.000000      2.000000
  0.000000  0.034341  0.000000      2.000000
  0.038278  0.034341  0.000000      2.000000
 -0.038278  0.034341  0.000000      2.000000
  0.000000  0.000000  0.034302      1.000000
  0.038278  0.000000  0.034302      2.000000
  0.000000  0.034341  0.034302      2.000000
  0.038278  0.034341  0.034302      2.000000
 -0.038278  0.034341  0.034302      2.000000
 


--------------------------------------------------------------------------------------------------------




 Dimension of arrays:
   k-points           NKPTS =     10   k-points in BZ     NKDIM =     10   number of bands    NBANDS=    608
   number of dos      NEDOS =    301   number of ions     NIONS =    120
   non local maximal  LDIM  =      6   non local SUM 2l+1 LMDIM =     18
   total plane-waves  NPLWV = 497664
   max r-space proj   IRMAX =   5472   max aug-charges    IRDMAX=  13291
   dimension x,y,z NGX =    64 NGY =   72 NGZ =  108
   dimension x,y,z NGXF=   128 NGYF=  144 NGZF=  216
   support grid    NGXF=   128 NGYF=  144 NGZF=  216
   ions per type =              48  72
   NGX,Y,Z   is equivalent  to a cutoff of  12.22, 12.33, 12.32 a.u.
   NGXF,Y,Z  is equivalent  to a cutoff of  24.44, 24.66, 24.63 a.u.

 SYSTEM =  unknown system                          
 POSCAR =  Ni2O3_Cmcm_scale_1_000_disp_0_05_round_1

 Startparameter for this run:
   NWRITE =      1    write-flag & timer
   PREC   = accura    normal or accurate (medium, high low for compatibility)
   ISTART =      0    job   : 0-new  1-cont  2-samecut
   ICHARG =      2    charge: 1-file 2-atom 10-const
   ISPIN  =      2    spin polarized calculation?
   LNONCOLLINEAR =      F non collinear calculations
   LSORBIT =      F    spin-orbit coupling
   INIWAV =      1    electr: 0-lowe 1-rand  2-diag
   LASPH  =      F    aspherical Exc in radial PAW
   METAGGA=      F    non-selfconsistent MetaGGA calc.

 Electronic Relaxation 1
   ENCUT  =  500.0 eV  36.75 Ry    6.06 a.u.  15.88 17.70 26.58*2*pi/ulx,y,z
   ENINI  =  500.0     initial cutoff
   ENAUG  =  605.4 eV  augmentation charge cutoff
   NELM   =     80;   NELMIN=  2; NELMDL= -5     # of ELM steps 
   EDIFF  = 0.1E-04   stopping-criterion for ELM
   LREAL  =      T    real-space projection
   NLSPLINE    = F    spline interpolate recip. space projectors
   LCOMPAT=      F    compatible to vasp.4.4
   GGA_COMPAT  = T    GGA compatible to vasp.4.4-vasp.4.6
   LMAXPAW     = -100 max onsite density
   LMAXMIX     =    2 max onsite mixed and CHGCAR
   VOSKOWN=      1    Vosko Wilk Nusair interpolation
   ROPT   =   -0.00025  -0.00025
 Ionic relaxation
   EDIFFG = 0.1E-03   stopping-criterion for IOM
   NSW    =      0    number of steps for IOM
   NBLOCK =      1;   KBLOCK =      1    inner block; outer block 
   IBRION =     -1    ionic relax: 0-MD 1-quasi-New 2-CG
   NFREE  =      0    steps in history (QN), initial steepest desc. (CG)
   ISIF   =      2    stress and relaxation
   IWAVPR =     10    prediction:  0-non 1-charg 2-wave 3-comb
   ISYM   =      2    0-nonsym 1-usesym 2-fastsym
   LCORR  =      T    Harris-Foulkes like correction to forces

   POTIM  = 0.5000    time-step for ionic-motion
   TEIN   =    0.0    initial temperature
   TEBEG  =    0.0;   TEEND  =   0.0 temperature during run
   SMASS  =  -3.00    Nose mass-parameter (am)
   estimated Nose-frequenzy (Omega)   =  0.10E-29 period in steps =****** mass=  -0.173E-26a.u.
   SCALEE = 1.0000    scale energy and forces
   NPACO  =    256;   APACO  = 16.0  distance and # of slots for P.C.
   PSTRESS=    0.0 pullay stress

  Mass of Ions in am
   POMASS =  58.69 16.00
  Ionic Valenz
   ZVAL   =  10.00  6.00
  Atomic Wigner-Seitz radii
   RWIGS  =   1.15  0.73
  virtual crystal weights 
   VCA    =   1.00  1.00
   NELECT =     912.0000    total number of electrons
   NUPDOWN=      -1.0000    fix difference up-down

 DOS related values:
   EMIN   =  10.00;   EMAX   =-10.00  energy-range for DOS
   EFERMI =   0.00
   ISMEAR =     0;   SIGMA  =   0.05  broadening in eV -4-tet -1-fermi 0-gaus

 Electronic relaxation 2 (details)
   IALGO  =     38    algorithm
   LDIAG  =      T    sub-space diagonalisation (order eigenvalues)
   LSUBROT=      F    optimize rotation matrix (better conditioning)
   TURBO    =      0    0=normal 1=particle mesh
   IRESTART =      0    0=no restart 2=restart with 2 vectors
   NREBOOT  =      0    no. of reboots
   NMIN     =      0    reboot dimension
   EREF     =   0.00    reference energy to select bands
   IMIX   =      4    mixing-type and parameters
     AMIX     =   0.40;   BMIX     =  1.00
     AMIX_MAG =   1.60;   BMIX_MAG =  1.00
     AMIN     =   0.10
     WC   =   100.;   INIMIX=   1;  MIXPRE=   1;  MAXMIX= -45

 Intra band minimization:
   WEIMIN = 0.0000     energy-eigenvalue tresh-hold
   EBREAK =  0.41E-08  absolut break condition
   DEPER  =   0.30     relativ break condition  

   TIME   =   0.40     timestep for ELM

  volume/ion in A,a.u.               =      10.27        69.29
  Fermi-wavevector in a.u.,A,eV,Ry     =   1.480887  2.798470 29.837925  2.193026
  Thomas-Fermi vector in A             =   2.594865
 
 Write flags
   LWAVE        =      F    write WAVECAR
   LDOWNSAMPLE  =      F    k-point downsampling of WAVECAR
   LCHARG       =      T    write CHGCAR
   LVTOT        =      F    write LOCPOT, total local potential
   LVHAR        =      F    write LOCPOT, Hartree potential only
   LELF         =      F    write electronic localiz. function (ELF)
   LORBIT       =      0    0 simple, 1 ext, 2 COOP (PROOUT), +10 PAW based schemes


 Dipole corrections
   LMONO  =      F    monopole corrections only (constant potential shift)
   LDIPOL =      F    correct potential (dipole corrections)
   IDIPOL =      0    1-x, 2-y, 3-z, 4-all directions 
   EPSILON=  1.0000000 bulk dielectric constant

 Exchange correlation treatment:
   GGA     =    PS    GGA type
   LEXCH   =    14    internal setting for exchange type
   VOSKOWN=      1    Vosko Wilk Nusair interpolation
   LHFCALC =     F    Hartree Fock is set to
   LHFONE  =     F    Hartree Fock one center treatment
   AEXX    =    0.0000 exact exchange contribution

 Linear response parameters
   LEPSILON=     F    determine dielectric tensor
   LRPA    =     F    only Hartree local field effects (RPA)
   LNABLA  =     F    use nabla operator in PAW spheres
   LVEL    =     F    velocity operator in full k-point grid
   LINTERFAST=   F  fast interpolation
   KINTER  =     0    interpolate to denser k-point grid
   CSHIFT  =0.1000    complex shift for real part using Kramers Kronig
   OMEGAMAX=  -1.0    maximum frequency
   DEG_THRESHOLD= 0.2000000E-02 threshold for treating states as degnerate
   RTIME   =   -0.100 relaxation time in fs
  (WPLASMAI=    0.000 imaginary part of plasma frequency in eV, 0.658/RTIME)
   DFIELD  = 0.0000000 0.0000000 0.0000000 field for delta impulse in time
 
 Orbital magnetization related:
   ORBITALMAG=     F  switch on orbital magnetization
   LCHIMAG   =     F  perturbation theory with respect to B field
   DQ        =  0.001000  dq finite difference perturbation B field
   LLRAUG    =     F  two centre corrections for induced B field



--------------------------------------------------------------------------------------------------------


 Static calculation
 charge density and potential will be updated during run
 spin polarized calculation
 Variant of blocked Davidson
 Davidson routine will perform the subspace rotation
 perform sub-space diagonalisation
    after iterative eigenvector-optimisation
 modified Broyden-mixing scheme, WC =      100.0
 initial mixing is a Kerker type mixing with AMIX =  0.4000 and BMIX =      1.0000
 Hartree-type preconditioning will be used
 using additional bands          152
 real space projection scheme for non local part
 use partial core corrections
 calculate Harris-corrections to forces 
   (improved forces if not selfconsistent)
 use gradient corrections 
 use of overlap-Matrix (Vanderbilt PP)
 Gauss-broadening in eV      SIGMA  =   0.05


--------------------------------------------------------------------------------------------------------


  energy-cutoff  :      500.00
  volume of cell :     1232.12
      direct lattice vectors                 reciprocal lattice vectors
     8.708270000  0.000000000  0.000000000     0.114833371  0.000000000  0.000000000
     0.000000000  9.706560000  0.000000000     0.000000000  0.103023110  0.000000000
     0.000000000  0.000000000 14.576610000     0.000000000  0.000000000  0.068603057

  length of vectors
     8.708270000  9.706560000 14.576610000     0.114833371  0.103023110  0.068603057


 
 k-points in units of 2pi/SCALE and weight: Automatic mesh                          
   0.00000000  0.00000000  0.00000000       0.056
   0.03827779  0.00000000  0.00000000       0.111
   0.00000000  0.03434104  0.00000000       0.111
   0.03827779  0.03434104  0.00000000       0.111
  -0.03827779  0.03434104  0.00000000       0.111
   0.00000000  0.00000000  0.03430153       0.056
   0.03827779  0.00000000  0.03430153       0.111
   0.00000000  0.03434104  0.03430153       0.111
   0.03827779  0.03434104  0.03430153       0.111
  -0.03827779  0.03434104  0.03430153       0.111
 
 k-points in reciprocal lattice and weights: Automatic mesh                          
   0.00000000  0.00000000  0.00000000       0.056
   0.33333333  0.00000000  0.00000000       0.111
   0.00000000  0.33333333  0.00000000       0.111
   0.33333333  0.33333333  0.00000000       0.111
  -0.33333333  0.33333333  0.00000000       0.111
   0.00000000  0.00000000  0.50000000       0.056
   0.33333333  0.00000000  0.50000000       0.111
   0.00000000  0.33333333  0.50000000       0.111
   0.33333333  0.33333333  0.50000000       0.111
  -0.33333333  0.33333333  0.50000000       0.111
 
 position of ions in fractional coordinates (direct lattice) 
   0.00073464  0.35548660  0.04471088
   0.16705085  0.13027577  0.95111861
   0.99489596  0.36592996  0.45055082
   0.16735179  0.13274128  0.54844232
   0.16185042  0.40079146  0.63419511
   0.01081997  0.09258449  0.35965038
   0.99379809  0.10719311  0.13461460
   0.16615669  0.40744348  0.87016030
   0.17078083  0.86675272  0.04747287
   0.99675915  0.63736212  0.95208907
   0.15860395  0.85055092  0.45761845
   0.00619955  0.63998002  0.54865861
   0.00134090  0.90046270  0.63131569
   0.16263223  0.59069091  0.36174157
   0.15898665  0.59696616  0.13720998
   0.00885959  0.91464475  0.86243714
   0.32907053  0.36351464  0.04816530
   0.50360468  0.13721147  0.94981350
   0.34322843  0.37294403  0.45049392
   0.49808710  0.14825683  0.55182278
   0.50126647  0.40974631  0.63070065
   0.33322126  0.10046915  0.35801967
   0.33664029  0.08868854  0.14158240
   0.49355036  0.39977692  0.86249383
   0.49612176  0.86461216  0.05104182
   0.32603978  0.63444085  0.95480563
   0.49418876  0.86677193  0.45476540
   0.33603813  0.63659651  0.54916906
   0.34102354  0.90561346  0.63960132
   0.50127477  0.58588676  0.36929366
   0.50220487  0.60104705  0.13420414
   0.33420972  0.90392956  0.86038155
   0.66627782  0.36140096  0.04549004
   0.83200134  0.13163424  0.95435706
   0.66945879  0.36044865  0.45105214
   0.83047589  0.13306496  0.54719634
   0.83678769  0.40829691  0.63806457
   0.66115537  0.09824571  0.36358870
   0.66664985  0.09093416  0.13265222
   0.83079463  0.40103599  0.86148558
   0.82440973  0.86815804  0.05155620
   0.66699485  0.62909654  0.95347144
   0.84181938  0.85737380  0.45805980
   0.66925540  0.62506255  0.54837119
   0.66783229  0.90423661  0.63011372
   0.83023449  0.60237593  0.36254935
   0.82470983  0.59604427  0.13553837
   0.66232166  0.90860768  0.86221433
   0.00315025  0.99957183  0.50106014
   0.01154325  0.00862669  0.00172603
   0.17256818  0.03502199  0.84279076
   0.99873068  0.46449242  0.16183780
   0.99459687  0.46600060  0.34268895
   0.16168866  0.03975226  0.65845546
   0.98705900  0.27508914  0.92561067
   0.16360473  0.22057944  0.07825107
   0.16760939  0.21629867  0.42251484
   0.00058654  0.27595703  0.57855394
   0.16728363  0.32696999  0.75247408
   0.99939789  0.16939626  0.25313352
   0.16959406  0.49459942  0.49631825
   0.16897585  0.50334836  0.99448065
   0.99812772  0.52892044  0.84268183
   0.16981776  0.97755058  0.15380281
   0.17582057  0.97392482  0.35121575
   0.00068633  0.53353319  0.66028626
   0.16930097  0.78966979  0.92438987
   0.00638959  0.72284989  0.07508052
   0.00541136  0.71757704  0.42305717
   0.16642383  0.78346552  0.57312774
   0.00751365  0.82998023  0.75058808
   0.16158450  0.66932224  0.24915949
   0.33542993  0.00855274  0.50102190
   0.33224692  0.99725125  0.99594811
   0.50198267  0.03542589  0.84240190
   0.33144222  0.46541932  0.15340024
   0.34156251  0.47254295  0.34379450
   0.49378130  0.02955008  0.66022884
   0.33908181  0.29407924  0.92565848
   0.50086322  0.21977882  0.07122457
   0.50483676  0.21106137  0.42234876
   0.33140229  0.28294473  0.57980548
   0.50496527  0.32894924  0.75048288
   0.33766025  0.17714387  0.24736164
   0.50439830  0.49861184  0.50169350
   0.50471540  0.49844875  0.99678431
   0.33925054  0.53024322  0.84332200
   0.50515568  0.96528789  0.15685868
   0.50261301  0.96288063  0.34078329
   0.33298873  0.53644876  0.65079650
   0.50355923  0.78432480  0.92074107
   0.33209833  0.71100784  0.07969771
   0.32948445  0.72075067  0.41810138
   0.50507467  0.77669946  0.57681969
   0.33743849  0.82596243  0.74676630
   0.49974774  0.67672749  0.24961808
   0.66465805  0.99517891  0.50350112
   0.66614762  0.99488740  0.00502492
   0.83557782  0.03067217  0.84603107
   0.66169815  0.46681295  0.15538507
   0.67142732  0.46677321  0.34482813
   0.83415238  0.03213775  0.65437656
   0.66915615  0.27020728  0.91999603
   0.82331570  0.22318144  0.07997187
   0.82719270  0.22117324  0.41954636
   0.67205272  0.27739272  0.58413209
   0.83889584  0.33087046  0.74837053
   0.65640692  0.17165259  0.24928404
   0.83170367  0.49657392  0.49757303
   0.82852792  0.51049784  0.99827038
   0.66344886  0.51688014  0.84593974
   0.83212478  0.96520201  0.15420199
   0.82934720  0.97467990  0.34182493
   0.67704849  0.53800379  0.65600510
   0.82668162  0.78522758  0.92212054
   0.66486670  0.72241245  0.08307928
   0.65432500  0.71324806  0.41946374
   0.84100302  0.77837519  0.58113681
   0.67550254  0.82257209  0.74960999
   0.83382159  0.67677636  0.24956081
 
 position of ions in cartesian coordinates  (Angst):
   0.00639744  3.45055201  0.65173306
   1.45472391  1.26452958 13.86408504
   8.66382264  3.55192111  6.56750359
   1.45734457  1.28846120  7.99442981
   1.40943716  3.89030635  9.24441478
   0.09422322  0.89867691  5.24248333
   8.65426209  1.04047635  1.96222452
   1.44693732  3.95487459 12.68398733
   1.48720558  8.41318728  0.69199351
   8.68004780  6.18659366 13.87823106
   1.38116602  8.25592354  6.67052567
   0.05398736  6.21200446  7.99758258
   0.01167692  8.74039523  9.20244260
   1.41624537  5.73357676  5.27296579
   1.38449867  5.79448785  2.00005637
   0.07715170  8.87805414 12.57140984
   2.86563502  3.52847666  0.70208679
   4.38552553  1.33185137 13.84506096
   2.98892584  3.62000360  6.56667418
   4.33747695  1.43906382  8.04370545
   4.36516376  3.97722714  9.19347740
   2.90178070  0.97520983  5.21871310
   2.93155454  0.86086063  2.06379143
   4.29796979  3.88045866 12.57223619
   4.32036224  8.39240981  0.74401670
   2.83924243  6.15823818 13.91782929
   4.30352915  8.41337374  6.62893788
   2.92631077  6.17916222  8.00502321
   2.96972506  8.79039139  9.32321900
   4.36523604  5.68694499  5.38304966
   4.37333560  5.83409925  1.95624141
   2.91038848  8.77404651 12.54144631
   5.80212715  3.50796010  0.66309057
   7.24529231  1.27771565 13.91129066
   5.82982790  3.49871645  6.57481113
   7.23200828  1.29160302  7.97626764
   7.28697314  3.96315845  9.30081839
   5.75751947  0.95362788  5.29989068
   5.80536689  0.88265788  1.93361968
   7.23478395  3.89267990 12.55753932
   7.17918252  8.42682810  0.75151462
   5.80837124  6.10636331 13.89838133
   7.33079045  8.32215023  6.67695906
   5.82805672  6.06720715  7.99339297
   5.81566390  8.77702691  9.18492195
   7.22990610  5.84699811  5.28474048
   7.18179587  5.78553947  1.97568996
   5.76767584  8.81945496 12.56816202
   0.02743323  9.70240394  7.30375825
   0.10052174  0.08373548  0.02515967
   1.50277030  0.33994305 12.28503222
   8.69721642  4.50862354  2.35904649
   8.66121809  4.52326278  4.99524318
   1.40802851  0.38585770  9.59804844
   8.59557628  2.67016924 13.49226575
   1.42471416  2.14106757  1.14063533
   1.45958782  2.09951602  6.15883404
   0.00510775  2.67859347  8.43335515
   1.45675102  3.17375383 10.96852120
   8.70302666  1.64425496  3.68982860
   1.47687086  4.80085895  7.23463757
   1.47148733  4.88578106 14.49615659
   8.69196568  5.13399799 12.28344439
   1.47881890  9.48865336  2.24192358
   1.53109300  9.45345970  5.11953501
   0.00597675  5.17877192  9.62473530
   1.47431856  7.66497720 13.47447062
   0.05564227  7.01638583  1.09441946
   0.04712358  6.96520459  6.16673937
   1.44926365  7.60475508  8.35425955
   0.06543089  8.05625290 10.94102971
   1.40712145  6.49681648  3.63190071
   2.92101440  0.08301768  7.30320084
   2.89329589  9.67987909 14.51754718
   4.37140063  0.34386353 12.27936396
   2.88628834  4.51762055  2.23605547
   2.97441856  4.58676650  5.01135835
   4.29998088  0.28682962  9.62389831
   2.95281595  2.85449779 13.49296266
   4.36165215  2.13329630  1.03821278
   4.39625481  2.04867985  6.15641316
   2.88594062  2.74642000  8.45159836
   4.39737391  3.19296554 10.93949625
   2.94043663  1.71945760  3.60569416
   4.39243658  4.83980574  7.31299049
   4.39519798  4.83822270 14.52973614
   2.95428530  5.14683763 12.29277590
   4.39903205  9.36962482  2.28646780
   4.37688980  9.34625861  4.96746511
   2.89975577  5.20707208  9.48640677
   4.38512974  7.61309573 13.42128349
   2.89200192  6.90144026  1.16172244
   2.86923955  6.99600962  6.09450076
   4.39832660  7.53907991  8.40807566
   2.93850548  8.01725388 10.88532112
   4.35193825  6.56869599  3.63858540
   5.78802176  9.65976380  7.33933946
   5.80099333  9.65693424  0.07324630
   7.27643726  0.29772126 12.33226496
   5.76224615  4.53114791  2.26498757
   5.84697039  4.53076217  5.02642517
   7.26402415  0.31194700  9.53859191
   5.82719243  2.62278318 13.41042333
   7.16965541  2.16632404  1.16571876
   7.20341737  2.14683132  6.11556367
   5.85241654  2.69252908  8.51466566
   7.30533148  3.21161397 10.90870535
   5.71616869  1.66615616  3.63371623
   7.24270012  4.82002455  7.25292800
   7.21504483  4.95517791 14.55139800
   5.77749180  5.01712809 12.33093367
   7.24636726  9.36879122  2.24774227
   7.22217934  9.46078893  4.98264869
   5.89592105  5.22216607  9.56233050
   7.19896675  7.62185862 13.44139148
   5.78983874  7.01213979  1.21101426
   5.69803877  6.92318509  6.11435935
   7.32368137  7.55534548  8.47100464
   5.88245850  7.98434535 10.92677248
   7.26114354  6.56917034  3.63775060
 


--------------------------------------------------------------------------------------------------------


 k-point  1 :   0.0000 0.0000 0.0000  plane waves:   31277
 k-point  2 :   0.3333 0.0000 0.0000  plane waves:   31312
 k-point  3 :   0.0000 0.3333 0.0000  plane waves:   31260
 k-point  4 :   0.3333 0.3333 0.0000  plane waves:   31279
 k-point  5 :  -0.3333 0.3333 0.0000  plane waves:   31279
 k-point  6 :   0.0000 0.0000 0.5000  plane waves:   31266
 k-point  7 :   0.3333 0.0000 0.5000  plane waves:   31290
 k-point  8 :   0.0000 0.3333 0.5000  plane waves:   31266
 k-point  9 :   0.3333 0.3333 0.5000  plane waves:   31268
 k-point 10 :  -0.3333 0.3333 0.5000  plane waves:   31268

 maximum and minimum number of plane-waves per node :     31312    31260

 maximum number of plane-waves:     31312
 maximum index in each direction: 
   IXMAX=   16   IYMAX=   17   IZMAX=   26
   IXMIN=  -16   IYMIN=  -18   IZMIN=  -27

 The following grids will avoid any aliasing or wrap around errors in the Hartre
 e energy
  - symmetry arguments have not been applied
  - exchange correlation energies might require even more grid points
  - we recommend to set PREC=Normal or Accurate and rely on VASP defaults
 WARNING: aliasing errors must be expected set NGX to    70 to avoid them
 NGY is ok and might be reduce to    72
 NGZ is ok and might be reduce to   108

 serial   3D FFT for wavefunctions
 parallel 3D FFT for charge:
    minimum data exchange during FFTs selected (reduces bandwidth)


 total amount of memory used by VASP MPI-rank0   564577. kBytes
=======================================================================

   base      :      30000. kBytes
   nonlr-proj:      62113. kBytes
   fftplans  :      10454. kBytes
   grid      :      60014. kBytes
   one-center:       3732. kBytes
   wavefun   :     398264. kBytes
 
     INWAV:  cpu time    0.0000: real time    0.0000
 Broyden mixing: mesh for mixing (old mesh)
   NGX = 31   NGY = 35   NGZ = 53
  (NGX  =128   NGY  =144   NGZ  =216)
  gives a total of  57505 points

 initial charge density was supplied:
 charge density of overlapping atoms calculated
 number of electron     912.0000000 magnetization     120.0000000
 keeping initial charge density in first step


--------------------------------------------------------------------------------------------------------


 Maximum index for non-local projection operator         5270
 Maximum index for augmentation-charges          899 (set IRDMAX)


--------------------------------------------------------------------------------------------------------


 First call to EWALD:  gamma=   0.165
 Maximum number of real-space cells 3x 3x 2
 Maximum number of reciprocal cells 2x 3x 4

    FEWALD:  cpu time    0.0077: real time    0.0077


--------------------------------------- Iteration      1(   1)  ---------------------------------------


    POTLOK:  cpu time    0.3718: real time    0.4091
    SETDIJ:  cpu time    0.0747: real time    0.0749
     EDDAV:  cpu time  154.8312: real time  155.1980
    --------------------------------------------
      LOOP:  cpu time  155.2803: real time  155.6846

 eigenvalue-minimisations  : 24320
 total energy-change (2. order) : 0.1162634E+05  (-0.3810909E+05)
 number of electron     912.0000000 magnetization     120.0000000
 augmentation part      912.0000000 magnetization     120.0000000

 Free energy of the ion-electron system (eV)
  ---------------------------------------------------
  alpha Z        PSCENC =      3046.18122208
  Ewald energy   TEWEN  =    -58770.51513431
  -Hartree energ DENC   =    -27628.54183177
  -exchange      EXHF   =         0.00000000
  -V(xc)+E(xc)   XCENC  =      3580.33445394
  PAW double counting   =     71080.72462945   -74396.17323249
  entropy T*S    EENTRO =        -0.01583725
  eigenvalues    EBANDS =     12008.52283291
  atomic energy  EATOM  =     82705.81968683
  Solvation  Ediel_sol  =         0.00000000
  ---------------------------------------------------
  free energy    TOTEN  =     11626.33678938 eV

  energy without entropy =    11626.35262663  energy(sigma->0) =    11626.34470800


--------------------------------------------------------------------------------------------------------




--------------------------------------- Iteration      1(   2)  ---------------------------------------


     EDDAV:  cpu time  147.9305: real time  148.2809
    --------------------------------------------
      LOOP:  cpu time  147.9304: real time  148.2807

 eigenvalue-minimisations  : 24320
 total energy-change (2. order) :-0.9805727E+04  (-0.8948456E+04)
 number of electron     912.0000000 magnetization     120.0000000
 augmentation part      912.0000000 magnetization     120.0000000

 Free energy of the ion-electron system (eV)
  ---------------------------------------------------
  alpha Z        PSCENC =      3046.18122208
  Ewald energy   TEWEN  =    -58770.51513431
  -Hartree energ DENC   =    -27628.54183177
  -exchange      EXHF   =         0.00000000
  -V(xc)+E(xc)   XCENC  =      3580.33445394
  PAW double counting   =     71080.72462945   -74396.17323249
  entropy T*S    EENTRO =        -0.04922436
  eigenvalues    EBANDS =      2202.82937900
  atomic energy  EATOM  =     82705.81968683
  Solvation  Ediel_sol  =         0.00000000
  ---------------------------------------------------
  free energy    TOTEN  =      1820.60994836 eV

  energy without entropy =     1820.65917272  energy(sigma->0) =     1820.63456054


--------------------------------------------------------------------------------------------------------




--------------------------------------- Iteration      1(   3)  ---------------------------------------


     EDDAV:  cpu time  150.4744: real time  150.8309
    --------------------------------------------
      LOOP:  cpu time  150.4747: real time  150.8313

 eigenvalue-minimisations  : 24800
 total energy-change (2. order) :-0.2473205E+04  (-0.2148184E+04)
 number of electron     912.0000000 magnetization     120.0000000
 augmentation part      912.0000000 magnetization     120.0000000

 Free energy of the ion-electron system (eV)
  ---------------------------------------------------
  alpha Z        PSCENC =      3046.18122208
  Ewald energy   TEWEN  =    -58770.51513431
  -Hartree energ DENC   =    -27628.54183177
  -exchange      EXHF   =         0.00000000
  -V(xc)+E(xc)   XCENC  =      3580.33445394
  PAW double counting   =     71080.72462945   -74396.17323249
  entropy T*S    EENTRO =        -0.23061038
  eigenvalues    EBANDS =      -270.19383669
  atomic energy  EATOM  =     82705.81968683
  Solvation  Ediel_sol  =         0.00000000
  ---------------------------------------------------
  free energy    TOTEN  =      -652.59465335 eV

  energy without entropy =     -652.36404297  energy(sigma->0) =     -652.47934816


--------------------------------------------------------------------------------------------------------




--------------------------------------- Iteration      1(   4)  ---------------------------------------


     EDDAV:  cpu time  162.7585: real time  163.1439
    --------------------------------------------
      LOOP:  cpu time  162.7584: real time  163.1438

 eigenvalue-minimisations  : 27456
 total energy-change (2. order) :-0.3281016E+03  (-0.3138070E+03)
 number of electron     912.0000000 magnetization     120.0000000
 augmentation part      912.0000000 magnetization     120.0000000

 Free energy of the ion-electron system (eV)
  ---------------------------------------------------
  alpha Z        PSCENC =      3046.18122208
  Ewald energy   TEWEN  =    -58770.51513431
  -Hartree energ DENC   =    -27628.54183177
  -exchange      EXHF   =         0.00000000
  -V(xc)+E(xc)   XCENC  =      3580.33445394
  PAW double counting   =     71080.72462945   -74396.17323249
  entropy T*S    EENTRO =        -0.23436421
  eigenvalues    EBANDS =      -598.29170329
  atomic energy  EATOM  =     82705.81968683
  Solvation  Ediel_sol  =         0.00000000
  ---------------------------------------------------
  free energy    TOTEN  =      -980.69627377 eV

  energy without entropy =     -980.46190957  energy(sigma->0) =     -980.57909167


--------------------------------------------------------------------------------------------------------




--------------------------------------- Iteration      1(   5)  ---------------------------------------


     EDDAV:  cpu time  161.5241: real time  161.9066
    CHARGE:  cpu time    6.1864: real time    6.2010
    MIXING:  cpu time    0.0067: real time    0.0068
    --------------------------------------------
      LOOP:  cpu time  167.7147: real time  168.1119

 eigenvalue-minimisations  : 26912
 total energy-change (2. order) :-0.1117664E+02  (-0.1105078E+02)
 number of electron     911.9999998 magnetization     126.0123337
 augmentation part      304.0731842 magnetization      90.1243520

 Broyden mixing:
  rms(total) = 0.15956E+02    rms(broyden)= 0.15954E+02
  rms(prec ) = 0.17701E+02
  weight for this iteration     100.00

 Free energy of the ion-electron system (eV)
  ---------------------------------------------------
  alpha Z        PSCENC =      3046.18122208
  Ewald energy   TEWEN  =    -58770.51513431
  -Hartree energ DENC   =    -27628.54183177
  -exchange      EXHF   =         0.00000000
  -V(xc)+E(xc)   XCENC  =      3580.33445394
  PAW double counting   =     71080.72462945   -74396.17323249
  entropy T*S    EENTRO =        -0.23348255
  eigenvalues    EBANDS =      -609.46922015
  atomic energy  EATOM  =     82705.81968683
  Solvation  Ediel_sol  =         0.00000000
  ---------------------------------------------------
  free energy    TOTEN  =      -991.87290898 eV

  energy without entropy =     -991.63942643  energy(sigma->0) =     -991.75616770


--------------------------------------------------------------------------------------------------------




--------------------------------------- Iteration      1(   6)  ---------------------------------------


    POTLOK:  cpu time    0.3156: real time    0.3164
    SETDIJ:  cpu time    0.0436: real time    0.0437
     EDDAV:  cpu time  206.9072: real time  207.3972
    CHARGE:  cpu time    5.9555: real time    5.9696
    MIXING:  cpu time    0.0071: real time    0.0072
    --------------------------------------------
      LOOP:  cpu time  213.2290: real time  213.7341

 eigenvalue-minimisations  : 36928
 total energy-change (2. order) :-0.1135341E+03  (-0.2063797E+03)
 number of electron     911.9999981 magnetization     118.0196898
 augmentation part      394.7955058 magnetization     115.5612815

 Broyden mixing:
  rms(total) = 0.29391E+02    rms(broyden)= 0.29389E+02
  rms(prec ) = 0.31624E+02
  weight for this iteration     100.00

 eigenvalues of (default mixing * dielectric matrix)
  average eigenvalue GAMMA=   0.2444
  0.2444

 Free energy of the ion-electron system (eV)
  ---------------------------------------------------
  alpha Z        PSCENC =      3046.18122208
  Ewald energy   TEWEN  =    -58770.51513431
  -Hartree energ DENC   =    -26345.34845493
  -exchange      EXHF   =         0.00000000
  -V(xc)+E(xc)   XCENC  =      3617.13537596
  PAW double counting   =     76016.62093890   -78888.04270976
  entropy T*S    EENTRO =        -0.07235807
  eigenvalues    EBANDS =     -2487.18560278
  atomic energy  EATOM  =     82705.81968683
  Solvation  Ediel_sol  =         0.00000000
  ---------------------------------------------------
  free energy    TOTEN  =     -1105.40703609 eV

  energy without entropy =    -1105.33467801  energy(sigma->0) =    -1105.37085705


--------------------------------------------------------------------------------------------------------




--------------------------------------- Iteration      1(   7)  ---------------------------------------


    POTLOK:  cpu time    0.3000: real time    0.3007
    SETDIJ:  cpu time    0.0437: real time    0.0438
     EDDAV:  cpu time  191.6118: real time  192.0658
    CHARGE:  cpu time    6.0071: real time    6.0213
    MIXING:  cpu time    0.0073: real time    0.0073
    --------------------------------------------
      LOOP:  cpu time  197.9699: real time  198.4390

 eigenvalue-minimisations  : 33760
 total energy-change (2. order) : 0.3398266E+03  (-0.4680663E+02)
 number of electron     911.9999989 magnetization     109.6759827
 augmentation part      352.0410917 magnetization      95.2710479

 Broyden mixing:
  rms(total) = 0.11819E+02    rms(broyden)= 0.11816E+02
  rms(prec ) = 0.12742E+02
  weight for this iteration     100.00

 eigenvalues of (default mixing * dielectric matrix)
  average eigenvalue GAMMA=   0.4759
  0.4759  0.4759

 Free energy of the ion-electron system (eV)
  ---------------------------------------------------
  alpha Z        PSCENC =      3046.18122208
  Ewald energy   TEWEN  =    -58770.51513431
  -Hartree energ DENC   =    -26944.86497301
  -exchange      EXHF   =         0.00000000
  -V(xc)+E(xc)   XCENC  =      3579.30650104
  PAW double counting   =     78633.73515776   -81816.40983175
  entropy T*S    EENTRO =        -0.11123876
  eigenvalues    EBANDS =     -1198.72186834
  atomic energy  EATOM  =     82705.81968683
  Solvation  Ediel_sol  =         0.00000000
  ---------------------------------------------------
  free energy    TOTEN  =      -765.58047846 eV

  energy without entropy =     -765.46923970  energy(sigma->0) =     -765.52485908


--------------------------------------------------------------------------------------------------------




--------------------------------------- Iteration      1(   8)  ---------------------------------------


    POTLOK:  cpu time    0.3009: real time    0.3016
    SETDIJ:  cpu time    0.0419: real time    0.0420
     EDDAV:  cpu time  210.2712: real time  210.7692
    CHARGE:  cpu time    6.0525: real time    6.0669
    MIXING:  cpu time    0.0079: real time    0.0079
    --------------------------------------------
      LOOP:  cpu time  216.6743: real time  217.1876

 eigenvalue-minimisations  : 37872
 total energy-change (2. order) :-0.1106579E+03  (-0.2258688E+02)
 number of electron     911.9999981 magnetization     101.9520490
 augmentation part      349.0083478 magnetization      89.9397398

 Broyden mixing:
  rms(total) = 0.16395E+02    rms(broyden)= 0.16393E+02
  rms(prec ) = 0.19785E+02
  weight for this iteration     100.00

 eigenvalues of (default mixing * dielectric matrix)
  average eigenvalue GAMMA=   0.4578
  0.5956  0.5956  0.1823

 Free energy of the ion-electron system (eV)
  ---------------------------------------------------
  alpha Z        PSCENC =      3046.18122208
  Ewald energy   TEWEN  =    -58770.51513431
  -Hartree energ DENC   =    -26745.98531637
  -exchange      EXHF   =         0.00000000
  -V(xc)+E(xc)   XCENC  =      3557.82466597
  PAW double counting   =     80665.33392964   -83954.32109800
  entropy T*S    EENTRO =        -0.07174028
  eigenvalues    EBANDS =     -1380.50463014
  atomic energy  EATOM  =     82705.81968683
  Solvation  Ediel_sol  =         0.00000000
  ---------------------------------------------------
  free energy    TOTEN  =      -876.23841459 eV

  energy without entropy =     -876.16667431  energy(sigma->0) =     -876.20254445


--------------------------------------------------------------------------------------------------------




--------------------------------------- Iteration      1(   9)  ---------------------------------------


    POTLOK:  cpu time    0.2994: real time    0.3001
    SETDIJ:  cpu time    0.0439: real time    0.0440
     EDDAV:  cpu time  185.0586: real time  185.4970
    CHARGE:  cpu time    6.0309: real time    6.0452
    MIXING:  cpu time    0.0068: real time    0.0068
    --------------------------------------------
      LOOP:  cpu time  191.4396: real time  191.8931

 eigenvalue-minimisations  : 31344
 total energy-change (2. order) : 0.4487569E+02  (-0.3346362E+02)
 number of electron     911.9999977 magnetization      96.6385117
 augmentation part      338.6297045 magnetization      78.1345932

 Broyden mixing:
  rms(total) = 0.14478E+02    rms(broyden)= 0.14476E+02
  rms(prec ) = 0.18333E+02
  weight for this iteration     100.00

 eigenvalues of (default mixing * dielectric matrix)
  average eigenvalue GAMMA=   0.4319
  0.6763  0.6763  0.2124  0.1626

 Free energy of the ion-electron system (eV)
  ---------------------------------------------------
  alpha Z        PSCENC =      3046.18122208
  Ewald energy   TEWEN  =    -58770.51513431
  -Hartree energ DENC   =    -26716.40144710
  -exchange      EXHF   =         0.00000000
  -V(xc)+E(xc)   XCENC  =      3549.89801372
  PAW double counting   =     82449.69676726   -85784.97237637
  entropy T*S    EENTRO =        -0.14190222
  eigenvalues    EBANDS =     -1310.92755384
  atomic energy  EATOM  =     82705.81968683
  Solvation  Ediel_sol  =         0.00000000
  ---------------------------------------------------
  free energy    TOTEN  =      -831.36272395 eV

  energy without entropy =     -831.22082174  energy(sigma->0) =     -831.29177284


--------------------------------------------------------------------------------------------------------




--------------------------------------- Iteration      1(  10)  ---------------------------------------


    POTLOK:  cpu time    0.2984: real time    0.2991
    SETDIJ:  cpu time    0.0443: real time    0.0444
     EDDAV:  cpu time  189.1129: real time  189.5608
    CHARGE:  cpu time    6.6470: real time    6.6629
    MIXING:  cpu time    0.0080: real time    0.0080
    --------------------------------------------
      LOOP:  cpu time  196.1107: real time  196.5752

 eigenvalue-minimisations  : 31312
 total energy-change (2. order) :-0.2343835E+02  (-0.1900645E+02)
 number of electron     912.0000012 magnetization      91.8083363
 augmentation part      329.1535137 magnetization      75.3010499

 Broyden mixing:
  rms(total) = 0.18904E+02    rms(broyden)= 0.18903E+02
  rms(prec ) = 0.26221E+02
  weight for this iteration     100.00

 eigenvalues of (default mixing * dielectric matrix)
  average eigenvalue GAMMA=   0.4000
  0.8741  0.6278  0.2528  0.1425  0.1028

 Free energy of the ion-electron system (eV)
  ---------------------------------------------------
  alpha Z        PSCENC =      3046.18122208
  Ewald energy   TEWEN  =    -58770.51513431
  -Hartree energ DENC   =    -26695.85371179
  -exchange      EXHF   =         0.00000000
  -V(xc)+E(xc)   XCENC  =      3547.37625441
  PAW double counting   =     83672.05391991   -87035.46810781
  entropy T*S    EENTRO =        -0.10612180
  eigenvalues    EBANDS =     -1324.28908119
  atomic energy  EATOM  =     82705.81968683
  Solvation  Ediel_sol  =         0.00000000
  ---------------------------------------------------
  free energy    TOTEN  =      -854.80107368 eV

  energy without entropy =     -854.69495188  energy(sigma->0) =     -854.74801278


--------------------------------------------------------------------------------------------------------




--------------------------------------- Iteration      1(  11)  ---------------------------------------


    POTLOK:  cpu time    0.2990: real time    0.2997
    SETDIJ:  cpu time    0.0443: real time    0.0444
     EDDAV:  cpu time  193.8347: real time  194.2937
    CHARGE:  cpu time    6.2280: real time    6.2428
    MIXING:  cpu time    0.0080: real time    0.0080
    --------------------------------------------
      LOOP:  cpu time  200.4140: real time  200.8887

 eigenvalue-minimisations  : 32272
 total energy-change (2. order) : 0.6069752E+02  (-0.1759589E+02)
 number of electron     911.9999980 magnetization      87.6082305
 augmentation part      338.0909941 magnetization      67.6217629

 Broyden mixing:
  rms(total) = 0.13982E+02    rms(broyden)= 0.13981E+02
  rms(prec ) = 0.19188E+02
  weight for this iteration     100.00

 eigenvalues of (default mixing * dielectric matrix)
  average eigenvalue GAMMA=   0.3909
  1.1120  0.5813  0.2236  0.1845  0.1845  0.0595

 Free energy of the ion-electron system (eV)
  ---------------------------------------------------
  alpha Z        PSCENC =      3046.18122208
  Ewald energy   TEWEN  =    -58770.51513431
  -Hartree energ DENC   =    -26642.05452704
  -exchange      EXHF   =         0.00000000
  -V(xc)+E(xc)   XCENC  =      3546.19699797
  PAW double counting   =     84648.08530287   -88022.94420302
  entropy T*S    EENTRO =        -0.13625296
  eigenvalues    EBANDS =     -1304.73664146
  atomic energy  EATOM  =     82705.81968683
  Solvation  Ediel_sol  =         0.00000000
  ---------------------------------------------------
  free energy    TOTEN  =      -794.10354905 eV

  energy without entropy =     -793.96729608  energy(sigma->0) =     -794.03542256


--------------------------------------------------------------------------------------------------------




--------------------------------------- Iteration      1(  12)  ---------------------------------------


    POTLOK:  cpu time    0.3179: real time    0.3186
    SETDIJ:  cpu time    0.0767: real time    0.0769
     EDDAV:  cpu time  187.8610: real time  188.3060
    CHARGE:  cpu time    6.2225: real time    6.2373
    MIXING:  cpu time    0.0081: real time    0.0081
    --------------------------------------------
      LOOP:  cpu time  194.4863: real time  194.9470

 eigenvalue-minimisations  : 31136
 total energy-change (2. order) : 0.4941441E+02  (-0.7223396E+01)
 number of electron     911.9999993 magnetization      84.5492302
 augmentation part      344.0965805 magnetization      67.0977148

 Broyden mixing:
  rms(total) = 0.76378E+01    rms(broyden)= 0.76363E+01
  rms(prec ) = 0.92595E+01
  weight for this iteration     100.00

 eigenvalues of (default mixing * dielectric matrix)
  average eigenvalue GAMMA=   0.3959
  1.1272  0.6942  0.3208  0.3208  0.1241  0.1241  0.0596

 Free energy of the ion-electron system (eV)
  ---------------------------------------------------
  alpha Z        PSCENC =      3046.18122208
  Ewald energy   TEWEN  =    -58770.51513431
  -Hartree energ DENC   =    -26619.11210060
  -exchange      EXHF   =         0.00000000
  -V(xc)+E(xc)   XCENC  =      3545.59006500
  PAW double counting   =     85409.64643602   -88797.88836132
  entropy T*S    EENTRO =        -0.11219502
  eigenvalues    EBANDS =     -1264.29876038
  atomic energy  EATOM  =     82705.81968683
  Solvation  Ediel_sol  =         0.00000000
  ---------------------------------------------------
  free energy    TOTEN  =      -744.68914170 eV

  energy without entropy =     -744.57694668  energy(sigma->0) =     -744.63304419


--------------------------------------------------------------------------------------------------------




--------------------------------------- Iteration      1(  13)  ---------------------------------------


    POTLOK:  cpu time    0.3026: real time    0.3033
    SETDIJ:  cpu time    0.0440: real time    0.0441
     EDDAV:  cpu time  178.1754: real time  178.5973
    CHARGE:  cpu time    6.3898: real time    6.4050
    MIXING:  cpu time    0.0091: real time    0.0091
    --------------------------------------------
      LOOP:  cpu time  184.9209: real time  185.3588

 eigenvalue-minimisations  : 30480
 total energy-change (2. order) : 0.4041503E+01  (-0.8674372E+01)
 number of electron     911.9999984 magnetization      81.0747567
 augmentation part      341.8791041 magnetization      63.2365120

 Broyden mixing:
  rms(total) = 0.83757E+01    rms(broyden)= 0.83749E+01
  rms(prec ) = 0.10303E+02
  weight for this iteration     100.00

 eigenvalues of (default mixing * dielectric matrix)
  average eigenvalue GAMMA=   0.3897
  1.2072  0.7603  0.3562  0.3562  0.1406  0.1192  0.1192  0.0586

 Free energy of the ion-electron system (eV)
  ---------------------------------------------------
  alpha Z        PSCENC =      3046.18122208
  Ewald energy   TEWEN  =    -58770.51513431
  -Hartree energ DENC   =    -26655.22435803
  -exchange      EXHF   =         0.00000000
  -V(xc)+E(xc)   XCENC  =      3545.56089095
  PAW double counting   =     85665.17473974   -89063.72774822
  entropy T*S    EENTRO =        -0.12157489
  eigenvalues    EBANDS =     -1213.79536331
  atomic energy  EATOM  =     82705.81968683
  Solvation  Ediel_sol  =         0.00000000
  ---------------------------------------------------
  free energy    TOTEN  =      -740.64763916 eV

  energy without entropy =     -740.52606427  energy(sigma->0) =     -740.58685172


--------------------------------------------------------------------------------------------------------




--------------------------------------- Iteration      1(  14)  ---------------------------------------


    POTLOK:  cpu time    0.3575: real time    0.3583
    SETDIJ:  cpu time    0.0494: real time    0.0496
     EDDAV:  cpu time  196.5053: real time  196.9707
    CHARGE:  cpu time    6.6317: real time    6.6475
    MIXING:  cpu time    0.0099: real time    0.0099
    --------------------------------------------
      LOOP:  cpu time  203.5538: real time  204.0360

 eigenvalue-minimisations  : 33552
 total energy-change (2. order) : 0.1303280E+02  (-0.3330225E+01)
 number of electron     911.9999984 magnetization      78.6005710
 augmentation part      341.5333857 magnetization      62.0002173

 Broyden mixing:
  rms(total) = 0.55199E+01    rms(broyden)= 0.55191E+01
  rms(prec ) = 0.68333E+01
  weight for this iteration     100.00

 eigenvalues of (default mixing * dielectric matrix)
  average eigenvalue GAMMA=   0.3704
  1.1879  0.8077  0.3678  0.3678  0.1533  0.1533  0.1185  0.1185  0.0587

 Free energy of the ion-electron system (eV)
  ---------------------------------------------------
  alpha Z        PSCENC =      3046.18122208
  Ewald energy   TEWEN  =    -58770.51513431
  -Hartree energ DENC   =    -26689.06399353
  -exchange      EXHF   =         0.00000000
  -V(xc)+E(xc)   XCENC  =      3545.70341937
  PAW double counting   =     85947.73988749   -89355.54001861
  entropy T*S    EENTRO =        -0.13099953
  eigenvalues    EBANDS =     -1157.80891049
  atomic energy  EATOM  =     82705.81968683
  Solvation  Ediel_sol  =         0.00000000
  ---------------------------------------------------
  free energy    TOTEN  =      -727.61484070 eV

  energy without entropy =     -727.48384117  energy(sigma->0) =     -727.54934094


--------------------------------------------------------------------------------------------------------




--------------------------------------- Iteration      1(  15)  ---------------------------------------


    POTLOK:  cpu time    0.2994: real time    0.3001
    SETDIJ:  cpu time    0.0438: real time    0.0439
     EDDAV:  cpu time  168.3801: real time  168.7787
    CHARGE:  cpu time    6.0307: real time    6.0450
    MIXING:  cpu time    0.0100: real time    0.0100
    --------------------------------------------
      LOOP:  cpu time  174.7640: real time  175.1778

 eigenvalue-minimisations  : 28352
 total energy-change (2. order) : 0.5956717E+01  (-0.4687217E+01)
 number of electron     911.9999988 magnetization      74.9062334
 augmentation part      340.8034553 magnetization      57.5190467

 Broyden mixing:
  rms(total) = 0.44853E+01    rms(broyden)= 0.44844E+01
  rms(prec ) = 0.55150E+01
  weight for this iteration     100.00

 eigenvalues of (default mixing * dielectric matrix)
  average eigenvalue GAMMA=   0.3706
  1.1258  0.8919  0.4270  0.4270  0.2745  0.1566  0.1129  0.1129  0.1185  0.0587

 Free energy of the ion-electron system (eV)
  ---------------------------------------------------
  alpha Z        PSCENC =      3046.18122208
  Ewald energy   TEWEN  =    -58770.51513431
  -Hartree energ DENC   =    -26712.18243846
  -exchange      EXHF   =         0.00000000
  -V(xc)+E(xc)   XCENC  =      3545.95156704
  PAW double counting   =     86120.31770142   -89532.84077559
  entropy T*S    EENTRO =        -0.13174898
  eigenvalues    EBANDS =     -1124.25820402
  atomic energy  EATOM  =     82705.81968683
  Solvation  Ediel_sol  =         0.00000000
  ---------------------------------------------------
  free energy    TOTEN  =      -721.65812400 eV

  energy without entropy =     -721.52637502  energy(sigma->0) =     -721.59224951


--------------------------------------------------------------------------------------------------------




--------------------------------------- Iteration      1(  16)  ---------------------------------------


    POTLOK:  cpu time    0.3001: real time    0.3008
    SETDIJ:  cpu time    0.0445: real time    0.0446
     EDDAV:  cpu time  184.0898: real time  184.5259
    CHARGE:  cpu time    6.1710: real time    6.1857
    MIXING:  cpu time    0.0102: real time    0.0102
    --------------------------------------------
      LOOP:  cpu time  190.6156: real time  191.0672

 eigenvalue-minimisations  : 31072
 total energy-change (2. order) : 0.2922237E+01  (-0.2180353E+01)
 number of electron     911.9999990 magnetization      72.1922384
 augmentation part      340.0240130 magnetization      54.9128337

 Broyden mixing:
  rms(total) = 0.33414E+01    rms(broyden)= 0.33402E+01
  rms(prec ) = 0.43893E+01
  weight for this iteration     100.00

 eigenvalues of (default mixing * dielectric matrix)
  average eigenvalue GAMMA=   0.3709
  1.0351  1.0351  0.4737  0.4737  0.2666  0.2666  0.0587  0.1129  0.1129  0.1316
  0.1134

 Free energy of the ion-electron system (eV)
  ---------------------------------------------------
  alpha Z        PSCENC =      3046.18122208
  Ewald energy   TEWEN  =    -58770.51513431
  -Hartree energ DENC   =    -26743.00485850
  -exchange      EXHF   =         0.00000000
  -V(xc)+E(xc)   XCENC  =      3545.93310635
  PAW double counting   =     86366.90487684   -89783.95593030
  entropy T*S    EENTRO =        -0.10285426
  eigenvalues    EBANDS =     -1085.99600165
  atomic energy  EATOM  =     82705.81968683
  Solvation  Ediel_sol  =         0.00000000
  ---------------------------------------------------
  free energy    TOTEN  =      -718.73588692 eV

  energy without entropy =     -718.63303266  energy(sigma->0) =     -718.68445979


--------------------------------------------------------------------------------------------------------




--------------------------------------- Iteration      1(  17)  ---------------------------------------


    POTLOK:  cpu time    0.2944: real time    0.2951
    SETDIJ:  cpu time    0.0445: real time    0.0446
     EDDAV:  cpu time  196.1941: real time  196.6586
    CHARGE:  cpu time    6.0886: real time    6.1030
    MIXING:  cpu time    0.0108: real time    0.0108
    --------------------------------------------
      LOOP:  cpu time  202.6324: real time  203.1122

 eigenvalue-minimisations  : 32720
 total energy-change (2. order) :-0.6736217E+00  (-0.1426917E+01)
 number of electron     911.9999989 magnetization      68.2240398
 augmentation part      339.3696900 magnetization      50.9274182

 Broyden mixing:
  rms(total) = 0.30518E+01    rms(broyden)= 0.30509E+01
  rms(prec ) = 0.38887E+01
  weight for this iteration     100.00

 eigenvalues of (default mixing * dielectric matrix)
  average eigenvalue GAMMA=   0.3839
  1.2333  0.9058  0.5765  0.5765  0.3337  0.3337  0.1506  0.1149  0.1149  0.0587
  0.1083  0.0998

 Free energy of the ion-electron system (eV)
  ---------------------------------------------------
  alpha Z        PSCENC =      3046.18122208
  Ewald energy   TEWEN  =    -58770.51513431
  -Hartree energ DENC   =    -26763.41693730
  -exchange      EXHF   =         0.00000000
  -V(xc)+E(xc)   XCENC  =      3545.67178372
  PAW double counting   =     86547.22591086   -89967.56718696
  entropy T*S    EENTRO =        -0.11491757
  eigenvalues    EBANDS =     -1062.69393594
  atomic energy  EATOM  =     82705.81968683
  Solvation  Ediel_sol  =         0.00000000
  ---------------------------------------------------
  free energy    TOTEN  =      -719.40950859 eV

  energy without entropy =     -719.29459102  energy(sigma->0) =     -719.35204980


--------------------------------------------------------------------------------------------------------




--------------------------------------- Iteration      1(  18)  ---------------------------------------


    POTLOK:  cpu time    0.2977: real time    0.2984
    SETDIJ:  cpu time    0.0438: real time    0.0439
     EDDAV:  cpu time  181.7933: real time  182.2239
    CHARGE:  cpu time    6.3143: real time    6.3293
    MIXING:  cpu time    0.0105: real time    0.0106
    --------------------------------------------
      LOOP:  cpu time  188.4596: real time  188.9060

 eigenvalue-minimisations  : 31168
 total energy-change (2. order) :-0.4378701E+00  (-0.9726823E+00)
 number of electron     911.9999988 magnetization      65.1703364
 augmentation part      338.5948334 magnetization      48.0962198

 Broyden mixing:
  rms(total) = 0.21168E+01    rms(broyden)= 0.21159E+01
  rms(prec ) = 0.25287E+01
  weight for this iteration     100.00

 eigenvalues of (default mixing * dielectric matrix)
  average eigenvalue GAMMA=   0.3918
  1.3803  0.7947  0.6750  0.6750  0.3569  0.3569  0.2271  0.1375  0.1145  0.1145
  0.0587  0.1089  0.0931

 Free energy of the ion-electron system (eV)
  ---------------------------------------------------
  alpha Z        PSCENC =      3046.18122208
  Ewald energy   TEWEN  =    -58770.51513431
  -Hartree energ DENC   =    -26789.42392335
  -exchange      EXHF   =         0.00000000
  -V(xc)+E(xc)   XCENC  =      3545.24312293
  PAW double counting   =     86821.62508621   -90246.27303898
  entropy T*S    EENTRO =        -0.11841005
  eigenvalues    EBANDS =     -1032.38599006
  atomic energy  EATOM  =     82705.81968683
  Solvation  Ediel_sol  =         0.00000000
  ---------------------------------------------------
  free energy    TOTEN  =      -719.84737871 eV

  energy without entropy =     -719.72896866  energy(sigma->0) =     -719.78817368


--------------------------------------------------------------------------------------------------------




--------------------------------------- Iteration      1(  19)  ---------------------------------------


    POTLOK:  cpu time    0.3051: real time    0.3059
    SETDIJ:  cpu time    0.0436: real time    0.0437
     EDDAV:  cpu time  189.5361: real time  189.9850
    CHARGE:  cpu time    6.2434: real time    6.2582
    MIXING:  cpu time    0.0112: real time    0.0113
    --------------------------------------------
      LOOP:  cpu time  196.1395: real time  196.6040

 eigenvalue-minimisations  : 32368
 total energy-change (2. order) :-0.1705056E+01  (-0.5580628E+00)
 number of electron     911.9999989 magnetization      60.2198780
 augmentation part      338.0210198 magnetization      43.8613771

 Broyden mixing:
  rms(total) = 0.21395E+01    rms(broyden)= 0.21386E+01
  rms(prec ) = 0.24795E+01
  weight for this iteration     100.00

 eigenvalues of (default mixing * dielectric matrix)
  average eigenvalue GAMMA=   0.4047
  1.5513  0.7796  0.7796  0.6974  0.3786  0.3786  0.3490  0.1530  0.0587  0.1153
  0.1153  0.1098  0.1098  0.0904

 Free energy of the ion-electron system (eV)
  ---------------------------------------------------
  alpha Z        PSCENC =      3046.18122208
  Ewald energy   TEWEN  =    -58770.51513431
  -Hartree energ DENC   =    -26806.10006121
  -exchange      EXHF   =         0.00000000
  -V(xc)+E(xc)   XCENC  =      3544.77377080
  PAW double counting   =     87017.37735643   -90444.96552860
  entropy T*S    EENTRO =        -0.11486976
  eigenvalues    EBANDS =     -1014.00887669
  atomic energy  EATOM  =     82705.81968683
  Solvation  Ediel_sol  =         0.00000000
  ---------------------------------------------------
  free energy    TOTEN  =      -721.55243443 eV

  energy without entropy =     -721.43756467  energy(sigma->0) =     -721.49499955


--------------------------------------------------------------------------------------------------------




--------------------------------------- Iteration      1(  20)  ---------------------------------------


    POTLOK:  cpu time    0.3035: real time    0.3043
    SETDIJ:  cpu time    0.0445: real time    0.0447
     EDDAV:  cpu time  193.0496: real time  193.5069
    CHARGE:  cpu time    6.2056: real time    6.2203
    MIXING:  cpu time    0.0111: real time    0.0112
    --------------------------------------------
      LOOP:  cpu time  199.6144: real time  200.0873

 eigenvalue-minimisations  : 32512
 total energy-change (2. order) :-0.2226405E+01  (-0.4609749E+00)
 number of electron     911.9999989 magnetization      56.2301473
 augmentation part      337.6195705 magnetization      41.3993840

 Broyden mixing:
  rms(total) = 0.19170E+01    rms(broyden)= 0.19163E+01
  rms(prec ) = 0.22480E+01
  weight for this iteration     100.00

 eigenvalues of (default mixing * dielectric matrix)
  average eigenvalue GAMMA=   0.4141
  1.6952  0.8575  0.8575  0.6614  0.4529  0.3604  0.3604  0.2248  0.0587  0.1142
  0.1142  0.1284  0.1284  0.1068  0.0908

 Free energy of the ion-electron system (eV)
  ---------------------------------------------------
  alpha Z        PSCENC =      3046.18122208
  Ewald energy   TEWEN  =    -58770.51513431
  -Hartree energ DENC   =    -26824.10109003
  -exchange      EXHF   =         0.00000000
  -V(xc)+E(xc)   XCENC  =      3544.02058166
  PAW double counting   =     87308.71260747   -90738.49807641
  entropy T*S    EENTRO =        -0.11032812
  eigenvalues    EBANDS =      -995.28830887
  atomic energy  EATOM  =     82705.81968683
  Solvation  Ediel_sol  =         0.00000000
  ---------------------------------------------------
  free energy    TOTEN  =      -723.77883969 eV

  energy without entropy =     -723.66851157  energy(sigma->0) =     -723.72367563


--------------------------------------------------------------------------------------------------------




[...]
      7.23201      1.29160      7.97627         0.316169     -0.125413     -0.104905
      7.28697      3.96316      9.30082         0.054503      0.462866      0.557393
      5.75752      0.95363      5.29989         0.731402     -1.183157     -1.037725
      5.80537      0.88266      1.93362        -0.347548      0.030567      1.658846
      7.23478      3.89268     12.55754         0.364186      0.277152     -0.632600
      7.17918      8.42683      0.75151         0.811718     -0.541583     -1.078325
      5.80837      6.10636     13.89838        -0.372170      0.669888     -0.523494
      7.33079      8.32215      6.67696        -0.849345      1.345958     -1.293068
      5.82806      6.06721      7.99339         0.084533      1.149307     -0.603666
      5.81566      8.77703      9.18492        -0.052594      0.411241      2.055097
      7.22991      5.84700      5.28474         0.129615     -0.995973     -0.975790
      7.18180      5.78554      1.97569         0.862680     -0.897699      1.231366
      5.76768      8.81945     12.56816         0.772798     -0.198747     -0.913564
      0.02743      9.70240      7.30376        -0.346599     -0.006021      0.032806
      0.10052      0.08374      0.02516        -0.621469     -0.186222     -0.094592
      1.50277      0.33994     12.28503         0.139626     -0.314308      0.664514
      8.69722      4.50862      2.35905        -0.210446      0.731258     -2.254238
      8.66122      4.52326      4.99524         0.107067      0.605180      1.064711
      1.40803      0.38586      9.59805         0.107430     -1.227614     -1.322531
      8.59558      2.67017     13.49227         0.547272      0.253424      0.090174
      1.42471      2.14107      1.14064         0.118189     -0.010086     -0.987087
      1.45959      2.09952      6.15883        -0.013171      0.453950      0.560476
      0.00511      2.67859      8.43336        -0.087229      0.193288     -0.937136
      1.45675      3.17375     10.96852        -0.004473      0.749196      0.180966
      8.70303      1.64425      3.68983        -0.046866      0.075295     -1.084032
      1.47687      4.80086      7.23464        -0.161760      0.223338      0.030829
      1.47149      4.88578     14.49616        -0.426889     -0.265311      0.173173
      8.69197      5.13400     12.28344         0.011927     -0.226504      1.451570
      1.47882      9.48865      2.24192        -0.546722     -0.364093     -0.751295
      1.53109      9.45346      5.11954        -0.447758     -0.686181      0.395306
      0.00598      5.17877      9.62474         0.235235     -0.462579     -1.817758
      1.47432      7.66498     13.47447        -0.025309     -0.558941      0.250330
      0.05564      7.01639      1.09442        -0.344869      0.068122     -0.453010
      0.04712      6.96520      6.16674        -0.779441     -0.338312      0.410531
      1.44926      7.60476      8.35426         0.211210     -0.634749      1.237501
      0.06543      8.05625     10.94103        -0.127652      0.614043     -0.268834
      1.40712      6.49682      3.63190         0.081576     -0.293306      0.491177
      2.92101      0.08302      7.30320         0.219867     -0.154317      0.372880
      2.89330      9.67988     14.51755         0.310489      0.074314      0.077310
      4.37140      0.34386     12.27936        -0.135620     -0.508519      0.922779
      2.88629      4.51762      2.23606        -0.099601      0.849763     -0.757170
      2.97442      4.58677      5.01136        -0.438118     -0.292529      0.575966
      4.29998      0.28683      9.62390         0.873419      0.115237     -1.415946
      2.95282      2.85450     13.49296        -0.918425     -1.031314     -0.067094
      4.36165      2.13330      1.03821        -0.022203     -0.230518     -0.143309
      4.39625      2.04868      6.15641        -0.261988      0.808299      0.480482
      2.88594      2.74642      8.45160         0.106417      0.440943     -0.946697
      4.39737      3.19297     10.93950        -0.232287      0.440747     -0.891654
      2.94044      1.71946      3.60569         0.010465     -0.443393      0.100387
      4.39244      4.83981      7.31299         0.022678     -0.213159     -0.037189
      4.39520      4.83822     14.52974         0.037258     -0.039807      0.219841
      2.95429      5.14684     12.29278        -0.676598      0.101620      1.245677
      4.39903      9.36962      2.28647        -0.325269      0.348556     -0.720637
      4.37689      9.34626      4.96747        -0.324397      0.789262      1.706855
      2.89976      5.20707      9.48641         0.008717     -1.023814     -0.102622
      4.38513      7.61310     13.42128        -0.218823     -0.349035      0.901111
      2.89200      6.90144      1.16172        -0.112990      0.342888     -0.588031
      2.86924      6.99601      6.09450         0.337512     -0.383027      1.175046
      4.39833      7.53908      8.40808         0.009414      0.208759     -0.559470
      2.93851      8.01725     10.88532        -0.113601      0.207613      0.663764
      4.35194      6.56870      3.63859         0.042948     -1.017508      0.234783
      5.78802      9.65976      7.33934         0.180119     -0.272864      0.026189
      5.80099      9.65693      0.07325        -0.010362      0.337314     -0.170308
      7.27644      0.29772     12.33226        -0.185795     -0.131955      0.845805
      5.76225      4.53115      2.26499         0.078457      0.640243     -1.217967
      5.84697      4.53076      5.02643        -0.294827      0.284478      0.915217
      7.26402      0.31195      9.53859        -0.078367     -0.780730     -0.996450
      5.82719      2.62278     13.41042        -0.002787      0.372353      0.728432
      7.16966      2.16632      1.16572         0.033752     -0.460397     -0.724001
      7.20342      2.14683      6.11556         0.109759     -0.212244      1.046190
      5.85242      2.69253      8.51467        -0.164939      0.365988     -1.175900
      7.30533      3.21161     10.90871        -0.071290      0.038420      0.130915
      5.71617      1.66616      3.63372         0.182690     -0.510473     -0.601186
      7.24270      4.82002      7.25293         0.233978      0.026582      0.287245
      7.21504      4.95518     14.55140         0.397716     -0.290860      0.520351
      5.77749      5.01713     12.33093         0.027966      0.478861      0.730058
      7.24637      9.36879      2.24774         0.067541      1.146882     -0.203822
      7.22218      9.46079      4.98265         0.369695     -0.096230      1.689871
      5.89592      5.22217      9.56233        -0.522156     -1.036972     -0.565921
      7.19897      7.62186     13.44139         0.019415     -0.134608      0.960541
      5.78984      7.01214      1.21101        -0.008136     -0.446530     -1.017897
      5.69804      6.92319      6.11436         0.318217     -0.021432      1.128386
      7.32368      7.55535      8.47100        -0.249358      0.129022     -0.763772
      5.88246      7.98435     10.92677        -0.209352      1.083950     -0.567118
      7.26114      6.56917      3.63775        -0.170591     -0.597827     -0.293353
 -----------------------------------------------------------------------------------
    total drift:                                0.017546      0.001569     -0.009336


--------------------------------------------------------------------------------------------------------



  FREE ENERGIE OF THE ION-ELECTRON SYSTEM (eV)
  ---------------------------------------------------
  free  energy   TOTEN  =      -735.3097772191 eV

  energy  without entropy=     -735.1965940892  energy(sigma->0) =     -735.25318565
 


--------------------------------------------------------------------------------------------------------


    POTLOK:  cpu time    0.3445: real time    0.3453


--------------------------------------------------------------------------------------------------------


     LOOP+:  cpu time15784.9973: real time15822.8130
    4ORBIT:  cpu time    0.0000: real time    0.0000

volume of typ            1:    24.8 %

volume of typ            2:     9.5 %
 
total charge     
 
# of ion       s       p       d       tot
------------------------------------------
    1        0.216   0.235   7.918   8.368
    2        0.227   0.255   7.902   8.385
    3        0.222   0.247   7.892   8.361
    4        0.231   0.265   7.876   8.373
    5        0.235   0.266   7.830   8.331
    6        0.264   0.304   7.834   8.403
    7        0.235   0.269   7.851   8.355
    8        0.240   0.275   7.842   8.357
    9        0.225   0.261   7.892   8.377
   10        0.218   0.243   7.884   8.345
   11        0.237   0.283   7.909   8.429
   12        0.218   0.242   7.917   8.377
   13        0.241   0.281   7.842   8.364
   14        0.245   0.280   7.845   8.369
   15        0.250   0.286   7.831   8.367
   16        0.251   0.283   7.837   8.371
   17        0.233   0.272   7.883   8.388
   18        0.227   0.260   7.903   8.390
   19        0.222   0.244   7.917   8.383
   20        0.216   0.243   7.888   8.347
   21        0.231   0.260   7.851   8.343
   22        0.254   0.294   7.837   8.386
   23        0.261   0.294   7.849   8.404
   24        0.268   0.324   7.838   8.431
   25        0.224   0.252   7.905   8.380
   26        0.221   0.247   7.897   8.365
   27        0.219   0.243   7.888   8.350
   28        0.230   0.259   7.905   8.394
   29        0.257   0.291   7.851   8.399
   30        0.253   0.299   7.844   8.396
   31        0.246   0.285   7.835   8.366
   32        0.245   0.283   7.839   8.367
   33        0.225   0.254   7.882   8.360
   34        0.230   0.264   7.901   8.394
   35        0.227   0.255   7.897   8.379
   36        0.224   0.251   7.890   8.366
   37        0.255   0.294   7.840   8.390
   38        0.254   0.298   7.827   8.379
   39        0.247   0.289   7.844   8.380
   40        0.256   0.296   7.839   8.390
   41        0.235   0.267   7.904   8.405
   42        0.222   0.250   7.885   8.357
   43        0.207   0.221   7.910   8.338
   44        0.233   0.265   7.903   8.401
   45        0.236   0.270   7.838   8.343
   46        0.244   0.278   7.841   8.363
   47        0.238   0.265   7.840   8.344
   48        0.249   0.286   7.822   8.357
   49        1.285   2.718   0.006   4.009
   50        1.287   2.716   0.006   4.009
   51        1.284   2.710   0.008   4.003
   52        1.289   2.663   0.005   3.957
   53        1.286   2.694   0.007   3.987
   54        1.289   2.676   0.006   3.971
   55        1.271   2.740   0.006   4.018
   56        1.274   2.728   0.006   4.008
   57        1.275   2.720   0.005   4.000
   58        1.272   2.726   0.005   4.004
   59        1.291   2.649   0.005   3.944
   60        1.288   2.691   0.008   3.987
   61        1.288   2.707   0.005   4.000
   62        1.284   2.726   0.006   4.016
   63        1.285   2.689   0.007   3.981
   64        1.282   2.709   0.007   3.998
   65        1.279   2.721   0.008   4.008
   66        1.287   2.681   0.007   3.976
   67        1.271   2.735   0.006   4.012
   68        1.271   2.727   0.005   4.004
   69        1.267   2.755   0.007   4.030
   70        1.268   2.763   0.008   4.039
   71        1.291   2.659   0.006   3.955
   72        1.289   2.680   0.007   3.977
   73        1.287   2.703   0.005   3.995
   74        1.287   2.712   0.006   4.005
   75        1.283   2.702   0.008   3.993
   76        1.285   2.692   0.006   3.983
   77        1.282   2.721   0.009   4.011
   78        1.287   2.690   0.007   3.983
   79        1.269   2.753   0.007   4.028
   80        1.271   2.734   0.006   4.011
   81        1.269   2.744   0.006   4.018
   82        1.270   2.734   0.006   4.010
   83        1.290   2.665   0.006   3.961
   84        1.288   2.692   0.008   3.988
   85        1.283   2.738   0.007   4.029
   86        1.288   2.712   0.005   4.005
   87        1.287   2.691   0.007   3.984
   88        1.284   2.711   0.008   4.003
   89        1.289   2.673   0.006   3.968
   90        1.284   2.706   0.008   3.997
   91        1.272   2.721   0.005   3.997
   92        1.270   2.739   0.006   4.015
   93        1.273   2.722   0.005   4.001
   94        1.272   2.733   0.006   4.010
   95        1.287   2.690   0.008   3.985
   96        1.295   2.639   0.005   3.938
   97        1.286   2.710   0.005   4.001
   98        1.286   2.724   0.006   4.017
   99        1.283   2.705   0.007   3.995
  100        1.286   2.690   0.007   3.983
  101        1.286   2.698   0.007   3.991
  102        1.287   2.689   0.007   3.982
  103        1.273   2.733   0.006   4.012
  104        1.268   2.747   0.006   4.021
  105        1.274   2.723   0.005   4.003
  106        1.269   2.731   0.005   4.006
  107        1.289   2.684   0.008   3.981
  108        1.291   2.662   0.006   3.959
  109        1.286   2.717   0.006   4.009
  110        1.284   2.721   0.006   4.011
  111        1.284   2.710   0.008   4.002
  112        1.285   2.707   0.008   4.001
  113        1.286   2.673   0.005   3.964
  114        1.286   2.702   0.008   3.996
  115        1.274   2.713   0.004   3.991
  116        1.272   2.735   0.006   4.013
  117        1.272   2.727   0.005   4.004
  118        1.271   2.741   0.007   4.018
  119        1.293   2.645   0.005   3.942
  120        1.289   2.671   0.006   3.966
--------------------------------------------------
tot         103.61  207.88  378.16  689.65
 
magnetization (x)
 
# of ion       s       p       d       tot
------------------------------------------
    1       -0.001  -0.001  -0.128  -0.130
    2       -0.001   0.001  -0.335  -0.336
    3        0.001   0.001   0.330   0.332
    4       -0.002   0.002  -0.480  -0.481
    5       -0.001   0.006   0.605   0.610
    6       -0.000   0.009   0.617   0.626
    7       -0.001   0.003   0.643   0.646
    8       -0.001   0.003   0.456   0.458
    9       -0.000   0.001   0.046   0.047
   10        0.001  -0.000   0.523   0.524
   11       -0.002  -0.001  -0.638  -0.641
   12       -0.000  -0.000   0.056   0.056
   13       -0.002   0.002   0.440   0.440
   14       -0.001   0.006   0.522   0.527
   15       -0.001   0.009   0.643   0.651
   16       -0.001   0.008   0.660   0.667
   17       -0.003   0.001  -0.692  -0.694
   18       -0.000  -0.001  -0.024  -0.025
   19        0.000   0.001   0.113   0.114
   20        0.001   0.001   0.366   0.368
   21       -0.001   0.003   0.581   0.584
   22       -0.001   0.008   0.535   0.542
   23       -0.001   0.009   0.554   0.562
   24       -0.001   0.005   0.480   0.484
   25        0.002   0.001   0.411   0.414
   26       -0.002   0.000  -0.330  -0.331
   27       -0.001  -0.000  -0.093  -0.095
   28       -0.003   0.000  -0.448  -0.450
   29       -0.000   0.009   0.636   0.645
   30       -0.002   0.004   0.320   0.322
   31       -0.001   0.006   0.605   0.610
   32       -0.001   0.007   0.392   0.398
   33       -0.002  -0.000  -0.552  -0.554
   34       -0.001   0.001  -0.500  -0.500
   35       -0.001   0.000  -0.350  -0.351
   36       -0.000   0.000  -0.035  -0.035
   37       -0.001   0.007   0.423   0.428
   38       -0.001   0.009   0.586   0.594
   39       -0.001   0.003   0.399   0.401
   40       -0.002   0.008   0.555   0.561
   41       -0.001   0.001  -0.313  -0.313
   42       -0.000   0.000   0.107   0.108
   43        0.002   0.001   0.341   0.345
   44       -0.001   0.002  -0.455  -0.455
   45       -0.002   0.002   0.336   0.336
   46       -0.001   0.007   0.716   0.721
   47       -0.001   0.005   0.395   0.400
   48       -0.001   0.009   0.606   0.614
   49       -0.000  -0.003   0.000  -0.003
   50       -0.000  -0.008   0.000  -0.008
   51        0.004   0.080   0.000   0.084
   52        0.004   0.101   0.000   0.105
   53        0.005   0.127   0.000   0.133
   54        0.003   0.067   0.000   0.071
   55       -0.002  -0.042  -0.000  -0.044
   56       -0.000  -0.039   0.000  -0.040
   57        0.003   0.004   0.000   0.007
   58        0.000  -0.032   0.000  -0.032
   59        0.011   0.485  -0.000   0.496
   60        0.010   0.440  -0.000   0.450
   61        0.001  -0.004   0.000  -0.003
   62        0.000  -0.007   0.000  -0.007
   63        0.005   0.098   0.000   0.103
   64        0.005   0.070   0.000   0.075
   65        0.004   0.070   0.000   0.074
   66        0.004   0.107   0.000   0.111
   67        0.003  -0.021   0.000  -0.019
   68        0.002  -0.013   0.000  -0.011
   69        0.001  -0.029  -0.000  -0.028
   70       -0.001  -0.043   0.000  -0.044
   71        0.011   0.482  -0.000   0.493
   72        0.011   0.471  -0.000   0.482
   73       -0.001  -0.005  -0.000  -0.006
   74        0.000  -0.002   0.000  -0.002
   75        0.004   0.089   0.000   0.092
   76        0.003   0.028   0.000   0.031
   77        0.004   0.080   0.000   0.084
   78        0.004   0.102   0.000   0.106
   79       -0.000  -0.023   0.000  -0.023
   80       -0.004  -0.060  -0.000  -0.064
   81        0.001  -0.022   0.000  -0.021
   82        0.003  -0.006   0.000  -0.003
   83        0.010   0.461  -0.000   0.472
   84        0.009   0.384  -0.000   0.393
   85        0.000  -0.018   0.000  -0.018
   86       -0.002  -0.007  -0.000  -0.009
   87        0.004   0.058   0.000   0.061
   88        0.005   0.106   0.000   0.111
   89        0.004   0.111   0.000   0.115
   90        0.004   0.075   0.000   0.079
   91        0.002  -0.013   0.000  -0.011
   92        0.004  -0.008   0.000  -0.003
   93       -0.001  -0.042  -0.000  -0.043
   94       -0.002  -0.036  -0.000  -0.038
   95        0.009   0.391  -0.000   0.400
   96        0.011   0.505  -0.000   0.516
   97        0.001   0.004   0.000   0.005
   98        0.001   0.001   0.000   0.002
   99        0.004   0.065   0.000   0.069
  100        0.003   0.067   0.000   0.070
  101        0.003   0.037   0.000   0.040
  102        0.003   0.057   0.000   0.060
  103       -0.001  -0.038  -0.000  -0.039
  104       -0.000  -0.036   0.000  -0.036
  105        0.002  -0.019   0.000  -0.017
  106        0.004  -0.017   0.000  -0.013
  107        0.009   0.413  -0.000   0.422
  108        0.011   0.486  -0.000   0.496
  109       -0.000  -0.007   0.000  -0.007
  110        0.001   0.002   0.000   0.003
  111        0.005   0.075   0.000   0.080
  112        0.003   0.032   0.000   0.035
  113        0.005   0.095   0.000   0.100
  114        0.003   0.036   0.000   0.039
  115        0.004  -0.006   0.000  -0.001
  116        0.003  -0.021   0.000  -0.017
  117        0.003  -0.015   0.000  -0.011
  118        0.001  -0.022   0.000  -0.021
  119        0.011   0.488  -0.000   0.498
  120        0.010   0.453  -0.000   0.464
--------------------------------------------------
tot           0.20    6.80    9.63   16.63
 

 total amount of memory used by VASP MPI-rank0   564577. kBytes
=======================================================================

   base      :      30000. kBytes
   nonlr-proj:      62113. kBytes
   fftplans  :      10454. kBytes
   grid      :      60014. kBytes
   one-center:       3732. kBytes
   wavefun   :     398264. kBytes
 
  
  
 General timing and accounting informations for this job:
 ========================================================
  
                  Total CPU time used (sec):    15955.229
                            User time (sec):    15934.461
                          System time (sec):       20.769
                         Elapsed time (sec):    15998.714
  
                   Maximum memory used (kb):      668312.
                   Average memory used (kb):           0.
  
                          Minor page faults:        47455
                          Major page faults:           18
                 Voluntary context switches:         1171
