 vasp.5.4.4.18Apr17-6-g9f103f2a35 (build May 12 2020 04:58:55) complex          
  
 MD_VERSION_INFO: Compiled 2020-05-12T11:58:55-UTC in devlin.sd.materialsdesign.
 com:/home/medea2/data/build/wwolf/vasp-gpu5.4.4/13047/x86_64/src/src/build/std 
 from svn 13047
 
 This VASP executable licensed from Materials Design, Inc.
 
 executed on                        Lin64 date 2023.03.25  09:19:11
 running on   16 total cores
 distrk:  each k-point on   16 cores,    1 groups
 distr:  one band on NCORES_PER_BAND=   1 cores,   16 groups


--------------------------------------------------------------------------------------------------------


 INCAR:
 POTCAR:    PAW_PBE Ni 02Aug2007                  
 POTCAR:    PAW_PBE O 08Apr2002                   

 ----------------------------------------------------------------------------- 
|                                                                             |
|           W    W    AA    RRRRR   N    N  II  N    N   GGGG   !!!           |
|           W    W   A  A   R    R  NN   N  II  NN   N  G    G  !!!           |
|           W    W  A    A  R    R  N N  N  II  N N  N  G       !!!           |
|           W WW W  AAAAAA  RRRRR   N  N N  II  N  N N  G  GGG   !            |
|           WW  WW  A    A  R   R   N   NN  II  N   NN  G    G                |
|           W    W  A    A  R    R  N    N  II  N    N   GGGG   !!!           |
|                                                                             |
|      For optimal performance we recommend to set                            |
|        NCORE= 4 - approx SQRT( number of cores)                             |
|      NCORE specifies how many cores store one orbital (NPAR=cpu/NCORE).     |
|      This setting can  greatly improve the performance of VASP for DFT.     |
|      The default,   NCORE=1            might be grossly inefficient         |
|      on modern multi-core architectures or massively parallel machines.     |
|      Do your own testing !!!!                                               |
|      Unfortunately you need to use the default for GW and RPA calculations. |
|      (for HF NCORE is supported but not extensively tested yet)             |
|                                                                             |
 ----------------------------------------------------------------------------- 

 POTCAR:    PAW_PBE Ni 02Aug2007                  
  local pseudopotential read in
  partial core-charges read in
  partial kinetic energy density read in
  atomic valenz-charges read in
  non local Contribution for L=           2  read in
    real space projection operators read in
  non local Contribution for L=           2  read in
    real space projection operators read in
  non local Contribution for L=           0  read in
    real space projection operators read in
  non local Contribution for L=           0  read in
    real space projection operators read in
  non local Contribution for L=           1  read in
    real space projection operators read in
  non local Contribution for L=           1  read in
    real space projection operators read in
    PAW grid and wavefunctions read in
 
   number of l-projection  operators is LMAX  =           6
   number of lm-projection operators is LMMAX =          18
 
 POTCAR:    PAW_PBE O 08Apr2002                   
  local pseudopotential read in
  partial core-charges read in
  partial kinetic energy density read in
  kinetic energy density of atom read in
  atomic valenz-charges read in
  non local Contribution for L=           0  read in
    real space projection operators read in
  non local Contribution for L=           0  read in
    real space projection operators read in
  non local Contribution for L=           1  read in
    real space projection operators read in
  non local Contribution for L=           1  read in
    real space projection operators read in
    PAW grid and wavefunctions read in
 
   number of l-projection  operators is LMAX  =           4
   number of lm-projection operators is LMMAX =           8
 
 Optimization of the real space projectors (new method)

 maximal supplied QI-value         = 16.25
 optimisation between [QCUT,QGAM] = [ 11.38, 22.75] = [ 36.24,144.96] Ry 
 Optimized for a Real-space Cutoff    1.47 Angstroem

   l    n(q)    QCUT    max X(q) W(low)/X(q) W(high)/X(q)  e(spline) 
   2      9    11.376    60.317    0.17E-03    0.16E-04    0.16E-06
   2      9    11.376    55.921    0.17E-03    0.16E-04    0.17E-06
   0     10    11.376    51.690    0.45E-04    0.60E-04    0.21E-06
   0     10    11.376    30.015    0.37E-04    0.55E-04    0.19E-06
   1     10    11.376    18.849    0.83E-04    0.11E-03    0.92E-07
   1     10    11.376    14.624    0.69E-04    0.92E-04    0.82E-07
 Optimization of the real space projectors (new method)

 maximal supplied QI-value         = 24.76
 optimisation between [QCUT,QGAM] = [ 11.39, 22.77] = [ 36.31,145.25] Ry 
 Optimized for a Real-space Cutoff    1.10 Angstroem

   l    n(q)    QCUT    max X(q) W(low)/X(q) W(high)/X(q)  e(spline) 
   0      7    11.387    20.381    0.22E-03    0.48E-03    0.18E-06
   0      7    11.387    15.268    0.22E-03    0.52E-03    0.19E-06
   1      7    11.387     5.964    0.22E-03    0.73E-03    0.24E-06
   1      7    11.387     5.382    0.19E-03    0.60E-03    0.21E-06

 ----------------------------------------------------------------------------- 
|                                                                             |
|  ADVICE TO THIS USER RUNNING 'VASP/VAMP'   (HEAR YOUR MASTER'S VOICE ...):  |
|                                                                             |
|      You enforced a specific xc-type in the INCAR file,                     |
|      a different type was found on the POTCAR file                          |
|          I HOPE YOU KNOW, WHAT YOU ARE  DOING                               |
|                                                                             |
 ----------------------------------------------------------------------------- 

  PAW_PBE Ni 02Aug2007                  :
 energy of atom  1       EATOM=-1077.6739
 kinetic energy error for atom=    0.0030 (will be added to EATOM!!)
  PAW_PBE O 08Apr2002                   :
 energy of atom  2       EATOM= -432.3788
 kinetic energy error for atom=    0.0224 (will be added to EATOM!!)
 
 
 POSCAR: Ni2O3_Cmcm_scale_0_975_disp_0_05_round_2
  positions in direct lattice
  No initial velocities read in
 exchange correlation table for  LEXCH =       14
   RHO(1)=    0.500       N(1)  =     2000
   RHO(2)=  100.500       N(2)  =     4000
 


--------------------------------------------------------------------------------------------------------


 ion  position               nearest neighbor table
   1  0.003  0.369  0.049-  55 1.68 104 1.86  52 1.90 110 1.95  56 1.99  62 2.07  40 2.67  34 2.69
                            33 2.70   8 2.73   2 2.74  10 2.78   7 2.84  47 2.91  17 2.96  15 3.01
   2  0.161  0.144  0.972-  56 1.73  51 1.85  50 2.01  55 2.06  74 2.12  79 2.15  34 2.57  16 2.71
                             1 2.74   9 2.74   7 2.81  32 2.84   8 2.87  23 2.88  17 2.96  18 2.98
   3  0.000  0.372  0.462-  53 1.88 109 1.89 105 1.90  58 2.02  61 2.10  57 2.14  35 2.62  46 2.80
                            36 2.85   6 2.87  19 2.88  14 2.92  37 2.97  12 3.00
   4  0.188  0.137  0.562-  54 1.86  57 1.91  82 1.95  73 1.97  58 2.10  49 2.27  29 2.66  11 2.76
                            20 2.77  36 2.88  19 2.88  13 2.89   5 2.91  22 3.04
   5  0.177  0.410  0.656-  59 1.71  90 1.88  66 1.93  82 2.03  58 2.07  61 2.34  37 2.77  21 2.86
                             4 2.91  28 2.95  12 3.06
   6  0.999  0.102  0.371- 113 1.56  60 1.77  65 1.88 105 1.92  57 2.11  49 2.24  43 2.65  38 2.76
                            11 2.84   3 2.87  22 2.91  36 3.00
   7  0.994  0.103  0.141- 112 1.60  60 1.81  64 1.87 104 1.91  56 2.04  50 2.16  39 2.60  34 2.66
                            41 2.69   2 2.81   1 2.84  23 2.92   9 2.96
   8  0.172  0.420  0.889-  62 1.82  63 1.89  59 1.96  87 2.00  79 2.05  55 2.09  40 2.72   1 2.73
                            17 2.75   2 2.87  10 2.88  24 2.92  26 2.94
   9  0.164  0.874  0.042-  67 1.54  50 1.83  64 2.00  74 2.01  68 2.01  92 2.07  16 2.58  41 2.63
                             2 2.74  32 2.79  26 2.79  10 2.82  15 2.84   7 2.96  23 2.97  25 3.00
  10  0.989  0.641  0.975-  68 1.68 110 1.74  63 1.88 115 1.94  62 2.02  67 2.19  47 2.54  42 2.59
                            40 2.77   1 2.78  41 2.79   9 2.82  15 2.83   8 2.88  16 2.95  26 3.06
  11  0.168  0.885  0.466-  65 1.89  73 1.90  69 1.95  70 2.00  93 2.03  49 2.05  43 2.58   4 2.76
                            27 2.84   6 2.84  22 2.90  14 2.95  12 2.97  28 3.01  29 3.03  13 3.05
  12  0.998  0.652  0.561- 109 1.82  66 1.88  69 1.92 118 2.00  70 2.12  61 2.22  44 2.66  37 2.86
                            46 2.88  43 2.89  28 2.89  13 2.90  11 2.97   3 3.00  14 3.06   5 3.06
  13  0.994  0.925  0.652- 102 1.60  71 1.78 118 1.86  54 1.88  70 2.01  49 2.10  45 2.63  36 2.76
                             4 2.89  12 2.90  29 2.99  43 3.01  11 3.05
  14  0.167  0.606  0.374-  53 1.83  77 1.88  72 1.89  69 1.99  93 2.05  61 2.10  46 2.66   3 2.92
                            11 2.95  30 2.98  19 2.99  12 3.06  28 3.07
  15  0.179  0.611  0.138-  72 1.77  76 1.91  92 2.01  52 2.01  68 2.11  62 2.16  26 2.77  47 2.77
                            10 2.83   9 2.84  31 2.87  17 2.92   1 3.01
  16  0.997  0.929  0.895-  99 1.60  50 1.72 115 1.84  51 1.86  71 2.02  67 2.05  41 2.55   9 2.58
                            34 2.59  48 2.70   2 2.71  10 2.95  32 2.99
  17  0.351  0.380  0.048-  79 1.71  76 1.77  80 2.06  62 2.07  86 2.08  56 2.21  24 2.66   8 2.75
                            31 2.78  26 2.79  33 2.85  18 2.85  15 2.92   1 2.96   2 2.96  23 2.97
  18  0.511  0.137  0.979-  80 1.55  75 1.92  98 1.95  74 1.96  79 2.11 103 2.14  25 2.58  32 2.73
                            33 2.76  23 2.78  39 2.79  48 2.79  24 2.82  17 2.85  34 2.95   2 2.98
  19  0.339  0.365  0.462-  77 1.88  57 1.98  61 2.00  81 2.00  82 2.02  85 2.15  22 2.77   3 2.88
                             4 2.88  20 2.98  14 2.99  35 2.99  28 3.02
  20  0.514  0.132  0.557-  78 1.91  81 1.98  97 2.02  73 2.08  82 2.13 106 2.15  27 2.69  29 2.70
                            45 2.76   4 2.77  36 2.85  19 2.98  38 3.00  35 3.04  22 3.04
  21  0.514  0.425  0.652- 114 1.86  90 1.89  83 1.94 106 2.06  82 2.16  85 2.18   5 2.86  37 2.87
                            28 2.87  44 2.94
  22  0.342  0.107  0.370-  89 1.78  84 1.81  65 1.84  81 1.97  57 1.98  73 2.18  19 2.77  27 2.81
                            38 2.82  11 2.90   6 2.91   4 3.04  20 3.04
  23  0.338  0.101  0.143-  64 1.72  84 1.76  88 1.87  56 2.07  80 2.15  74 2.21  18 2.78  25 2.86
                             2 2.88   7 2.92  17 2.97   9 2.97  39 2.98
  24  0.516  0.403  0.889-  83 1.84  86 1.91  79 1.93 111 1.94 103 1.97  87 2.02  33 2.57  17 2.66
                            18 2.82  40 2.86   8 2.92  42 2.97  26 3.01
  25  0.517  0.886  0.050-  91 1.65  88 1.74  74 1.93  98 1.97  92 2.10 116 2.12  18 2.58  48 2.71
                            39 2.74  32 2.79  26 2.83  23 2.86  41 2.87  42 2.89  31 2.97   9 3.00
  26  0.350  0.653  0.974-  92 1.65  87 1.79  86 1.91  91 1.97  62 2.07  67 2.10  31 2.73  15 2.77
                            17 2.79   9 2.79  25 2.83  42 2.84  32 2.94   8 2.94  24 3.01  10 3.06
  27  0.502  0.886  0.462-  89 1.89  73 1.89  97 1.96  94 2.01  93 2.05 117 2.09  20 2.69  38 2.76
                            22 2.81  11 2.84  30 2.95  29 2.98  44 3.00  28 3.00  43 3.08
  28  0.339  0.647  0.562-  90 1.78  61 2.04  93 2.07  94 2.16  70 2.16  85 2.18  21 2.87  12 2.89
                            44 2.94   5 2.95  29 2.96  27 3.00  11 3.01  19 3.02  14 3.07
  29  0.346  0.932  0.648-  78 1.71  54 1.80  95 1.89  94 2.00  70 2.05  73 2.12   4 2.66  20 2.70
                            45 2.87  28 2.96  27 2.98  13 2.99  11 3.03
  30  0.518  0.611  0.365-  96 1.77 101 1.85  77 1.98 117 2.12  93 2.19  85 2.27  46 2.86  27 2.95
                            14 2.98  35 3.03
  31  0.516  0.598  0.135- 100 1.80  96 1.88  76 1.94  86 2.08  92 2.12 116 2.16  42 2.72  26 2.73
                            17 2.78  47 2.86  15 2.87  33 2.96  25 2.97
  32  0.348  0.933  0.885-  75 1.67  95 1.74  51 1.75  74 1.79  91 2.14  67 2.14  18 2.73   9 2.79
                            25 2.79  48 2.81   2 2.84  26 2.94  16 2.99
  33  0.685  0.367  0.037- 103 1.41 100 1.98 104 2.03 110 2.03  80 2.04  86 2.13  24 2.57  40 2.61
                             1 2.70  34 2.74  18 2.76  42 2.78  17 2.85  31 2.96  39 3.01  47 3.06
  34  0.858  0.142  0.974- 104 1.67  55 1.88  99 1.89  50 1.93  98 1.99 103 2.09   2 2.57  16 2.59
                            41 2.65   7 2.66   1 2.69  33 2.74  39 2.83  48 2.84  40 2.85  18 2.95
  35  0.691  0.372  0.463- 101 1.94 106 2.00 105 2.00  85 2.03 109 2.15  81 2.17   3 2.62  36 2.87
                            46 2.87  38 2.96  19 2.99  37 3.00  30 3.03  20 3.04
  36  0.849  0.146  0.559-  49 1.88 105 1.94 102 1.95  58 1.95 106 2.06  97 2.14  13 2.76  45 2.82
                            37 2.84  20 2.85   3 2.85  35 2.87  43 2.87   4 2.88   6 3.00
  37  0.852  0.414  0.649-  66 1.75 107 1.88 114 1.93  58 1.99 106 2.01 109 2.14   5 2.77  36 2.84
                            12 2.86  21 2.87   3 2.97  44 2.99  35 3.00
  38  0.674  0.092  0.371-  89 1.70 108 1.74 113 1.84  81 2.08  97 2.17 105 2.17  27 2.76   6 2.76
                            22 2.82  43 2.82  35 2.96  20 3.00
  39  0.688  0.089  0.141- 112 1.69  88 1.82 108 1.92 104 2.15  80 2.18  98 2.19   7 2.60  41 2.72
                            25 2.74  18 2.79  34 2.83  23 2.98  33 3.01
  40  0.852  0.412  0.886-  63 1.76  55 1.82 107 1.87 110 1.90 111 1.90 103 2.02  33 2.61   1 2.67
                             8 2.72  10 2.77  34 2.85  24 2.86  42 2.91
  41  0.855  0.886  0.050- 115 1.65  50 1.74 112 1.89  68 1.93  98 1.98 116 2.00  16 2.55   9 2.63
                            34 2.65   7 2.69  39 2.72  48 2.76  10 2.79  47 2.83  25 2.87  42 2.90
  42  0.685  0.645  0.975- 116 1.74 111 1.83  86 1.87 110 1.96  91 2.06 115 2.12  10 2.59  47 2.67
                            31 2.72  33 2.78  26 2.84  25 2.89  41 2.90  40 2.91  48 2.91  24 2.97
  43  0.864  0.885  0.457-  49 1.70 113 1.78  69 1.94  97 2.03 117 2.05 118 2.10  11 2.58   6 2.65
                            38 2.82  46 2.85  36 2.87  12 2.89  13 3.01  44 3.02  27 3.08
  44  0.685  0.662  0.565- 114 1.92 118 1.99  94 2.04 117 2.06  85 2.18 109 2.22  12 2.66  45 2.84
                            28 2.94  21 2.94  37 2.99  27 3.00  43 3.02  46 3.04
  45  0.684  0.930  0.654-  78 1.73 102 1.83 119 1.90 118 2.00  94 2.06  97 2.15  13 2.63  20 2.76
                            36 2.82  44 2.84  29 2.87
  46  0.854  0.607  0.380-  53 1.79 101 1.84 120 1.94  69 2.03 117 2.08 109 2.11  14 2.66   3 2.80
                            43 2.85  30 2.86  35 2.87  12 2.88  44 3.04
  47  0.852  0.615  0.133-  52 1.80  68 1.84 120 1.87 100 1.87 116 1.91 110 2.10  10 2.54  42 2.67
                            15 2.77  41 2.83  31 2.86   1 2.91  33 3.06
  48  0.679  0.923  0.888-  98 1.74  75 1.75 119 1.80  99 1.87  91 2.05 115 2.07  16 2.70  25 2.71
                            41 2.76  18 2.79  32 2.81  34 2.84  42 2.91
  49  0.981  0.003  0.514-  43 1.70  36 1.88  11 2.05  13 2.10   6 2.24   4 2.27
  50  0.005  0.994  0.007-  16 1.72  41 1.74   9 1.83  34 1.93   2 2.01   7 2.16
  51  0.177  0.032  0.866-  32 1.75   2 1.85  16 1.86
  52  0.996  0.481  0.160-  47 1.80   1 1.90  15 2.01
  53  0.006  0.482  0.352-  46 1.79  14 1.83   3 1.88
  54  0.175  0.036  0.674-  29 1.80   4 1.86  13 1.88
  55  0.991  0.293  0.942-   1 1.68  40 1.82  34 1.88   2 2.06   8 2.09
  56  0.165  0.225  0.081-   2 1.73   1 1.99   7 2.04  23 2.07  17 2.21
  57  0.179  0.216  0.439-   4 1.91  19 1.98  22 1.98   6 2.11   3 2.14
  58  0.010  0.285  0.591-  36 1.95  37 1.99   3 2.02   5 2.07   4 2.10
  59  0.168  0.330  0.765-   5 1.71   8 1.96
  60  0.990  0.178  0.257-   6 1.77   7 1.81
  61  0.182  0.508  0.505-  19 2.00  28 2.04  14 2.10   3 2.10  12 2.22   5 2.34
  62  0.172  0.510  0.001-   8 1.82  10 2.02  17 2.07  26 2.07   1 2.07  15 2.16
  63  0.998  0.539  0.863-  40 1.76  10 1.88   8 1.89
  64  0.176  0.995  0.157-  23 1.72   7 1.87   9 2.00
  65  0.176  0.985  0.350-  22 1.84   6 1.88  11 1.89
  66  0.001  0.538  0.669-  37 1.75  12 1.88   5 1.93
  67  0.171  0.800  0.945-   9 1.54  16 2.05  26 2.10  32 2.14  10 2.19
  68  0.997  0.732  0.077-  10 1.68  47 1.84  41 1.93   9 2.01  15 2.11
  69  0.018  0.735  0.439-  12 1.92  43 1.94  11 1.95  14 1.99  46 2.03
  70  0.167  0.807  0.597-  11 2.00  13 2.01  29 2.05  12 2.12  28 2.16
  71  0.003  0.843  0.764-  13 1.78  16 2.02
  72  0.177  0.685  0.252-  15 1.77  14 1.89
  73  0.337  0.002  0.506-  27 1.89  11 1.90   4 1.97  20 2.08  29 2.12  22 2.18
  74  0.344  0.998  0.003-  32 1.79  25 1.93  18 1.96   9 2.01   2 2.12  23 2.21
  75  0.512  0.027  0.866-  32 1.67  48 1.75  18 1.92
  76  0.340  0.473  0.157-  17 1.77  15 1.91  31 1.94
  77  0.336  0.481  0.355-  19 1.88  14 1.88  30 1.98
  78  0.513  0.026  0.672-  29 1.71  45 1.73  20 1.91
  79  0.345  0.293  0.943-  17 1.71  24 1.93   8 2.05  18 2.11   2 2.15
  80  0.514  0.223  0.072-  18 1.55  33 2.04  17 2.06  23 2.15  39 2.18
  81  0.505  0.222  0.432-  22 1.97  20 1.98  19 2.00  38 2.08  35 2.17
  82  0.340  0.284  0.593-   4 1.95  19 2.02   5 2.03  20 2.13  21 2.16
  83  0.507  0.325  0.771-  24 1.84  21 1.94
  84  0.338  0.183  0.253-  23 1.76  22 1.81
  85  0.521  0.506  0.509-  35 2.03  19 2.15  28 2.18  44 2.18  21 2.18  30 2.27
  86  0.517  0.522  0.997-  42 1.87  24 1.91  26 1.91  17 2.08  31 2.08  33 2.13
  87  0.351  0.553  0.868-  26 1.79   8 2.00  24 2.02
  88  0.512  0.982  0.155-  25 1.74  39 1.82  23 1.87
  89  0.508  0.996  0.352-  38 1.70  22 1.78  27 1.89
  90  0.338  0.546  0.668-  28 1.78   5 1.88  21 1.89
  91  0.515  0.795  0.951-  25 1.65  26 1.97  48 2.05  42 2.06  32 2.14
  92  0.343  0.734  0.077-  26 1.65  15 2.01   9 2.07  25 2.10  31 2.12
  93  0.332  0.739  0.430-  11 2.03  14 2.05  27 2.05  28 2.07  30 2.19
  94  0.512  0.806  0.593-  29 2.00  27 2.01  44 2.04  45 2.06  28 2.16
  95  0.345  0.860  0.772-  32 1.74  29 1.89
  96  0.519  0.691  0.252-  30 1.77  31 1.88
  97  0.680  0.997  0.510-  27 1.96  20 2.02  43 2.03  36 2.14  45 2.15  38 2.17
  98  0.685  0.005  0.998-  48 1.74  18 1.95  25 1.97  41 1.98  34 1.99  39 2.19
  99  0.858  0.032  0.863-  16 1.60  48 1.87  34 1.89
 100  0.686  0.487  0.151-  31 1.80  47 1.87  33 1.98
 101  0.688  0.490  0.352-  46 1.84  30 1.85  35 1.94
 102  0.859  0.038  0.675-  13 1.60  45 1.83  36 1.95
 103  0.685  0.294  0.950-  33 1.41  24 1.97  40 2.02  34 2.09  18 2.14
 104  0.856  0.229  0.076-  34 1.67   1 1.86   7 1.91  33 2.03  39 2.15
 105  0.854  0.226  0.433-   3 1.90   6 1.92  36 1.94  35 2.00  38 2.17
 106  0.680  0.294  0.593-  35 2.00  37 2.01  21 2.06  36 2.06  20 2.15
 107  0.859  0.327  0.767-  40 1.87  37 1.88
 108  0.680  0.178  0.262-  38 1.74  39 1.92
 109  0.870  0.514  0.514-  12 1.82   3 1.89  46 2.11  37 2.14  35 2.15  44 2.22
 110  0.854  0.510  0.003-  10 1.74  40 1.90   1 1.95  42 1.96  33 2.03  47 2.10
 111  0.681  0.540  0.867-  42 1.83  40 1.90  24 1.94
 112  0.854  0.995  0.162-   7 1.60  39 1.69  41 1.89
 113  0.860  0.996  0.355-   6 1.56  43 1.78  38 1.84
 114  0.683  0.545  0.675-  21 1.86  44 1.92  37 1.93
 115  0.856  0.803  0.948-  41 1.65  16 1.84  10 1.94  48 2.07  42 2.12
 116  0.697  0.737  0.081-  42 1.74  47 1.91  41 2.00  25 2.12  31 2.16
 117  0.685  0.745  0.431-  43 2.05  44 2.06  46 2.08  27 2.09  30 2.12
 118  0.848  0.807  0.595-  13 1.86  44 1.99  45 2.00  12 2.00  43 2.10
 119  0.685  0.843  0.774-  48 1.80  45 1.90
 120  0.857  0.689  0.255-  47 1.87  46 1.94
 
  LATTYP: Found a simple orthorhombic cell.
 ALAT       =     8.4905632500
 B/A-ratio  =     1.1146370060
 C/A-ratio  =     1.6738812646
  
  Lattice vectors:
  
 A1 = (   8.4905632500,   0.0000000000,   0.0000000000)
 A2 = (   0.0000000000,   9.4638960000,   0.0000000000)
 A3 = (   0.0000000000,   0.0000000000,  14.2121947500)


Analysis of symmetry for initial positions (statically):
=====================================================================
 Subroutine PRICEL returns:
 Original cell was already a primitive cell.
 

 Routine SETGRP: Setting up the symmetry group for a 
 simple orthorhombic supercell.


 Subroutine GETGRP returns: Found  1 space group operations
 (whereof  1 operations were pure point group operations)
 out of a pool of  8 trial point group operations.


The static configuration has the point symmetry C_1 .


Analysis of symmetry for dynamics (positions and initial velocities):
=====================================================================
 Subroutine PRICEL returns:
 Original cell was already a primitive cell.
 

 Routine SETGRP: Setting up the symmetry group for a 
 simple orthorhombic supercell.


 Subroutine GETGRP returns: Found  1 space group operations
 (whereof  1 operations were pure point group operations)
 out of a pool of  8 trial point group operations.


The dynamic configuration has the point symmetry C_1 .


Analysis of structural, dynamic, and magnetic symmetry:
=====================================================================
 Subroutine PRICEL returns:
 Original cell was already a primitive cell.
 

 Routine SETGRP: Setting up the symmetry group for a 
 simple orthorhombic supercell.


 Subroutine GETGRP returns: Found  1 space group operations
 (whereof  1 operations were pure point group operations)
 out of a pool of  8 trial point group operations.


The magnetic configuration has the point symmetry C_1 .


 Subroutine INISYM returns: Found  1 space group operations
 (whereof  1 operations are pure point group operations),
 and found     1 'primitive' translations

 
 
 KPOINTS: Automatic mesh                          

Automatic generation of k-mesh.
Space group operators:
 irot       det(A)        alpha          n_x          n_y          n_z        tau_x        tau_y        tau_z
    1     1.000000     0.000001     1.000000     0.000000     0.000000     0.000000     0.000000     0.000000
 
 Subroutine IBZKPT returns following result:
 ===========================================
 
 Found     10 irreducible k-points:
 
 Following reciprocal coordinates:
            Coordinates               Weight
  0.000000  0.000000  0.000000      1.000000
  0.333333  0.000000  0.000000      2.000000
  0.000000  0.333333  0.000000      2.000000
  0.333333  0.333333  0.000000      2.000000
 -0.333333  0.333333  0.000000      2.000000
  0.000000  0.000000  0.500000      1.000000
  0.333333  0.000000  0.500000      2.000000
  0.000000  0.333333  0.500000      2.000000
  0.333333  0.333333  0.500000      2.000000
 -0.333333  0.333333  0.500000      2.000000
 
 Following cartesian coordinates:
            Coordinates               Weight
  0.000000  0.000000  0.000000      1.000000
  0.039259  0.000000  0.000000      2.000000
  0.000000  0.035222  0.000000      2.000000
  0.039259  0.035222  0.000000      2.000000
 -0.039259  0.035222  0.000000      2.000000
  0.000000  0.000000  0.035181      1.000000
  0.039259  0.000000  0.035181      2.000000
  0.000000  0.035222  0.035181      2.000000
  0.039259  0.035222  0.035181      2.000000
 -0.039259  0.035222  0.035181      2.000000
 


--------------------------------------------------------------------------------------------------------




 Dimension of arrays:
   k-points           NKPTS =     10   k-points in BZ     NKDIM =     10   number of bands    NBANDS=    608
   number of dos      NEDOS =    301   number of ions     NIONS =    120
   non local maximal  LDIM  =      6   non local SUM 2l+1 LMDIM =     18
   total plane-waves  NPLWV = 483840
   max r-space proj   IRMAX =   5738   max aug-charges    IRDMAX=  13931
   dimension x,y,z NGX =    64 NGY =   70 NGZ =  108
   dimension x,y,z NGXF=   128 NGYF=  140 NGZF=  216
   support grid    NGXF=   128 NGYF=  140 NGZF=  216
   ions per type =              48  72
   NGX,Y,Z   is equivalent  to a cutoff of  12.53, 12.30, 12.63 a.u.
   NGXF,Y,Z  is equivalent  to a cutoff of  25.06, 24.59, 25.27 a.u.

 SYSTEM =  unknown system                          
 POSCAR =  Ni2O3_Cmcm_scale_0_975_disp_0_05_round_2

 Startparameter for this run:
   NWRITE =      1    write-flag & timer
   PREC   = accura    normal or accurate (medium, high low for compatibility)
   ISTART =      0    job   : 0-new  1-cont  2-samecut
   ICHARG =      2    charge: 1-file 2-atom 10-const
   ISPIN  =      2    spin polarized calculation?
   LNONCOLLINEAR =      F non collinear calculations
   LSORBIT =      F    spin-orbit coupling
   INIWAV =      1    electr: 0-lowe 1-rand  2-diag
   LASPH  =      F    aspherical Exc in radial PAW
   METAGGA=      F    non-selfconsistent MetaGGA calc.

 Electronic Relaxation 1
   ENCUT  =  500.0 eV  36.75 Ry    6.06 a.u.  15.48 17.25 25.91*2*pi/ulx,y,z
   ENINI  =  500.0     initial cutoff
   ENAUG  =  605.4 eV  augmentation charge cutoff
   NELM   =     80;   NELMIN=  2; NELMDL= -5     # of ELM steps 
   EDIFF  = 0.1E-04   stopping-criterion for ELM
   LREAL  =      T    real-space projection
   NLSPLINE    = F    spline interpolate recip. space projectors
   LCOMPAT=      F    compatible to vasp.4.4
   GGA_COMPAT  = T    GGA compatible to vasp.4.4-vasp.4.6
   LMAXPAW     = -100 max onsite density
   LMAXMIX     =    2 max onsite mixed and CHGCAR
   VOSKOWN=      1    Vosko Wilk Nusair interpolation
   ROPT   =   -0.00025  -0.00025
 Ionic relaxation
   EDIFFG = 0.1E-03   stopping-criterion for IOM
   NSW    =      0    number of steps for IOM
   NBLOCK =      1;   KBLOCK =      1    inner block; outer block 
   IBRION =     -1    ionic relax: 0-MD 1-quasi-New 2-CG
   NFREE  =      0    steps in history (QN), initial steepest desc. (CG)
   ISIF   =      2    stress and relaxation
   IWAVPR =     10    prediction:  0-non 1-charg 2-wave 3-comb
   ISYM   =      2    0-nonsym 1-usesym 2-fastsym
   LCORR  =      T    Harris-Foulkes like correction to forces

   POTIM  = 0.5000    time-step for ionic-motion
   TEIN   =    0.0    initial temperature
   TEBEG  =    0.0;   TEEND  =   0.0 temperature during run
   SMASS  =  -3.00    Nose mass-parameter (am)
   estimated Nose-frequenzy (Omega)   =  0.10E-29 period in steps =****** mass=  -0.165E-26a.u.
   SCALEE = 1.0000    scale energy and forces
   NPACO  =    256;   APACO  = 16.0  distance and # of slots for P.C.
   PSTRESS=    0.0 pullay stress

  Mass of Ions in am
   POMASS =  58.69 16.00
  Ionic Valenz
   ZVAL   =  10.00  6.00
  Atomic Wigner-Seitz radii
   RWIGS  =   1.15  0.73
  virtual crystal weights 
   VCA    =   1.00  1.00
   NELECT =     912.0000    total number of electrons
   NUPDOWN=      -1.0000    fix difference up-down

 DOS related values:
   EMIN   =  10.00;   EMAX   =-10.00  energy-range for DOS
   EFERMI =   0.00
   ISMEAR =     0;   SIGMA  =   0.05  broadening in eV -4-tet -1-fermi 0-gaus

 Electronic relaxation 2 (details)
   IALGO  =     38    algorithm
   LDIAG  =      T    sub-space diagonalisation (order eigenvalues)
   LSUBROT=      F    optimize rotation matrix (better conditioning)
   TURBO    =      0    0=normal 1=particle mesh
   IRESTART =      0    0=no restart 2=restart with 2 vectors
   NREBOOT  =      0    no. of reboots
   NMIN     =      0    reboot dimension
   EREF     =   0.00    reference energy to select bands
   IMIX   =      4    mixing-type and parameters
     AMIX     =   0.40;   BMIX     =  1.00
     AMIX_MAG =   1.60;   BMIX_MAG =  1.00
     AMIN     =   0.10
     WC   =   100.;   INIMIX=   1;  MIXPRE=   1;  MAXMIX= -45

 Intra band minimization:
   WEIMIN = 0.0000     energy-eigenvalue tresh-hold
   EBREAK =  0.41E-08  absolut break condition
   DEPER  =   0.30     relativ break condition  

   TIME   =   0.40     timestep for ELM

  volume/ion in A,a.u.               =       9.52        64.22
  Fermi-wavevector in a.u.,A,eV,Ry     =   1.518858  2.870226 31.387693  2.306930
  Thomas-Fermi vector in A             =   2.627922
 
 Write flags
   LWAVE        =      F    write WAVECAR
   LDOWNSAMPLE  =      F    k-point downsampling of WAVECAR
   LCHARG       =      T    write CHGCAR
   LVTOT        =      F    write LOCPOT, total local potential
   LVHAR        =      F    write LOCPOT, Hartree potential only
   LELF         =      F    write electronic localiz. function (ELF)
   LORBIT       =      0    0 simple, 1 ext, 2 COOP (PROOUT), +10 PAW based schemes


 Dipole corrections
   LMONO  =      F    monopole corrections only (constant potential shift)
   LDIPOL =      F    correct potential (dipole corrections)
   IDIPOL =      0    1-x, 2-y, 3-z, 4-all directions 
   EPSILON=  1.0000000 bulk dielectric constant

 Exchange correlation treatment:
   GGA     =    PS    GGA type
   LEXCH   =    14    internal setting for exchange type
   VOSKOWN=      1    Vosko Wilk Nusair interpolation
   LHFCALC =     F    Hartree Fock is set to
   LHFONE  =     F    Hartree Fock one center treatment
   AEXX    =    0.0000 exact exchange contribution

 Linear response parameters
   LEPSILON=     F    determine dielectric tensor
   LRPA    =     F    only Hartree local field effects (RPA)
   LNABLA  =     F    use nabla operator in PAW spheres
   LVEL    =     F    velocity operator in full k-point grid
   LINTERFAST=   F  fast interpolation
   KINTER  =     0    interpolate to denser k-point grid
   CSHIFT  =0.1000    complex shift for real part using Kramers Kronig
   OMEGAMAX=  -1.0    maximum frequency
   DEG_THRESHOLD= 0.2000000E-02 threshold for treating states as degnerate
   RTIME   =   -0.100 relaxation time in fs
  (WPLASMAI=    0.000 imaginary part of plasma frequency in eV, 0.658/RTIME)
   DFIELD  = 0.0000000 0.0000000 0.0000000 field for delta impulse in time
 
 Orbital magnetization related:
   ORBITALMAG=     F  switch on orbital magnetization
   LCHIMAG   =     F  perturbation theory with respect to B field
   DQ        =  0.001000  dq finite difference perturbation B field
   LLRAUG    =     F  two centre corrections for induced B field



--------------------------------------------------------------------------------------------------------


 Static calculation
 charge density and potential will be updated during run
 spin polarized calculation
 Variant of blocked Davidson
 Davidson routine will perform the subspace rotation
 perform sub-space diagonalisation
    after iterative eigenvector-optimisation
 modified Broyden-mixing scheme, WC =      100.0
 initial mixing is a Kerker type mixing with AMIX =  0.4000 and BMIX =      1.0000
 Hartree-type preconditioning will be used
 using additional bands          152
 real space projection scheme for non local part
 use partial core corrections
 calculate Harris-corrections to forces 
   (improved forces if not selfconsistent)
 use gradient corrections 
 use of overlap-Matrix (Vanderbilt PP)
 Gauss-broadening in eV      SIGMA  =   0.05


--------------------------------------------------------------------------------------------------------


  energy-cutoff  :      500.00
  volume of cell :     1142.00
      direct lattice vectors                 reciprocal lattice vectors
     8.490563250  0.000000000  0.000000000     0.117777816  0.000000000  0.000000000
     0.000000000  9.463896000  0.000000000     0.000000000  0.105664728  0.000000000
     0.000000000  0.000000000 14.212194750     0.000000000  0.000000000  0.070362109

  length of vectors
     8.490563250  9.463896000 14.212194750     0.117777816  0.105664728  0.070362109


 
 k-points in units of 2pi/SCALE and weight: Automatic mesh                          
   0.00000000  0.00000000  0.00000000       0.056
   0.03925927  0.00000000  0.00000000       0.111
   0.00000000  0.03522158  0.00000000       0.111
   0.03925927  0.03522158  0.00000000       0.111
  -0.03925927  0.03522158  0.00000000       0.111
   0.00000000  0.00000000  0.03518105       0.056
   0.03925927  0.00000000  0.03518105       0.111
   0.00000000  0.03522158  0.03518105       0.111
   0.03925927  0.03522158  0.03518105       0.111
  -0.03925927  0.03522158  0.03518105       0.111
 
 k-points in reciprocal lattice and weights: Automatic mesh                          
   0.00000000  0.00000000  0.00000000       0.056
   0.33333333  0.00000000  0.00000000       0.111
   0.00000000  0.33333333  0.00000000       0.111
   0.33333333  0.33333333  0.00000000       0.111
  -0.33333333  0.33333333  0.00000000       0.111
   0.00000000  0.00000000  0.50000000       0.056
   0.33333333  0.00000000  0.50000000       0.111
   0.00000000  0.33333333  0.50000000       0.111
   0.33333333  0.33333333  0.50000000       0.111
  -0.33333333  0.33333333  0.50000000       0.111
 
 position of ions in fractional coordinates (direct lattice) 
   0.00278536  0.36907679  0.04880165
   0.16092814  0.14412262  0.97229300
   0.00003019  0.37204173  0.46203275
   0.18785542  0.13698515  0.56243138
   0.17739756  0.41001075  0.65638409
   0.99928067  0.10173910  0.37076440
   0.99393721  0.10278138  0.14060667
   0.17176124  0.41981606  0.88865521
   0.16414569  0.87380387  0.04203212
   0.98947011  0.64124306  0.97541458
   0.16783187  0.88529028  0.46562810
   0.99773655  0.65162267  0.56102694
   0.99412758  0.92547981  0.65178614
   0.16695124  0.60618887  0.37360705
   0.17881015  0.61089384  0.13765333
   0.99655342  0.92864413  0.89468695
   0.35084477  0.38040039  0.04808120
   0.51137068  0.13663395  0.97892834
   0.33902651  0.36468293  0.46218561
   0.51428804  0.13174426  0.55732316
   0.51354344  0.42535570  0.65228688
   0.34206540  0.10660338  0.37024293
   0.33756255  0.10084215  0.14262911
   0.51551580  0.40259137  0.88940004
   0.51675135  0.88574259  0.05029205
   0.35016818  0.65323434  0.97439945
   0.50199020  0.88583439  0.46235998
   0.33856805  0.64698100  0.56173422
   0.34621063  0.93154589  0.64772112
   0.51805629  0.61087187  0.36522643
   0.51632975  0.59845432  0.13483643
   0.34810526  0.93270001  0.88453270
   0.68508644  0.36653005  0.03733841
   0.85819526  0.14189442  0.97391803
   0.69135752  0.37222509  0.46319498
   0.84902223  0.14624036  0.55920415
   0.85169620  0.41392127  0.64887721
   0.67379351  0.09247400  0.37085664
   0.68785326  0.08942758  0.14124233
   0.85161765  0.41210687  0.88617624
   0.85488884  0.88603248  0.04997501
   0.68500299  0.64474173  0.97525315
   0.86426458  0.88485993  0.45660924
   0.68474906  0.66194542  0.56488154
   0.68408998  0.93040240  0.65393274
   0.85376545  0.60662770  0.37972147
   0.85233466  0.61454294  0.13329115
   0.67912175  0.92314150  0.88824434
   0.98146521  0.00282725  0.51363844
   0.00510927  0.99393372  0.00743849
   0.17683803  0.03229246  0.86556728
   0.99578200  0.48052333  0.16013162
   0.00555661  0.48214593  0.35189103
   0.17493512  0.03550190  0.67423996
   0.99099597  0.29289398  0.94217390
   0.16499839  0.22480795  0.08116545
   0.17923354  0.21644760  0.43863237
   0.00963695  0.28501875  0.59147620
   0.16757622  0.33044340  0.76451866
   0.99004982  0.17813665  0.25731713
   0.18171332  0.50753199  0.50546172
   0.17180666  0.51035667  0.00125323
   0.99765693  0.53873184  0.86258158
   0.17567019  0.99451603  0.15722623
   0.17607851  0.98543546  0.35029722
   0.00116553  0.53816962  0.66925423
   0.17103743  0.79985403  0.94539457
   0.99667194  0.73235894  0.07661195
   0.01791216  0.73487688  0.43875433
   0.16748483  0.80749305  0.59651908
   0.00265524  0.84306256  0.76438424
   0.17663076  0.68522656  0.25192618
   0.33667431  0.00182637  0.50649908
   0.34429555  0.99845823  0.00258281
   0.51208148  0.02681321  0.86571660
   0.33981679  0.47274747  0.15654227
   0.33594872  0.48052069  0.35487748
   0.51265259  0.02619439  0.67211410
   0.34521500  0.29314823  0.94296864
   0.51449064  0.22330195  0.07178567
   0.50519626  0.22237262  0.43163505
   0.33954564  0.28426695  0.59347714
   0.50717300  0.32520244  0.77101629
   0.33823541  0.18336769  0.25347473
   0.52053184  0.50627595  0.50858916
   0.51692004  0.52221931  0.99719847
   0.35112153  0.55342392  0.86778413
   0.51154132  0.98153802  0.15512208
   0.50805245  0.99572116  0.35150383
   0.33796550  0.54582591  0.66762190
   0.51505896  0.79522259  0.95074442
   0.34276332  0.73414225  0.07747481
   0.33238818  0.73905629  0.42990039
   0.51214094  0.80630002  0.59337374
   0.34467718  0.86039399  0.77166216
   0.51936446  0.69064885  0.25220277
   0.68003518  0.99656136  0.50956606
   0.68460718  0.00515386  0.99789000
   0.85827258  0.03246582  0.86281842
   0.68580525  0.48732269  0.15147125
   0.68785834  0.48958593  0.35157487
   0.85919323  0.03772549  0.67527740
   0.68523144  0.29434814  0.95020504
   0.85579369  0.22886680  0.07618054
   0.85376146  0.22606078  0.43330214
   0.67984001  0.29414128  0.59341816
   0.85904150  0.32676176  0.76743174
   0.67968405  0.17822018  0.26232904
   0.86961590  0.51388224  0.51414501
   0.85355889  0.50998673  0.00313240
   0.68137456  0.53990358  0.86725337
   0.85377573  0.99482775  0.16176544
   0.86047437  0.99644137  0.35546793
   0.68327719  0.54497518  0.67490035
   0.85631851  0.80305172  0.94767962
   0.69668109  0.73734309  0.08117490
   0.68475519  0.74542545  0.43089241
   0.84760778  0.80677158  0.59492715
   0.68503455  0.84258482  0.77377201
   0.85737836  0.68899180  0.25477293
 
 position of ions in cartesian coordinates  (Angst):
   0.02364928  3.49290436  0.69357855
   1.36637055  1.36396149 13.81841747
   0.00025633  3.52096424  6.56649942
   1.59499833  1.29641321  7.99338431
   1.50620520  3.88029910  9.32865852
   8.48445573  0.96284826  5.26937586
   8.43908675  0.97271229  1.99832938
   1.45834967  3.97309553 12.62974091
   1.39368936  8.26958895  0.59736868
   8.40115855  6.06865763 13.86278197
   1.42498711  8.37829514  6.61759724
   8.47134528  6.16688918  7.97342413
   8.44070310  8.75864467  9.26331156
   1.41751006  5.73690842  5.30977615
   1.51819889  5.78143577  1.95635593
   8.46129984  8.78859147 12.71546517
   2.97886971  3.60006973  0.68333938
   4.34182510  1.29308949 13.91272021
   2.87852603  3.45132132  6.56867190
   4.36659513  1.24681398  7.92078529
   4.36027306  4.02552211  9.27042817
   2.90432791  1.00888330  5.26196463
   2.86609618  0.95435962  2.02707269
   4.37701951  3.81008286 12.64032658
   4.38751002  8.38257575  0.71476041
   2.97312508  6.18214186 13.84835475
   4.26217954  8.38344454  6.57115008
   2.87463344  6.12296090  7.98347613
   2.93952325  8.81605342  9.20553870
   4.39858970  5.78122785  5.19066915
   4.38393040  5.66370945  1.91632160
   2.95560973  8.82697589 12.57115100
   5.81676975  3.46880227  0.53066075
   7.28656114  1.34287403 13.84151271
   5.87001475  3.52269954  6.58301726
   7.20867694  1.38400356  7.94751828
   7.23138046  3.91730785  9.22196928
   5.72088641  0.87516432  5.27068679
   5.84026161  0.84633332  2.00736350
   7.23071352  3.90013656 12.59450931
   7.25848777  8.38531924  0.71025457
   5.81606121  6.10176868 13.86048770
   7.33809308  8.37422235  6.48941944
   5.81390520  6.26458261  8.02820646
   5.80830924  8.80523155  9.29381945
   7.24894955  5.74106146  5.39667548
   7.23680134  5.81597047  1.89435978
   5.76612617  8.73651515 12.62390155
   8.33319244  0.02675680  7.29992954
   0.04338058  9.40648536  0.10571727
   1.50145448  0.30561248 12.30161075
   8.45475005  4.54762282  2.27582177
   0.04717875  4.56297894  5.00114385
   1.48529770  0.33598629  9.58242962
   8.41411396  2.77191817 13.39035896
   1.40092927  2.12755906  1.15353918
   1.52179371  2.04843758  6.23392867
   0.08182313  2.69738781  8.40617494
   1.42281650  3.12728197 10.86548809
   8.40608062  1.68586673  3.65704116
   1.54284844  4.80322997  7.18372040
   1.45873531  4.82996245  0.01781115
   8.47066927  5.09850211 12.25917740
   1.49153886  9.41199628  2.23452980
   1.49500573  9.32605871  4.97849231
   0.00989601  5.09318131  9.51157145
   1.45220412  7.56973536 13.43613174
   8.46230615  6.93096884  1.08882395
   0.15208433  6.95479837  6.23566199
   1.42204054  7.64203025  8.47784534
   0.02254448  7.97865639 10.86357768
   1.49969464  6.48491290  3.58042393
   2.85855452  0.01728458  7.19846357
   2.92326314  9.44930485  0.03670740
   4.34786020  0.25375743 12.30373292
   2.88523595  4.47403289  2.22480923
   2.85239386  4.54759784  5.04358786
   4.35270924  0.24790098  9.55221648
   2.93106979  2.77432436 13.40165395
   4.36831532  2.11330643  1.02023192
   4.28940080  2.10451135  6.13448139
   2.88293373  2.69027285  8.43461269
   4.30618444  3.07768207 10.95783367
   2.87180914  1.73537275  3.60243223
   4.41960851  4.79134294  7.22816819
   4.38894229  4.94222924 14.17237886
   2.98121956  5.23754642 12.33311706
   4.34327393  9.28917374  2.20462521
   4.31365146  9.42340150  4.99564089
   2.86951745  5.16563965  9.48837246
   4.37314068  7.52590389 13.51216485
   2.91025365  6.94784590  1.10108709
   2.82216287  6.99435187  6.10982807
   4.34836504  7.63073953  8.43314315
   2.92650340  8.14267924 10.96701290
   4.40969680  6.53622889  3.58435488
   5.77388171  9.43135307  7.24205208
   5.81270056  0.04877560 14.18220702
   7.28721763  0.30725314 12.26254342
   5.82287285  4.61197126  2.15273890
   5.84030474  4.63339032  4.99665052
   7.29503446  0.35703011  9.59717392
   5.81800088  2.78568018 13.50449908
   7.26617045  2.16597159  1.08269267
   7.24891568  2.13941571  6.15817440
   5.77222460  2.78372248  8.43377446
   7.29374619  3.09243931 10.90688935
   5.77090042  1.68665725  3.72827141
   7.38352880  4.86332808  7.30712901
   7.24719574  4.82646137  0.04451828
   5.78525380  5.10959133 12.32557379
   7.24903684  9.41494636  2.29904194
   7.30591206  9.43021750  5.05197945
   5.80140820  5.15758843  9.59181521
   7.27062647  7.59999796 13.46860732
   5.91521486  6.97813832  1.15367349
   5.81395725  7.05462893  6.12392685
   7.19666747  7.63520233  8.45522052
   5.81632918  7.97413511 10.99699850
   7.27962519  6.52054674  3.62088250
 


--------------------------------------------------------------------------------------------------------


 k-point  1 :   0.0000 0.0000 0.0000  plane waves:   28987
 k-point  2 :   0.3333 0.0000 0.0000  plane waves:   28977
 k-point  3 :   0.0000 0.3333 0.0000  plane waves:   29012
 k-point  4 :   0.3333 0.3333 0.0000  plane waves:   28999
 k-point  5 :  -0.3333 0.3333 0.0000  plane waves:   28999
 k-point  6 :   0.0000 0.0000 0.5000  plane waves:   29068
 k-point  7 :   0.3333 0.0000 0.5000  plane waves:   29008
 k-point  8 :   0.0000 0.3333 0.5000  plane waves:   28982
 k-point  9 :   0.3333 0.3333 0.5000  plane waves:   28978
 k-point 10 :  -0.3333 0.3333 0.5000  plane waves:   28978

 maximum and minimum number of plane-waves per node :     29068    28977

 maximum number of plane-waves:     29068
 maximum index in each direction: 
   IXMAX=   15   IYMAX=   17   IZMAX=   25
   IXMIN=  -15   IYMIN=  -17   IZMIN=  -26

 The following grids will avoid any aliasing or wrap around errors in the Hartre
 e energy
  - symmetry arguments have not been applied
  - exchange correlation energies might require even more grid points
  - we recommend to set PREC=Normal or Accurate and rely on VASP defaults
 NGX is ok and might be reduce to    64
 NGY is ok and might be reduce to    70
 NGZ is ok and might be reduce to   108

 serial   3D FFT for wavefunctions
 parallel 3D FFT for charge:
    minimum data exchange during FFTs selected (reduces bandwidth)


 total amount of memory used by VASP MPI-rank0   538461. kBytes
=======================================================================

   base      :      30000. kBytes
   nonlr-proj:      65200. kBytes
   fftplans  :      10153. kBytes
   grid      :      58351. kBytes
   one-center:       3732. kBytes
   wavefun   :     371025. kBytes
 
     INWAV:  cpu time    0.0000: real time    0.0000
 Broyden mixing: mesh for mixing (old mesh)
   NGX = 31   NGY = 35   NGZ = 51
  (NGX  =128   NGY  =140   NGZ  =216)
  gives a total of  55335 points

 initial charge density was supplied:
 charge density of overlapping atoms calculated
 number of electron     912.0000000 magnetization     120.0000000
 keeping initial charge density in first step


--------------------------------------------------------------------------------------------------------


 Maximum index for non-local projection operator         5546
 Maximum index for augmentation-charges          959 (set IRDMAX)


--------------------------------------------------------------------------------------------------------


 First call to EWALD:  gamma=   0.170
 Maximum number of real-space cells 3x 3x 2
 Maximum number of reciprocal cells 2x 3x 4

    FEWALD:  cpu time    0.0047: real time    0.0047


--------------------------------------- Iteration      1(   1)  ---------------------------------------


    POTLOK:  cpu time    0.2565: real time    0.2586
    SETDIJ:  cpu time    0.0357: real time    0.0358
     EDDAV:  cpu time  115.4604: real time  115.7490
    --------------------------------------------
      LOOP:  cpu time  115.7552: real time  116.0461

 eigenvalue-minimisations  : 24320
 total energy-change (2. order) : 0.1207789E+05  (-0.3795609E+05)
 number of electron     912.0000000 magnetization     120.0000000
 augmentation part      912.0000000 magnetization     120.0000000

 Free energy of the ion-electron system (eV)
  ---------------------------------------------------
  alpha Z        PSCENC =      3286.56245407
  Ewald energy   TEWEN  =    -56817.01539255
  -Hartree energ DENC   =    -30204.41429720
  -exchange      EXHF   =         0.00000000
  -V(xc)+E(xc)   XCENC  =      3612.26410711
  PAW double counting   =     71080.72462945   -74396.17323249
  entropy T*S    EENTRO =        -0.01529219
  eigenvalues    EBANDS =     12810.13540245
  atomic energy  EATOM  =     82705.81968683
  Solvation  Ediel_sol  =         0.00000000
  ---------------------------------------------------
  free energy    TOTEN  =     12077.88806546 eV

  energy without entropy =    12077.90335766  energy(sigma->0) =    12077.89571156


--------------------------------------------------------------------------------------------------------




--------------------------------------- Iteration      1(   2)  ---------------------------------------


     EDDAV:  cpu time  113.9352: real time  114.2053
    --------------------------------------------
      LOOP:  cpu time  113.9346: real time  114.2047

 eigenvalue-minimisations  : 24320
 total energy-change (2. order) :-0.1010077E+05  (-0.9190019E+04)
 number of electron     912.0000000 magnetization     120.0000000
 augmentation part      912.0000000 magnetization     120.0000000

 Free energy of the ion-electron system (eV)
  ---------------------------------------------------
  alpha Z        PSCENC =      3286.56245407
  Ewald energy   TEWEN  =    -56817.01539255
  -Hartree energ DENC   =    -30204.41429720
  -exchange      EXHF   =         0.00000000
  -V(xc)+E(xc)   XCENC  =      3612.26410711
  PAW double counting   =     71080.72462945   -74396.17323249
  entropy T*S    EENTRO =        -0.04579982
  eigenvalues    EBANDS =      2709.39264031
  atomic energy  EATOM  =     82705.81968683
  Solvation  Ediel_sol  =         0.00000000
  ---------------------------------------------------
  free energy    TOTEN  =      1977.11479569 eV

  energy without entropy =     1977.16059551  energy(sigma->0) =     1977.13769560


--------------------------------------------------------------------------------------------------------




--------------------------------------- Iteration      1(   3)  ---------------------------------------


     EDDAV:  cpu time  121.1583: real time  121.4453
    --------------------------------------------
      LOOP:  cpu time  121.1583: real time  121.4453

 eigenvalue-minimisations  : 24720
 total energy-change (2. order) :-0.2582548E+04  (-0.2250599E+04)
 number of electron     912.0000000 magnetization     120.0000000
 augmentation part      912.0000000 magnetization     120.0000000

 Free energy of the ion-electron system (eV)
  ---------------------------------------------------
  alpha Z        PSCENC =      3286.56245407
  Ewald energy   TEWEN  =    -56817.01539255
  -Hartree energ DENC   =    -30204.41429720
  -exchange      EXHF   =         0.00000000
  -V(xc)+E(xc)   XCENC  =      3612.26410711
  PAW double counting   =     71080.72462945   -74396.17323249
  entropy T*S    EENTRO =        -0.19106443
  eigenvalues    EBANDS =       126.99025237
  atomic energy  EATOM  =     82705.81968683
  Solvation  Ediel_sol  =         0.00000000
  ---------------------------------------------------
  free energy    TOTEN  =      -605.43285686 eV

  energy without entropy =     -605.24179243  energy(sigma->0) =     -605.33732464


--------------------------------------------------------------------------------------------------------




--------------------------------------- Iteration      1(   4)  ---------------------------------------


     EDDAV:  cpu time  133.1402: real time  133.4555
    --------------------------------------------
      LOOP:  cpu time  133.1404: real time  133.4557

 eigenvalue-minimisations  : 27312
 total energy-change (2. order) :-0.3395580E+03  (-0.3244579E+03)
 number of electron     912.0000000 magnetization     120.0000000
 augmentation part      912.0000000 magnetization     120.0000000

 Free energy of the ion-electron system (eV)
  ---------------------------------------------------
  alpha Z        PSCENC =      3286.56245407
  Ewald energy   TEWEN  =    -56817.01539255
  -Hartree energ DENC   =    -30204.41429720
  -exchange      EXHF   =         0.00000000
  -V(xc)+E(xc)   XCENC  =      3612.26410711
  PAW double counting   =     71080.72462945   -74396.17323249
  entropy T*S    EENTRO =        -0.22834372
  eigenvalues    EBANDS =      -212.53046101
  atomic energy  EATOM  =     82705.81968683
  Solvation  Ediel_sol  =         0.00000000
  ---------------------------------------------------
  free energy    TOTEN  =      -944.99084952 eV

  energy without entropy =     -944.76250580  energy(sigma->0) =     -944.87667766


--------------------------------------------------------------------------------------------------------




--------------------------------------- Iteration      1(   5)  ---------------------------------------


     EDDAV:  cpu time  129.0831: real time  129.3888
    CHARGE:  cpu time    4.4363: real time    4.4469
    MIXING:  cpu time    0.0061: real time    0.0061
    --------------------------------------------
      LOOP:  cpu time  133.5234: real time  133.8396

 eigenvalue-minimisations  : 26896
 total energy-change (2. order) :-0.1108001E+02  (-0.1096558E+02)
 number of electron     912.0000000 magnetization     119.5828765
 augmentation part      305.8615463 magnetization      90.4129048

 Broyden mixing:
  rms(total) = 0.18353E+02    rms(broyden)= 0.18351E+02
  rms(prec ) = 0.19904E+02
  weight for this iteration     100.00

 Free energy of the ion-electron system (eV)
  ---------------------------------------------------
  alpha Z        PSCENC =      3286.56245407
  Ewald energy   TEWEN  =    -56817.01539255
  -Hartree energ DENC   =    -30204.41429720
  -exchange      EXHF   =         0.00000000
  -V(xc)+E(xc)   XCENC  =      3612.26410711
  PAW double counting   =     71080.72462945   -74396.17323249
  entropy T*S    EENTRO =        -0.22847866
  eigenvalues    EBANDS =      -223.61033393
  atomic energy  EATOM  =     82705.81968683
  Solvation  Ediel_sol  =         0.00000000
  ---------------------------------------------------
  free energy    TOTEN  =      -956.07085738 eV

  energy without entropy =     -955.84237872  energy(sigma->0) =     -955.95661805


--------------------------------------------------------------------------------------------------------




--------------------------------------- Iteration      1(   6)  ---------------------------------------


    POTLOK:  cpu time    0.2739: real time    0.2745
    SETDIJ:  cpu time    0.0349: real time    0.0350
     EDDAV:  cpu time  167.5850: real time  167.9819
    CHARGE:  cpu time    4.1106: real time    4.1203
    MIXING:  cpu time    0.0048: real time    0.0048
    --------------------------------------------
      LOOP:  cpu time  172.0091: real time  172.4166

 eigenvalue-minimisations  : 36992
 total energy-change (2. order) :-0.9984058E+02  (-0.1694494E+03)
 number of electron     911.9999971 magnetization     111.8384437
 augmentation part      384.9937870 magnetization     104.6802724

 Broyden mixing:
  rms(total) = 0.28726E+02    rms(broyden)= 0.28724E+02
  rms(prec ) = 0.31569E+02
  weight for this iteration     100.00

 eigenvalues of (default mixing * dielectric matrix)
  average eigenvalue GAMMA=   0.2528
  0.2528

 Free energy of the ion-electron system (eV)
  ---------------------------------------------------
  alpha Z        PSCENC =      3286.56245407
  Ewald energy   TEWEN  =    -56817.01539255
  -Hartree energ DENC   =    -29017.14360860
  -exchange      EXHF   =         0.00000000
  -V(xc)+E(xc)   XCENC  =      3626.75164283
  PAW double counting   =     79028.94974464   -81945.15659624
  entropy T*S    EENTRO =        -0.07242701
  eigenvalues    EBANDS =     -1924.60693823
  atomic energy  EATOM  =     82705.81968683
  Solvation  Ediel_sol  =         0.00000000
  ---------------------------------------------------
  free energy    TOTEN  =     -1055.91143427 eV

  energy without entropy =    -1055.83900726  energy(sigma->0) =    -1055.87522076


--------------------------------------------------------------------------------------------------------




--------------------------------------- Iteration      1(   7)  ---------------------------------------


    POTLOK:  cpu time    0.2296: real time    0.2301
    SETDIJ:  cpu time    0.0341: real time    0.0342
     EDDAV:  cpu time  150.8039: real time  151.1610
    CHARGE:  cpu time    4.5384: real time    4.5492
    MIXING:  cpu time    0.0047: real time    0.0047
    --------------------------------------------
      LOOP:  cpu time  155.6107: real time  155.9793

 eigenvalue-minimisations  : 32560
 total energy-change (2. order) : 0.2654905E+03  (-0.5569671E+02)
 number of electron     911.9999977 magnetization     105.2512558
 augmentation part      353.7417317 magnetization      90.8981320

 Broyden mixing:
  rms(total) = 0.15072E+02    rms(broyden)= 0.15069E+02
  rms(prec ) = 0.19142E+02
  weight for this iteration     100.00

 eigenvalues of (default mixing * dielectric matrix)
  average eigenvalue GAMMA=   0.4123
  0.4123  0.4123

 Free energy of the ion-electron system (eV)
  ---------------------------------------------------
  alpha Z        PSCENC =      3286.56245407
  Ewald energy   TEWEN  =    -56817.01539255
  -Hartree energ DENC   =    -29527.45369861
  -exchange      EXHF   =         0.00000000
  -V(xc)+E(xc)   XCENC  =      3604.53249469
  PAW double counting   =     82041.02596084   -85233.86118464
  entropy T*S    EENTRO =        -0.10038325
  eigenvalues    EBANDS =      -849.93091900
  atomic energy  EATOM  =     82705.81968683
  Solvation  Ediel_sol  =         0.00000000
  ---------------------------------------------------
  free energy    TOTEN  =      -790.42098163 eV

  energy without entropy =     -790.32059838  energy(sigma->0) =     -790.37079000


--------------------------------------------------------------------------------------------------------




--------------------------------------- Iteration      1(   8)  ---------------------------------------


    POTLOK:  cpu time    0.3025: real time    0.3032
    SETDIJ:  cpu time    0.0511: real time    0.0512
     EDDAV:  cpu time  132.3035: real time  132.6169
    CHARGE:  cpu time    3.8635: real time    3.8726
    MIXING:  cpu time    0.0051: real time    0.0051
    --------------------------------------------
      LOOP:  cpu time  136.5255: real time  136.8490

 eigenvalue-minimisations  : 29472
 total energy-change (2. order) :-0.1980093E+03  (-0.3771225E+02)
 number of electron     911.9999993 magnetization      96.9717938
 augmentation part      329.3447637 magnetization      87.1738289

 Broyden mixing:
  rms(total) = 0.21318E+02    rms(broyden)= 0.21317E+02
  rms(prec ) = 0.31037E+02
  weight for this iteration     100.00

 eigenvalues of (default mixing * dielectric matrix)
  average eigenvalue GAMMA=   0.4115
  0.5541  0.5541  0.1263

 Free energy of the ion-electron system (eV)
  ---------------------------------------------------
  alpha Z        PSCENC =      3286.56245407
  Ewald energy   TEWEN  =    -56817.01539255
  -Hartree energ DENC   =    -29637.14810166
  -exchange      EXHF   =         0.00000000
  -V(xc)+E(xc)   XCENC  =      3598.30690995
  PAW double counting   =     84365.32447090   -87697.15852636
  entropy T*S    EENTRO =        -0.07552243
  eigenvalues    EBANDS =      -793.04628798
  atomic energy  EATOM  =     82705.81968683
  Solvation  Ediel_sol  =         0.00000000
  ---------------------------------------------------
  free energy    TOTEN  =      -988.43030925 eV

  energy without entropy =     -988.35478682  energy(sigma->0) =     -988.39254803


--------------------------------------------------------------------------------------------------------




--------------------------------------- Iteration      1(   9)  ---------------------------------------


    POTLOK:  cpu time    0.2261: real time    0.2266
    SETDIJ:  cpu time    0.0355: real time    0.0356
     EDDAV:  cpu time  140.7532: real time  141.0865
    CHARGE:  cpu time    4.2775: real time    4.2877
    MIXING:  cpu time    0.0068: real time    0.0069
    --------------------------------------------
      LOOP:  cpu time  145.2992: real time  145.6433

 eigenvalue-minimisations  : 32112
 total energy-change (2. order) : 0.2374915E+02  (-0.4643489E+02)
 number of electron     911.9999997 magnetization      87.0071541
 augmentation part      344.6164365 magnetization      77.0855883

 Broyden mixing:
  rms(total) = 0.20145E+02    rms(broyden)= 0.20142E+02
  rms(prec ) = 0.24731E+02
  weight for this iteration     100.00

 eigenvalues of (default mixing * dielectric matrix)
  average eigenvalue GAMMA=   0.4004
  0.6555  0.6555  0.1668  0.1237

 Free energy of the ion-electron system (eV)
  ---------------------------------------------------
  alpha Z        PSCENC =      3286.56245407
  Ewald energy   TEWEN  =    -56817.01539255
  -Hartree energ DENC   =    -29350.11212257
  -exchange      EXHF   =         0.00000000
  -V(xc)+E(xc)   XCENC  =      3595.54574820
  PAW double counting   =     86824.36775311   -90203.76887200
  entropy T*S    EENTRO =        -0.09607806
  eigenvalues    EBANDS =     -1005.98433527
  atomic energy  EATOM  =     82705.81968683
  Solvation  Ediel_sol  =         0.00000000
  ---------------------------------------------------
  free energy    TOTEN  =      -964.68115824 eV

  energy without entropy =     -964.58508018  energy(sigma->0) =     -964.63311921


--------------------------------------------------------------------------------------------------------




--------------------------------------- Iteration      1(  10)  ---------------------------------------


    POTLOK:  cpu time    0.2662: real time    0.2668
    SETDIJ:  cpu time    0.0556: real time    0.0557
     EDDAV:  cpu time  140.8348: real time  141.1684
    CHARGE:  cpu time    4.3280: real time    4.3383
    MIXING:  cpu time    0.0098: real time    0.0098
    --------------------------------------------
      LOOP:  cpu time  145.4944: real time  145.8390

 eigenvalue-minimisations  : 30816
 total energy-change (2. order) : 0.1428742E+03  (-0.2814236E+02)
 number of electron     911.9999972 magnetization      80.0153060
 augmentation part      346.0125048 magnetization      67.0240828

 Broyden mixing:
  rms(total) = 0.14686E+02    rms(broyden)= 0.14685E+02
  rms(prec ) = 0.18156E+02
  weight for this iteration     100.00

 eigenvalues of (default mixing * dielectric matrix)
  average eigenvalue GAMMA=   0.4324
  0.9108  0.6929  0.2221  0.2221  0.1140

 Free energy of the ion-electron system (eV)
  ---------------------------------------------------
  alpha Z        PSCENC =      3286.56245407
  Ewald energy   TEWEN  =    -56817.01539255
  -Hartree energ DENC   =    -29378.29070970
  -exchange      EXHF   =         0.00000000
  -V(xc)+E(xc)   XCENC  =      3596.31987487
  PAW double counting   =     89694.50487557   -93146.61834316
  entropy T*S    EENTRO =        -0.10770140
  eigenvalues    EBANDS =      -762.98170705
  atomic energy  EATOM  =     82705.81968683
  Solvation  Ediel_sol  =         0.00000000
  ---------------------------------------------------
  free energy    TOTEN  =      -821.80696255 eV

  energy without entropy =     -821.69926114  energy(sigma->0) =     -821.75311184


--------------------------------------------------------------------------------------------------------




--------------------------------------- Iteration      1(  11)  ---------------------------------------


    POTLOK:  cpu time    0.2952: real time    0.2959
    SETDIJ:  cpu time    0.0509: real time    0.0510
     EDDAV:  cpu time  135.7513: real time  136.0727
    CHARGE:  cpu time    4.2802: real time    4.2904
    MIXING:  cpu time    0.0079: real time    0.0079
    --------------------------------------------
      LOOP:  cpu time  140.3855: real time  140.7179

 eigenvalue-minimisations  : 29168
 total energy-change (2. order) : 0.2021459E+02  (-0.3447763E+02)
 number of electron     911.9999977 magnetization      72.6366492
 augmentation part      337.0378689 magnetization      58.0894074

 Broyden mixing:
  rms(total) = 0.15456E+02    rms(broyden)= 0.15454E+02
  rms(prec ) = 0.19529E+02
  weight for this iteration     100.00

 eigenvalues of (default mixing * dielectric matrix)
  average eigenvalue GAMMA=   0.4513
  1.3752  0.5656  0.2567  0.2567  0.1477  0.1060

 Free energy of the ion-electron system (eV)
  ---------------------------------------------------
  alpha Z        PSCENC =      3286.56245407
  Ewald energy   TEWEN  =    -56817.01539255
  -Hartree energ DENC   =    -29382.24445662
  -exchange      EXHF   =         0.00000000
  -V(xc)+E(xc)   XCENC  =      3595.84441426
  PAW double counting   =     91329.58708292   -94815.86384324
  entropy T*S    EENTRO =        -0.10809695
  eigenvalues    EBANDS =      -704.17422581
  atomic energy  EATOM  =     82705.81968683
  Solvation  Ediel_sol  =         0.00000000
  ---------------------------------------------------
  free energy    TOTEN  =      -801.59237710 eV

  energy without entropy =     -801.48428015  energy(sigma->0) =     -801.53832862


--------------------------------------------------------------------------------------------------------




--------------------------------------- Iteration      1(  12)  ---------------------------------------


    POTLOK:  cpu time    0.2752: real time    0.2758
    SETDIJ:  cpu time    0.0396: real time    0.0397
     EDDAV:  cpu time  146.7776: real time  147.1251
    CHARGE:  cpu time    4.5763: real time    4.5872
    MIXING:  cpu time    0.0078: real time    0.0079
    --------------------------------------------
      LOOP:  cpu time  151.6765: real time  152.0356

 eigenvalue-minimisations  : 31024
 total energy-change (2. order) :-0.2272933E+02  (-0.2599758E+02)
 number of electron     911.9999986 magnetization      65.9474426
 augmentation part      336.4538356 magnetization      54.6864998

 Broyden mixing:
  rms(total) = 0.14795E+02    rms(broyden)= 0.14794E+02
  rms(prec ) = 0.18040E+02
  weight for this iteration     100.00

 eigenvalues of (default mixing * dielectric matrix)
  average eigenvalue GAMMA=   0.4552
  1.6302  0.5298  0.3212  0.3212  0.1107  0.1368  0.1368

 Free energy of the ion-electron system (eV)
  ---------------------------------------------------
  alpha Z        PSCENC =      3286.56245407
  Ewald energy   TEWEN  =    -56817.01539255
  -Hartree energ DENC   =    -29364.08074674
  -exchange      EXHF   =         0.00000000
  -V(xc)+E(xc)   XCENC  =      3595.78417635
  PAW double counting   =     93065.53656412   -96583.71119289
  entropy T*S    EENTRO =        -0.08450459
  eigenvalues    EBANDS =      -713.13275287
  atomic energy  EATOM  =     82705.81968683
  Solvation  Ediel_sol  =         0.00000000
  ---------------------------------------------------
  free energy    TOTEN  =      -824.32170829 eV

  energy without entropy =     -824.23720369  energy(sigma->0) =     -824.27945599


--------------------------------------------------------------------------------------------------------




--------------------------------------- Iteration      1(  13)  ---------------------------------------


    POTLOK:  cpu time    0.2907: real time    0.2914
    SETDIJ:  cpu time    0.0537: real time    0.0538
     EDDAV:  cpu time  135.1067: real time  135.4266
    CHARGE:  cpu time    4.2667: real time    4.2769
    MIXING:  cpu time    0.0096: real time    0.0096
    --------------------------------------------
      LOOP:  cpu time  139.7274: real time  140.0583

 eigenvalue-minimisations  : 28480
 total energy-change (2. order) : 0.6768171E+02  (-0.1107140E+02)
 number of electron     911.9999993 magnetization      64.1585600
 augmentation part      340.0464379 magnetization      50.6094970

 Broyden mixing:
  rms(total) = 0.11059E+02    rms(broyden)= 0.11058E+02
  rms(prec ) = 0.13942E+02
  weight for this iteration     100.00

 eigenvalues of (default mixing * dielectric matrix)
  average eigenvalue GAMMA=   0.4244
  1.6310  0.5336  0.3485  0.3485  0.1580  0.1580  0.1086  0.1086

 Free energy of the ion-electron system (eV)
  ---------------------------------------------------
  alpha Z        PSCENC =      3286.56245407
  Ewald energy   TEWEN  =    -56817.01539255
  -Hartree energ DENC   =    -29333.31299087
  -exchange      EXHF   =         0.00000000
  -V(xc)+E(xc)   XCENC  =      3594.43908491
  PAW double counting   =     94200.14897809   -97730.93809845
  entropy T*S    EENTRO =        -0.09741612
  eigenvalues    EBANDS =      -662.24630391
  atomic energy  EATOM  =     82705.81968683
  Solvation  Ediel_sol  =         0.00000000
  ---------------------------------------------------
  free energy    TOTEN  =      -756.63999801 eV

  energy without entropy =     -756.54258189  energy(sigma->0) =     -756.59128995


--------------------------------------------------------------------------------------------------------




--------------------------------------- Iteration      1(  14)  ---------------------------------------


    POTLOK:  cpu time    0.2825: real time    0.2832
    SETDIJ:  cpu time    0.0484: real time    0.0486
     EDDAV:  cpu time  131.9146: real time  132.2269
    CHARGE:  cpu time    4.0008: real time    4.0104
    MIXING:  cpu time    0.0086: real time    0.0087
    --------------------------------------------
      LOOP:  cpu time  136.2550: real time  136.5777

 eigenvalue-minimisations  : 29536
 total energy-change (2. order) : 0.4606662E+02  (-0.6981425E+01)
 number of electron     911.9999991 magnetization      63.3700602
 augmentation part      341.7710235 magnetization      49.4801302

 Broyden mixing:
  rms(total) = 0.69724E+01    rms(broyden)= 0.69713E+01
  rms(prec ) = 0.89861E+01
  weight for this iteration     100.00

 eigenvalues of (default mixing * dielectric matrix)
  average eigenvalue GAMMA=   0.3985
  1.5108  0.6003  0.3751  0.3751  0.1903  0.1903  0.1136  0.1154  0.1154

 Free energy of the ion-electron system (eV)
  ---------------------------------------------------
  alpha Z        PSCENC =      3286.56245407
  Ewald energy   TEWEN  =    -56817.01539255
  -Hartree energ DENC   =    -29346.05766942
  -exchange      EXHF   =         0.00000000
  -V(xc)+E(xc)   XCENC  =      3592.30642251
  PAW double counting   =     94308.91874308   -97841.26787687
  entropy T*S    EENTRO =        -0.11012207
  eigenvalues    EBANDS =      -599.72962640
  atomic energy  EATOM  =     82705.81968683
  Solvation  Ediel_sol  =         0.00000000
  ---------------------------------------------------
  free energy    TOTEN  =      -710.57338082 eV

  energy without entropy =     -710.46325874  energy(sigma->0) =     -710.51831978


--------------------------------------------------------------------------------------------------------




--------------------------------------- Iteration      1(  15)  ---------------------------------------


    POTLOK:  cpu time    0.2360: real time    0.2366
    SETDIJ:  cpu time    0.0362: real time    0.0363
     EDDAV:  cpu time  135.5195: real time  135.8403
    CHARGE:  cpu time    3.9272: real time    3.9365
    MIXING:  cpu time    0.0084: real time    0.0084
    --------------------------------------------
      LOOP:  cpu time  139.7273: real time  140.0581

 eigenvalue-minimisations  : 30432
 total energy-change (2. order) : 0.1112830E+02  (-0.4303985E+01)
 number of electron     911.9999990 magnetization      62.0617995
 augmentation part      338.3642740 magnetization      48.0340003

 Broyden mixing:
  rms(total) = 0.59302E+01    rms(broyden)= 0.59290E+01
  rms(prec ) = 0.75944E+01
  weight for this iteration     100.00

 eigenvalues of (default mixing * dielectric matrix)
  average eigenvalue GAMMA=   0.3804
  1.3516  0.6718  0.4248  0.4248  0.2153  0.2153  0.1413  0.1413  0.1195  0.0978

 Free energy of the ion-electron system (eV)
  ---------------------------------------------------
  alpha Z        PSCENC =      3286.56245407
  Ewald energy   TEWEN  =    -56817.01539255
  -Hartree energ DENC   =    -29398.69610900
  -exchange      EXHF   =         0.00000000
  -V(xc)+E(xc)   XCENC  =      3589.26367540
  PAW double counting   =     94100.55578116   -97632.87272886
  entropy T*S    EENTRO =        -0.11908149
  eigenvalues    EBANDS =      -532.94336171
  atomic energy  EATOM  =     82705.81968683
  Solvation  Ediel_sol  =         0.00000000
  ---------------------------------------------------
  free energy    TOTEN  =      -699.44507615 eV

  energy without entropy =     -699.32599466  energy(sigma->0) =     -699.38553541


--------------------------------------------------------------------------------------------------------




--------------------------------------- Iteration      1(  16)  ---------------------------------------


    POTLOK:  cpu time    0.2853: real time    0.2860
    SETDIJ:  cpu time    0.0360: real time    0.0361
     EDDAV:  cpu time  142.4002: real time  142.7374
    CHARGE:  cpu time    3.7997: real time    3.8087
    MIXING:  cpu time    0.0072: real time    0.0153
    --------------------------------------------
      LOOP:  cpu time  146.5284: real time  146.8834

 eigenvalue-minimisations  : 30928
 total energy-change (2. order) :-0.5138633E+01  (-0.4226379E+01)
 number of electron     911.9999987 magnetization      59.9428609
 augmentation part      335.8295198 magnetization      47.4327059

 Broyden mixing:
  rms(total) = 0.73047E+01    rms(broyden)= 0.73040E+01
  rms(prec ) = 0.91878E+01
  weight for this iteration     100.00

 eigenvalues of (default mixing * dielectric matrix)
  average eigenvalue GAMMA=   0.3652
  1.3169  0.6040  0.4725  0.4725  0.2989  0.2259  0.1534  0.1534  0.1295  0.0949
  0.0949

 Free energy of the ion-electron system (eV)
  ---------------------------------------------------
  alpha Z        PSCENC =      3286.56245407
  Ewald energy   TEWEN  =    -56817.01539255
  -Hartree energ DENC   =    -29437.11642010
  -exchange      EXHF   =         0.00000000
  -V(xc)+E(xc)   XCENC  =      3586.02544662
  PAW double counting   =     93870.66949164   -97396.41941635
  entropy T*S    EENTRO =        -0.11220047
  eigenvalues    EBANDS =      -502.99735923
  atomic energy  EATOM  =     82705.81968683
  Solvation  Ediel_sol  =         0.00000000
  ---------------------------------------------------
  free energy    TOTEN  =      -704.58370956 eV

  energy without entropy =     -704.47150909  energy(sigma->0) =     -704.52760933


--------------------------------------------------------------------------------------------------------




--------------------------------------- Iteration      1(  17)  ---------------------------------------


    POTLOK:  cpu time    0.2206: real time    0.2211
    SETDIJ:  cpu time    0.0362: real time    0.0363
     EDDAV:  cpu time  140.9022: real time  141.2405
    CHARGE:  cpu time    3.8136: real time    3.8254
    MIXING:  cpu time    0.0075: real time    0.0075
    --------------------------------------------
      LOOP:  cpu time  144.9801: real time  145.3308

 eigenvalue-minimisations  : 33424
 total energy-change (2. order) : 0.5431554E+01  (-0.3510358E+01)
 number of electron     911.9999986 magnetization      58.1469713
 augmentation part      336.7751202 magnetization      45.3751087

 Broyden mixing:
  rms(total) = 0.45956E+01    rms(broyden)= 0.45950E+01
  rms(prec ) = 0.54731E+01
  weight for this iteration     100.00

 eigenvalues of (default mixing * dielectric matrix)
  average eigenvalue GAMMA=   0.3556
  1.3553  0.5336  0.5336  0.4820  0.3913  0.1864  0.1864  0.1526  0.1526  0.1064
  0.1064  0.0804

 Free energy of the ion-electron system (eV)
  ---------------------------------------------------
  alpha Z        PSCENC =      3286.56245407
  Ewald energy   TEWEN  =    -56817.01539255
  -Hartree energ DENC   =    -29441.56486330
  -exchange      EXHF   =         0.00000000
  -V(xc)+E(xc)   XCENC  =      3584.88328481
  PAW double counting   =     93968.52685766   -97487.84188284
  entropy T*S    EENTRO =        -0.10809392
  eigenvalues    EBANDS =      -498.41420590
  atomic energy  EATOM  =     82705.81968683
  Solvation  Ediel_sol  =         0.00000000
  ---------------------------------------------------
  free energy    TOTEN  =      -699.15215515 eV

  energy without entropy =     -699.04406123  energy(sigma->0) =     -699.09810819


--------------------------------------------------------------------------------------------------------




--------------------------------------- Iteration      1(  18)  ---------------------------------------


    POTLOK:  cpu time    0.2275: real time    0.2280
    SETDIJ:  cpu time    0.0356: real time    0.0357
     EDDAV:  cpu time  127.2790: real time  127.5842
    CHARGE:  cpu time    3.7459: real time    3.7548
    MIXING:  cpu time    0.0078: real time    0.0078
    --------------------------------------------
      LOOP:  cpu time  131.2958: real time  131.6105

 eigenvalue-minimisations  : 29408
 total energy-change (2. order) : 0.5741481E+01  (-0.1825112E+01)
 number of electron     911.9999991 magnetization      55.7267252
 augmentation part      337.8452231 magnetization      42.9789750

 Broyden mixing:
  rms(total) = 0.26487E+01    rms(broyden)= 0.26482E+01
  rms(prec ) = 0.30164E+01
  weight for this iteration     100.00

 eigenvalues of (default mixing * dielectric matrix)
  average eigenvalue GAMMA=   0.3704
  1.3224  0.6325  0.6325  0.5600  0.3667  0.3667  0.1813  0.1813  0.1371  0.1371
  0.1123  0.0924  0.0924

 Free energy of the ion-electron system (eV)
  ---------------------------------------------------
  alpha Z        PSCENC =      3286.56245407
  Ewald energy   TEWEN  =    -56817.01539255
  -Hartree energ DENC   =    -29436.94687034
  -exchange      EXHF   =         0.00000000
  -V(xc)+E(xc)   XCENC  =      3584.56317760
  PAW double counting   =     94164.05614374   -97680.37701670
  entropy T*S    EENTRO =        -0.10307701
  eigenvalues    EBANDS =      -499.96977937
  atomic energy  EATOM  =     82705.81968683
  Solvation  Ediel_sol  =         0.00000000
  ---------------------------------------------------
  free energy    TOTEN  =      -693.41067373 eV

  energy without entropy =     -693.30759672  energy(sigma->0) =     -693.35913523


--------------------------------------------------------------------------------------------------------




--------------------------------------- Iteration      1(  19)  ---------------------------------------


    POTLOK:  cpu time    0.2251: real time    0.2257
    SETDIJ:  cpu time    0.0345: real time    0.0345
     EDDAV:  cpu time  134.2613: real time  134.5795
    CHARGE:  cpu time    4.1380: real time    4.1802
    MIXING:  cpu time    0.0084: real time    0.0114
    --------------------------------------------
      LOOP:  cpu time  138.6673: real time  139.0313

 eigenvalue-minimisations  : 31136
 total energy-change (2. order) :-0.3281847E+01  (-0.8046890E+00)
 number of electron     911.9999986 magnetization      52.0724783
 augmentation part      337.7223263 magnetization      39.4851382

 Broyden mixing:
  rms(total) = 0.31503E+01    rms(broyden)= 0.31498E+01
  rms(prec ) = 0.36749E+01
  weight for this iteration     100.00

 eigenvalues of (default mixing * dielectric matrix)
  average eigenvalue GAMMA=   0.3842
  1.3552  0.7822  0.7822  0.5840  0.3941  0.3941  0.1918  0.1918  0.1423  0.1423
  0.1255  0.1015  0.1015  0.0898

 Free energy of the ion-electron system (eV)
  ---------------------------------------------------
  alpha Z        PSCENC =      3286.56245407
  Ewald energy   TEWEN  =    -56817.01539255
  -Hartree energ DENC   =    -29442.59397788
  -exchange      EXHF   =         0.00000000
  -V(xc)+E(xc)   XCENC  =      3583.40477945
  PAW double counting   =     94299.83361061   -97810.74127381
  entropy T*S    EENTRO =        -0.09854366
  eigenvalues    EBANDS =      -501.86386411
  atomic energy  EATOM  =     82705.81968683
  Solvation  Ediel_sol  =         0.00000000
  ---------------------------------------------------
  free energy    TOTEN  =      -696.69252105 eV

  energy without entropy =     -696.59397739  energy(sigma->0) =     -696.64324922


--------------------------------------------------------------------------------------------------------




--------------------------------------- Iteration      1(  20)  ---------------------------------------


    POTLOK:  cpu time    0.2336: real time    0.2341
    SETDIJ:  cpu time    0.0371: real time    0.0372
     EDDAV:  cpu time  139.4536: real time  139.7895
    CHARGE:  cpu time    3.9053: real time    3.9146
    MIXING:  cpu time    0.0084: real time    0.0084
    --------------------------------------------
      LOOP:  cpu time  143.6380: real time  143.9838

 eigenvalue-minimisations  : 31200
 total energy-change (2. order) :-0.2169696E+01  (-0.8801145E+00)
 number of electron     911.9999989 magnetization      47.0980787
 augmentation part      337.8960954 magnetization      35.2804081

 Broyden mixing:
  rms(total) = 0.21426E+01    rms(broyden)= 0.21419E+01
  rms(prec ) = 0.25117E+01
  weight for this iteration     100.00

 eigenvalues of (default mixing * dielectric matrix)
  average eigenvalue GAMMA=   0.4091
  1.2886  0.9822  0.9822  0.6859  0.3913  0.3913  0.3483  0.1821  0.1821  0.1464
  0.1464  0.1200  0.1003  0.1003  0.0896

 Free energy of the ion-electron system (eV)
  ---------------------------------------------------
  alpha Z        PSCENC =      3286.56245407
  Ewald energy   TEWEN  =    -56817.01539255
  -Hartree energ DENC   =    -29450.95602747
  -exchange      EXHF   =         0.00000000
  -V(xc)+E(xc)   XCENC  =      3581.79954614
  PAW double counting   =     94531.45216665   -98036.75540159
  entropy T*S    EENTRO =        -0.10184553
  eigenvalues    EBANDS =      -499.66740397
  atomic energy  EATOM  =     82705.81968683
  Solvation  Ediel_sol  =         0.00000000
  ---------------------------------------------------
  free energy    TOTEN  =      -698.86221743 eV

  energy without entropy =     -698.76037189  energy(sigma->0) =     -698.81129466


[...]
      7.20868      1.38400      7.94752        -0.899157     -0.062769      1.044692
      7.23138      3.91731      9.22197        -1.745468     -0.548678      1.258716
      5.72089      0.87516      5.27069         1.414128      1.911540     -0.007067
      5.84026      0.84633      2.00736        -2.466255      2.892108      2.199457
      7.23071      3.90014     12.59451        -2.519741     -0.132697     -3.837099
      7.25849      8.38532      0.71025        -3.178627      0.225365      6.988888
      5.81606      6.10177     13.86049        -0.107157     -0.154375     -3.677065
      7.33809      8.37422      6.48942        -4.010258     -2.991558     -0.108532
      5.81391      6.26458      8.02821        -0.620775     -1.082874     -0.026328
      5.80831      8.80523      9.29382         0.217728     -2.438104      0.809407
      7.24895      5.74106      5.39668        -1.308590      0.941575     -2.102113
      7.23680      5.81597      1.89436        -1.707515     -0.858415      3.518515
      5.76613      8.73652     12.62390         0.936916     -2.369949     -4.914121
      8.33319      0.02676      7.29993         3.369489      1.997732      1.513090
      0.04338      9.40649      0.10572         2.031283      2.834235      2.272689
      1.50145      0.30561     12.30161        -1.455943      2.116970     -0.159621
      8.45475      4.54762      2.27582         1.439065     -0.235188     -0.869818
      0.04718      4.56298      5.00114         0.332812     -0.612987      0.429310
      1.48530      0.33599      9.58243        -0.270484      1.643994     -0.667086
      8.41411      2.77192     13.39036         2.055386     -1.932148     -4.038396
      1.40093      2.12756      1.15354        -0.106471      1.241964      2.192673
      1.52179      2.04844      6.23393        -0.364055      0.565041     -0.282594
      0.08182      2.69739      8.40617         0.253911      0.244585     -0.492990
      1.42282      3.12728     10.86549         0.027860      0.288431      2.240104
      8.40608      1.68587      3.65704         0.345962      0.586472     -0.088810
      1.54285      4.80323      7.18372        -0.146674      0.007859      0.294792
      1.45874      4.82996      0.01781        -0.030937      0.059644      2.078940
      8.47067      5.09850     12.25918         1.407061      0.990535     -0.021550
      1.49154      9.41200      2.23453        -1.597254     -2.613226     -0.337873
      1.49501      9.32606      4.97849        -0.447713     -0.768961      0.627461
      0.00990      5.09318      9.51157         1.408924      0.724926     -0.134926
      1.45220      7.56974     13.43613        -0.130735     -5.082767     -8.837022
      8.46231      6.93097      1.08882         1.666748      1.238622      4.329003
      0.15208      6.95480      6.23566        -0.280388     -0.368321     -0.320097
      1.42204      7.64203      8.47785         0.068868     -0.612510     -0.881377
      0.02254      7.97866     10.86358        -0.167562      0.179627      1.322541
      1.49969      6.48491      3.58042        -0.304891     -0.197302      0.865586
      2.85855      0.01728      7.19846         0.021210      0.519212      0.452406
      2.92326      9.44930      0.03671        -0.653711      0.704075      2.098349
      4.34786      0.25376     12.30373         1.413680      3.755674     -0.366250
      2.88524      4.47403      2.22481         0.668686      0.777599     -0.334337
      2.85239      4.54760      5.04359         0.497106      0.179004      0.319311
      4.35271      0.24790      9.55222         0.546181      3.901232     -0.132575
      2.93107      2.77432     13.40165        -0.389578     -1.351736     -2.884594
      4.36832      2.11331      1.02023        -0.103581      4.227766      8.426976
      4.28940      2.10451      6.13448        -0.036466      0.498317      0.864791
      2.88293      2.69027      8.43461         0.716298      0.409494     -0.463486
      4.30618      3.07768     10.95783         0.183325      1.062662     -0.379288
      2.87181      1.73537      3.60243         0.084932     -0.073504      0.271421
      4.41961      4.79134      7.22817        -0.020730      0.160264      0.191893
      4.38894      4.94223     14.17238        -0.514270     -0.260434      2.416564
      2.98122      5.23755     12.33312        -0.444479     -1.044748     -0.518474
      4.34327      9.28917      2.20463        -0.127796     -0.167127      0.809794
      4.31365      9.42340      4.99564        -1.224245     -2.859019     -0.340477
      2.86952      5.16564      9.48837         0.352430     -0.522474      0.087874
      4.37314      7.52590     13.51216         0.468308     -2.505040     -4.277229
      2.91025      6.94785      1.10109        -0.115178      1.836425      4.636243
      2.82216      6.99435      6.10983         0.492817     -0.451285      0.874963
      4.34837      7.63074      8.43314        -0.438158     -0.953866     -0.879404
      2.92650      8.14268     10.96701         0.006967     -0.778382     -0.832809
      4.40970      6.53623      3.58435        -0.083513     -0.902871     -0.488692
      5.77388      9.43135      7.24205        -0.188723      1.213850      0.042250
      5.81270      0.04878     14.18221         0.522063      1.410431      2.872270
      7.28722      0.30725     12.26254        -4.347577      4.728659     -1.145246
      5.82287      4.61197      2.15274         0.155001     -0.940121     -0.652831
      5.84030      4.63339      4.99665         0.091511     -0.639381      1.007673
      7.29503      0.35703      9.59717        -4.242153      4.927089      0.523646
      5.81800      2.78568     13.50450        -0.098119     -9.803630    -18.776219
      7.26617      2.16597      1.08269        -1.200866      1.382660      4.499880
      7.24892      2.13942      6.15817        -1.087470      0.333339      0.535059
      5.77222      2.78372      8.43377         0.343011     -0.174623     -0.563675
      7.29375      3.09244     10.90689        -0.213219      0.628161      0.068127
      5.77090      1.68666      3.72827         0.113854     -0.331814     -1.043773
      7.38353      4.86333      7.30713        -1.964649     -0.177563     -0.194826
      7.24720      4.82646      0.04452        -2.129065     -1.677242      1.573782
      5.78525      5.10959     12.32557         0.075698     -0.538312     -0.541043
      7.24904      9.41495      2.29904        -2.552440     -6.106748      1.131322
      7.30591      9.43022      5.05198        -5.366486     -5.395460     -1.969085
      5.80141      5.15759      9.59182         0.155335      0.128803     -1.162518
      7.27063      7.60000     13.46861        -1.635554     -2.948564     -5.005218
      5.91521      6.97814      1.15367        -0.577468      1.226453      2.292236
      5.81396      7.05463      6.12393         0.374267     -0.414477      0.614360
      7.19667      7.63520      8.45522        -0.907111     -1.186168     -0.917536
      5.81633      7.97414     10.99700         0.041503      0.302719     -0.454638
      7.27963      6.52055      3.62088         0.005123     -0.358492      0.510949
 -----------------------------------------------------------------------------------
    total drift:                               -0.055265     -0.001800      0.008328


--------------------------------------------------------------------------------------------------------



  FREE ENERGIE OF THE ION-ELECTRON SYSTEM (eV)
  ---------------------------------------------------
  free  energy   TOTEN  =      -716.6741816885 eV

  energy  without entropy=     -716.5781855833  energy(sigma->0) =     -716.62618364
 


--------------------------------------------------------------------------------------------------------


    POTLOK:  cpu time    0.2668: real time    0.2674


--------------------------------------------------------------------------------------------------------


     LOOP+:  cpu time 9036.9633: real time 9058.8294
    4ORBIT:  cpu time    0.0000: real time    0.0000

volume of typ            1:    26.8 %

volume of typ            2:    10.3 %
 
total charge     
 
# of ion       s       p       d       tot
------------------------------------------
    1        0.280   0.378   7.977   8.635
    2        0.253   0.317   8.004   8.574
    3        0.243   0.291   7.910   8.443
    4        0.238   0.281   7.930   8.449
    5        0.266   0.313   7.855   8.435
    6        0.325   0.422   7.929   8.676
    7        0.317   0.416   7.945   8.677
    8        0.250   0.303   7.886   8.439
    9        0.306   0.416   8.036   8.759
   10        0.296   0.405   7.998   8.699
   11        0.243   0.297   7.916   8.455
   12        0.244   0.294   7.924   8.462
   13        0.324   0.441   7.893   8.658
   14        0.257   0.313   7.846   8.417
   15        0.250   0.290   7.878   8.418
   16        0.334   0.471   7.961   8.766
   17        0.263   0.342   7.975   8.581
   18        0.298   0.398   8.037   8.733
   19        0.234   0.273   7.879   8.386
   20        0.215   0.244   7.938   8.397
   21        0.242   0.270   7.838   8.350
   22        0.281   0.352   7.864   8.497
   23        0.284   0.336   7.894   8.515
   24        0.260   0.330   7.877   8.468
   25        0.287   0.404   7.991   8.682
   26        0.287   0.398   7.964   8.649
   27        0.236   0.286   7.912   8.434
   28        0.221   0.246   7.899   8.366
   29        0.285   0.361   7.878   8.524
   30        0.249   0.277   7.833   8.359
   31        0.254   0.287   7.882   8.422
   32        0.330   0.449   7.915   8.693
   33        0.332   0.467   8.121   8.919
   34        0.287   0.383   8.031   8.701
   35        0.216   0.240   7.908   8.364
   36        0.236   0.285   7.930   8.451
   37        0.269   0.329   7.853   8.450
   38        0.295   0.356   7.901   8.551
   39        0.274   0.317   7.936   8.527
   40        0.293   0.394   7.899   8.587
   41        0.306   0.434   8.022   8.762
   42        0.273   0.358   7.976   8.607
   43        0.274   0.356   7.950   8.580
   44        0.213   0.229   7.905   8.347
   45        0.275   0.340   7.880   8.494
   46        0.262   0.314   7.870   8.446
   47        0.285   0.374   7.887   8.546
   48        0.302   0.410   7.917   8.628
   49        1.284   2.800   0.012   4.097
   50        1.278   2.876   0.020   4.174
   51        1.281   2.759   0.010   4.051
   52        1.283   2.717   0.008   4.008
   53        1.284   2.730   0.010   4.024
   54        1.284   2.732   0.009   4.025
   55        1.269   2.845   0.015   4.129
   56        1.274   2.784   0.010   4.068
   57        1.268   2.766   0.007   4.041
   58        1.272   2.751   0.007   4.030
   59        1.289   2.677   0.007   3.973
   60        1.291   2.691   0.007   3.989
   61        1.288   2.718   0.006   4.012
   62        1.283   2.774   0.009   4.066
   63        1.284   2.741   0.010   4.034
   64        1.276   2.760   0.010   4.046
   65        1.282   2.724   0.008   4.015
   66        1.282   2.731   0.009   4.022
   67        1.278   2.832   0.016   4.126
   68        1.272   2.839   0.014   4.125
   69        1.262   2.795   0.009   4.065
   70        1.272   2.741   0.005   4.019
   71        1.294   2.652   0.005   3.952
   72        1.289   2.672   0.006   3.967
   73        1.280   2.778   0.010   4.068
   74        1.290   2.789   0.011   4.090
   75        1.278   2.794   0.014   4.086
   76        1.281   2.727   0.009   4.016
   77        1.283   2.701   0.007   3.990
   78        1.280   2.772   0.013   4.065
   79        1.271   2.793   0.011   4.075
   80        1.278   2.823   0.016   4.116
   81        1.273   2.747   0.006   4.026
   82        1.273   2.735   0.006   4.014
   83        1.289   2.655   0.005   3.949
   84        1.289   2.689   0.008   3.985
   85        1.287   2.699   0.005   3.990
   86        1.292   2.776   0.011   4.080
   87        1.286   2.707   0.007   3.999
   88        1.274   2.774   0.011   4.059
   89        1.279   2.772   0.013   4.064
   90        1.280   2.727   0.009   4.016
   91        1.280   2.805   0.012   4.097
   92        1.273   2.803   0.012   4.087
   93        1.273   2.728   0.005   4.006
   94        1.276   2.736   0.006   4.018
   95        1.288   2.688   0.006   3.982
   96        1.289   2.671   0.006   3.967
   97        1.286   2.743   0.007   4.037
   98        1.280   2.825   0.013   4.119
   99        1.284   2.790   0.015   4.090
  100        1.276   2.741   0.008   4.024
  101        1.282   2.715   0.008   4.005
  102        1.284   2.779   0.015   4.078
  103        1.287   2.890   0.028   4.205
  104        1.274   2.834   0.014   4.123
  105        1.268   2.780   0.008   4.057
  106        1.267   2.744   0.006   4.017
  107        1.290   2.659   0.005   3.954
  108        1.291   2.676   0.007   3.973
  109        1.282   2.765   0.009   4.057
  110        1.285   2.825   0.014   4.125
  111        1.284   2.723   0.008   4.015
  112        1.277   2.831   0.019   4.127
  113        1.282   2.822   0.019   4.122
  114        1.284   2.699   0.007   3.990
  115        1.277   2.842   0.014   4.133
  116        1.270   2.802   0.010   4.082
  117        1.270   2.734   0.005   4.008
  118        1.270   2.777   0.008   4.055
  119        1.289   2.670   0.006   3.965
  120        1.293   2.646   0.004   3.943
--------------------------------------------------
tot         105.23  214.80  381.15  701.19
 
magnetization (x)
 
# of ion       s       p       d       tot
------------------------------------------
    1       -0.000  -0.000  -0.112  -0.112
    2       -0.002  -0.000  -0.108  -0.110
    3       -0.001   0.001  -0.707  -0.707
    4        0.003   0.000   0.553   0.556
    5       -0.000   0.012   0.398   0.410
    6       -0.001   0.001   0.255   0.254
    7       -0.001   0.007   0.285   0.291
    8       -0.000   0.002   0.415   0.417
    9       -0.000   0.001  -0.060  -0.060
   10       -0.001  -0.000   0.007   0.006
   11       -0.001   0.002  -0.546  -0.545
   12        0.001  -0.001   0.466   0.465
   13       -0.001   0.005   0.082   0.085
   14       -0.002  -0.000   0.148   0.146
   15       -0.001   0.011   0.815   0.826
   16       -0.001  -0.002   0.012   0.010
   17        0.001   0.001  -0.043  -0.042
   18       -0.002   0.000  -0.025  -0.026
   19       -0.001   0.002  -0.630  -0.630
   20        0.001  -0.001   0.568   0.569
   21       -0.002   0.007   0.263   0.268
   22       -0.001   0.001   0.292   0.292
   23       -0.001   0.005   0.346   0.350
   24       -0.001   0.003   0.418   0.420
   25       -0.001   0.001  -0.069  -0.069
   26       -0.001   0.000  -0.034  -0.035
   27       -0.000   0.001  -0.566  -0.566
   28        0.002  -0.001   0.673   0.675
   29       -0.000   0.004  -0.028  -0.025
   30       -0.000   0.008   0.703   0.710
   31       -0.001   0.007   0.439   0.444
   32       -0.000  -0.001   0.022   0.021
   33       -0.002   0.001  -0.093  -0.095
   34       -0.000  -0.000  -0.093  -0.094
   35       -0.004   0.002  -0.797  -0.800
   36       -0.000  -0.001   0.479   0.478
   37       -0.001   0.008   0.253   0.260
   38       -0.001   0.002   0.314   0.314
   39       -0.000   0.011   0.509   0.520
   40       -0.001   0.002   0.151   0.152
   41       -0.001   0.001  -0.092  -0.092
   42       -0.001  -0.000  -0.041  -0.042
   43       -0.001   0.000  -0.392  -0.393
   44        0.003  -0.000   0.754   0.756
   45       -0.001   0.004   0.058   0.061
   46       -0.001  -0.000   0.212   0.210
   47       -0.001   0.005   0.296   0.299
   48       -0.000   0.001   0.171   0.172
   49        0.000  -0.006   0.000  -0.006
   50       -0.002  -0.011   0.000  -0.013
   51        0.000  -0.013  -0.000  -0.013
   52        0.003   0.070   0.000   0.073
   53       -0.001  -0.045   0.000  -0.046
   54        0.001   0.058  -0.000   0.059
   55        0.001  -0.011   0.000  -0.010
   56       -0.000  -0.006   0.000  -0.006
   57       -0.003  -0.036  -0.000  -0.039
   58        0.003   0.020   0.000   0.023
   59        0.009   0.415  -0.000   0.423
   60        0.009   0.366   0.000   0.375
   61        0.000  -0.005  -0.000  -0.005
   62        0.004  -0.008   0.000  -0.005
   63        0.003   0.037   0.000   0.040
   64        0.003   0.041   0.000   0.045
   65        0.001   0.010   0.000   0.011
   66        0.003   0.048   0.000   0.051
   67       -0.001  -0.001  -0.000  -0.002
   68        0.001  -0.010   0.000  -0.009
   69       -0.003  -0.034  -0.000  -0.038
   70        0.001   0.025   0.000   0.026
   71        0.006   0.307  -0.000   0.313
   72        0.011   0.488  -0.000   0.499
   73        0.000  -0.001  -0.000  -0.001
   74        0.001  -0.009   0.000  -0.008
   75        0.001   0.002   0.000   0.003
   76        0.005   0.109   0.000   0.114
   77        0.002   0.016   0.000   0.018
   78        0.001   0.023  -0.000   0.024
   79        0.001  -0.017   0.000  -0.016
   80       -0.000  -0.005  -0.000  -0.005
   81       -0.001  -0.025  -0.000  -0.026
   82        0.003   0.025   0.000   0.028
   83        0.009   0.420  -0.000   0.428
   84        0.008   0.335  -0.000   0.342
   85        0.000  -0.009   0.000  -0.009
   86        0.004  -0.013   0.000  -0.009
   87        0.004   0.100   0.000   0.104
   88        0.005   0.073   0.000   0.078
   89        0.002   0.003   0.000   0.004
   90        0.004   0.095   0.000   0.099
   91        0.000  -0.006   0.000  -0.006
   92        0.002  -0.015   0.000  -0.014
   93       -0.002  -0.033  -0.000  -0.036
   94        0.001   0.025   0.000   0.025
   95        0.003   0.167  -0.000   0.171
   96        0.010   0.427  -0.000   0.437
   97        0.001  -0.013  -0.000  -0.012
   98        0.002  -0.000   0.000   0.002
   99        0.001   0.012  -0.000   0.013
  100        0.003   0.031   0.000   0.035
  101        0.002   0.028   0.000   0.031
  102        0.002   0.023  -0.000   0.024
  103        0.001  -0.018  -0.000  -0.017
  104       -0.000  -0.010   0.000  -0.010
  105       -0.002  -0.030  -0.000  -0.032
  106        0.002   0.000   0.000   0.003
  107        0.008   0.386  -0.000   0.395
  108        0.009   0.360  -0.000   0.369
  109        0.000  -0.024   0.000  -0.023
  110        0.001  -0.017   0.000  -0.016
  111        0.002   0.033   0.000   0.036
  112        0.003   0.026   0.000   0.029
  113        0.002   0.010   0.000   0.011
  114        0.003   0.095   0.000   0.098
  115       -0.001   0.000   0.000  -0.001
  116        0.002  -0.012   0.000  -0.010
  117        0.000  -0.005  -0.000  -0.005
  118        0.003   0.034   0.000   0.037
  119        0.006   0.315  -0.000   0.321
  120        0.011   0.473   0.000   0.483
--------------------------------------------------
tot           0.14    5.18    5.92   11.25
 

 total amount of memory used by VASP MPI-rank0   538461. kBytes
=======================================================================

   base      :      30000. kBytes
   nonlr-proj:      65200. kBytes
   fftplans  :      10153. kBytes
   grid      :      58351. kBytes
   one-center:       3732. kBytes
   wavefun   :     371025. kBytes
 
  
  
 General timing and accounting informations for this job:
 ========================================================
  
                  Total CPU time used (sec):     9157.604
                            User time (sec):     9140.839
                          System time (sec):       16.765
                         Elapsed time (sec):     9184.528
  
                   Maximum memory used (kb):      646224.
                   Average memory used (kb):           0.
  
                          Minor page faults:        45845
                          Major page faults:           59
                 Voluntary context switches:         1186
