 vasp.5.4.4.18Apr17-6-g9f103f2a35 (build May 12 2020 04:58:55) complex          
  
 MD_VERSION_INFO: Compiled 2020-05-12T11:58:55-UTC in devlin.sd.materialsdesign.
 com:/home/medea2/data/build/wwolf/vasp-gpu5.4.4/13047/x86_64/src/src/build/std 
 from svn 13047
 
 This VASP executable licensed from Materials Design, Inc.
 
 executed on                        Lin64 date 2023.03.25  11:10:46
 running on   16 total cores
 distrk:  each k-point on   16 cores,    1 groups
 distr:  one band on NCORES_PER_BAND=   1 cores,   16 groups


--------------------------------------------------------------------------------------------------------


 INCAR:
 POTCAR:    PAW_PBE Ni 02Aug2007                  
 POTCAR:    PAW_PBE O 08Apr2002                   

 ----------------------------------------------------------------------------- 
|                                                                             |
|           W    W    AA    RRRRR   N    N  II  N    N   GGGG   !!!           |
|           W    W   A  A   R    R  NN   N  II  NN   N  G    G  !!!           |
|           W    W  A    A  R    R  N N  N  II  N N  N  G       !!!           |
|           W WW W  AAAAAA  RRRRR   N  N N  II  N  N N  G  GGG   !            |
|           WW  WW  A    A  R   R   N   NN  II  N   NN  G    G                |
|           W    W  A    A  R    R  N    N  II  N    N   GGGG   !!!           |
|                                                                             |
|      For optimal performance we recommend to set                            |
|        NCORE= 4 - approx SQRT( number of cores)                             |
|      NCORE specifies how many cores store one orbital (NPAR=cpu/NCORE).     |
|      This setting can  greatly improve the performance of VASP for DFT.     |
|      The default,   NCORE=1            might be grossly inefficient         |
|      on modern multi-core architectures or massively parallel machines.     |
|      Do your own testing !!!!                                               |
|      Unfortunately you need to use the default for GW and RPA calculations. |
|      (for HF NCORE is supported but not extensively tested yet)             |
|                                                                             |
 ----------------------------------------------------------------------------- 

 POTCAR:    PAW_PBE Ni 02Aug2007                  
  local pseudopotential read in
  partial core-charges read in
  partial kinetic energy density read in
  atomic valenz-charges read in
  non local Contribution for L=           2  read in
    real space projection operators read in
  non local Contribution for L=           2  read in
    real space projection operators read in
  non local Contribution for L=           0  read in
    real space projection operators read in
  non local Contribution for L=           0  read in
    real space projection operators read in
  non local Contribution for L=           1  read in
    real space projection operators read in
  non local Contribution for L=           1  read in
    real space projection operators read in
    PAW grid and wavefunctions read in
 
   number of l-projection  operators is LMAX  =           6
   number of lm-projection operators is LMMAX =          18
 
 POTCAR:    PAW_PBE O 08Apr2002                   
  local pseudopotential read in
  partial core-charges read in
  partial kinetic energy density read in
  kinetic energy density of atom read in
  atomic valenz-charges read in
  non local Contribution for L=           0  read in
    real space projection operators read in
  non local Contribution for L=           0  read in
    real space projection operators read in
  non local Contribution for L=           1  read in
    real space projection operators read in
  non local Contribution for L=           1  read in
    real space projection operators read in
    PAW grid and wavefunctions read in
 
   number of l-projection  operators is LMAX  =           4
   number of lm-projection operators is LMMAX =           8
 
 Optimization of the real space projectors (new method)

 maximal supplied QI-value         = 16.25
 optimisation between [QCUT,QGAM] = [ 11.38, 22.75] = [ 36.24,144.96] Ry 
 Optimized for a Real-space Cutoff    1.47 Angstroem

   l    n(q)    QCUT    max X(q) W(low)/X(q) W(high)/X(q)  e(spline) 
   2      9    11.376    60.317    0.17E-03    0.16E-04    0.16E-06
   2      9    11.376    55.921    0.17E-03    0.16E-04    0.17E-06
   0     10    11.376    51.690    0.45E-04    0.60E-04    0.21E-06
   0     10    11.376    30.015    0.37E-04    0.55E-04    0.19E-06
   1     10    11.376    18.849    0.83E-04    0.11E-03    0.92E-07
   1     10    11.376    14.624    0.69E-04    0.92E-04    0.82E-07
 Optimization of the real space projectors (new method)

 maximal supplied QI-value         = 24.76
 optimisation between [QCUT,QGAM] = [ 11.39, 22.77] = [ 36.31,145.25] Ry 
 Optimized for a Real-space Cutoff    1.10 Angstroem

   l    n(q)    QCUT    max X(q) W(low)/X(q) W(high)/X(q)  e(spline) 
   0      7    11.387    20.381    0.22E-03    0.48E-03    0.18E-06
   0      7    11.387    15.268    0.22E-03    0.52E-03    0.19E-06
   1      7    11.387     5.964    0.22E-03    0.73E-03    0.24E-06
   1      7    11.387     5.382    0.19E-03    0.60E-03    0.21E-06

 ----------------------------------------------------------------------------- 
|                                                                             |
|  ADVICE TO THIS USER RUNNING 'VASP/VAMP'   (HEAR YOUR MASTER'S VOICE ...):  |
|                                                                             |
|      You enforced a specific xc-type in the INCAR file,                     |
|      a different type was found on the POTCAR file                          |
|          I HOPE YOU KNOW, WHAT YOU ARE  DOING                               |
|                                                                             |
 ----------------------------------------------------------------------------- 

  PAW_PBE Ni 02Aug2007                  :
 energy of atom  1       EATOM=-1077.6739
 kinetic energy error for atom=    0.0030 (will be added to EATOM!!)
  PAW_PBE O 08Apr2002                   :
 energy of atom  2       EATOM= -432.3788
 kinetic energy error for atom=    0.0224 (will be added to EATOM!!)
 
 
 POSCAR: Ni2O3_Cmcm_scale_0_950_disp_0_05_round_1
  positions in direct lattice
  No initial velocities read in
 exchange correlation table for  LEXCH =       14
   RHO(1)=    0.500       N(1)  =     2000
   RHO(2)=  100.500       N(2)  =     4000
 


--------------------------------------------------------------------------------------------------------


 ion  position               nearest neighbor table
   1  0.011  0.385  0.053-  55 1.43 110 1.75  52 1.81 104 1.86  62 1.97  56 1.98  40 2.31   8 2.49
                            33 2.59  34 2.62   2 2.69  10 2.78  17 2.83  47 2.85   7 2.90  15 2.91
   2  0.189  0.154  1.000-  56 1.37  79 1.88  51 1.90  74 1.93  50 2.12  55 2.16  23 2.40   9 2.43
                             7 2.47  17 2.56  34 2.60   1 2.69  32 2.69  16 2.76  18 2.86   8 2.87
   3  0.006  0.382  0.477- 109 1.86 105 1.87  53 1.92  58 1.98  57 2.10  61 2.19  35 2.46  46 2.73
                            36 2.79  19 2.84   6 2.85  37 2.92  14 2.93   4 2.98  12 2.98   5 3.07
   4  0.178  0.145  0.581-  54 1.82  57 2.00  58 2.05  82 2.06  73 2.11  49 2.20  13 2.51  36 2.56
                            11 2.61  29 2.62   5 2.89  20 2.90   3 2.98  19 3.03
   5  0.180  0.428  0.670-  59 1.78  90 1.85  66 1.98  82 2.02  58 2.18  61 2.18  37 2.50  21 2.83
                             4 2.89  28 2.94  19 3.01  12 3.02   3 3.07
   6  0.002  0.107  0.383- 113 1.41  65 1.63 105 1.77  60 1.89  57 2.04  49 2.18  38 2.45  43 2.62
                            11 2.63   3 2.85  36 2.88  22 2.92
   7  0.002  0.094  0.133- 112 1.45  64 1.70 104 1.76  60 1.92  56 2.06  50 2.10  34 2.20  41 2.34
                             2 2.47  39 2.56   9 2.63   1 2.90  23 2.91
   8  0.179  0.432  0.907-  62 1.56  59 1.88  87 1.90  63 1.97  79 2.04  55 2.17   1 2.49  17 2.50
                            40 2.53   2 2.87  24 2.89  26 2.90  10 3.06
   9  0.189  0.901  0.049-  67 1.34  74 1.81  50 1.93  92 1.93  64 1.98  68 2.03   2 2.43  32 2.47
                            16 2.50  23 2.54   7 2.63  10 2.65  41 2.68  26 2.68  15 2.76  25 2.91
  10  0.999  0.678  0.009-  68 1.21 110 1.69 115 1.72  63 1.96  67 2.04  62 2.06  47 2.18  15 2.32
                            42 2.46  41 2.47   9 2.65   1 2.78  16 2.81  40 2.90  26 2.97   8 3.06
  11  0.176  0.911  0.474-  49 1.87  73 1.89  65 1.89  69 1.94  93 2.06  70 2.13  43 2.46   4 2.61
                            22 2.62   6 2.63  27 2.89  28 2.97  14 2.99  13 3.06  29 3.06  12 3.07
  12  0.988  0.668  0.576-  66 1.78 109 1.79 118 1.83  69 1.95  61 2.12  70 2.17  44 2.35  43 2.60
                            37 2.75  46 2.76  28 2.96  13 2.98   3 2.98   5 3.02  11 3.07
  13  0.007  0.960  0.667- 102 1.35  54 1.50 118 1.88  71 1.92  49 2.04  70 2.08  36 2.44  45 2.51
                             4 2.51  43 2.82  29 2.90  12 2.98  11 3.06
  14  0.174  0.620  0.379-  72 1.78  53 1.91  77 1.92  93 2.09  69 2.15  61 2.24  46 2.35  30 2.90
                            19 2.90   3 2.93  11 2.99  28 3.08
  15  0.165  0.636  0.141-  72 1.89  68 1.89  52 1.94  76 2.04  92 2.07  62 2.17  10 2.32  47 2.42
                            26 2.51   9 2.76   1 2.91  31 3.04
  16  0.997  0.947  0.913-  50 1.24  99 1.36  51 1.72 115 1.78  71 1.80  67 1.94  41 2.23  34 2.37
                            48 2.42   9 2.50   2 2.76  10 2.81  32 2.97
  17  0.353  0.377  0.050-  79 1.36  76 1.90  56 2.01  62 2.09  86 2.09  80 2.11  24 2.45   8 2.50
                             2 2.56  18 2.73  26 2.73   1 2.83  33 2.85  23 2.88  31 2.99
  18  0.534  0.140  0.003-  80 1.35  98 1.80  75 1.89 103 1.94  74 1.95  25 2.17  79 2.18  39 2.31
                            23 2.43  88 2.51  48 2.58  33 2.67  32 2.68  17 2.73  34 2.82   2 2.86
  19  0.348  0.393  0.480-  77 1.87  85 2.00  82 2.01  61 2.03  57 2.12  81 2.18   3 2.84  30 2.85
                            28 2.87  14 2.90  21 2.98  35 2.98  22 2.99   5 3.01   4 3.03  20 3.08
  20  0.529  0.140  0.577-  78 1.77  81 1.97  73 2.01  97 2.05 106 2.07  82 2.14  27 2.49  45 2.54
                            29 2.57  36 2.81   4 2.90  21 2.93  22 3.07  19 3.08  35 3.09
  21  0.522  0.428  0.667-  83 1.84  90 1.87  82 2.01 114 2.04 106 2.10  85 2.11   5 2.83  20 2.93
                            37 2.94  44 2.96  28 2.96  19 2.98
  22  0.355  0.102  0.383-  89 1.61  65 1.66  84 1.82  81 2.02  57 2.02  73 2.23  27 2.55  11 2.62
                            38 2.91   6 2.92  19 2.99  20 3.07
  23  0.353  0.093  0.137-  64 1.62  88 1.63  84 1.99  80 2.08  74 2.10  56 2.11   2 2.40  18 2.43
                             9 2.54  25 2.59  39 2.81  17 2.88   7 2.91
  24  0.529  0.428  0.912-  86 1.52  83 1.87 111 1.89  87 1.91 103 2.06  79 2.11  33 2.39  17 2.45
                            40 2.86  26 2.87   8 2.89  42 2.93  18 2.94
  25  0.541  0.914  0.046-  91 1.39  98 1.74  88 1.88  74 1.89 116 2.03  18 2.17  92 2.18  48 2.30
                            39 2.49  32 2.50  75 2.51  23 2.59  41 2.69  42 2.69  26 2.83   9 2.91
  26  0.358  0.663  0.002-  92 1.42  87 1.80  86 1.84  62 2.01  91 2.08  67 2.23  31 2.40  15 2.51
                             9 2.68  17 2.73  25 2.83  42 2.85  24 2.87   8 2.90  32 2.95  10 2.97
  27  0.526  0.918  0.474-  89 1.74  73 1.76  97 1.83  94 2.08 117 2.13  93 2.15  20 2.49  22 2.55
                            38 2.58  11 2.89  43 2.94  30 2.96  29 2.99  45 3.00  28 3.06  44 3.08
  28  0.346  0.670  0.573-  61 1.91  90 1.93  70 2.01  93 2.01  94 2.07  85 2.17  29 2.86  19 2.87
                             5 2.94  30 2.95  12 2.96  21 2.96  44 2.96  11 2.97  27 3.06  14 3.08
  29  0.358  0.948  0.665-  78 1.55  54 1.82  95 1.93  73 1.93  94 1.97  70 2.02  20 2.57   4 2.62
                            28 2.86  45 2.87  13 2.90  27 2.99  11 3.06
  30  0.524  0.623  0.391- 101 1.84  96 1.92  77 1.97  93 2.03 117 2.09  85 2.11  19 2.85  35 2.89
                            14 2.90  28 2.95  27 2.96  44 2.97  46 3.03
  31  0.532  0.626  0.138- 100 1.94  96 1.94 116 1.99  76 2.01  92 2.08  86 2.12  42 2.37  26 2.40
                            47 2.82  33 2.92  25 2.95  17 2.99  15 3.04
  32  0.356  0.948  0.905-  74 1.39  75 1.61  95 1.67  51 1.71  91 1.99  67 2.10   9 2.47  25 2.50
                            18 2.68   2 2.69  48 2.89  26 2.95  16 2.97
  33  0.698  0.380  0.049- 103 1.35 100 1.92  80 2.02 104 2.08  86 2.11 110 2.16  24 2.39  40 2.45
                             1 2.59  18 2.67  42 2.73  34 2.74  39 2.85  17 2.85  31 2.92  47 3.05
  34  0.875  0.142  0.997- 104 1.47  50 1.70  55 1.77  99 1.78  98 1.89 103 2.04   7 2.20  41 2.27
                            16 2.37  39 2.50  48 2.55   2 2.60   1 2.62  33 2.74  18 2.82  40 2.87
  35  0.709  0.388  0.474- 101 1.89 109 1.97 106 2.03  85 2.03 105 2.04  81 2.17   3 2.46  30 2.89
                            46 2.90  44 2.92  36 2.93  19 2.98  38 3.01  20 3.09
  36  0.868  0.147  0.573-  58 1.75  49 1.83 102 1.90 105 1.95  97 1.98 106 1.99  13 2.44  45 2.55
                             4 2.56  43 2.64   3 2.79  20 2.81   6 2.88  37 2.91  35 2.93  38 3.05
  37  0.878  0.426  0.671-  66 1.69 107 1.78  58 1.83 114 1.90 106 2.09 109 2.21   5 2.50  12 2.75
                            36 2.91   3 2.92  21 2.94  44 2.97
  38  0.706  0.095  0.379- 113 1.52  89 1.64 108 1.85 105 2.03  81 2.13  97 2.17   6 2.45  27 2.58
                            43 2.76  22 2.91  35 3.01  36 3.05
  39  0.692  0.102  0.138-  88 1.65 112 1.77 108 1.85  80 1.88 104 2.06  98 2.13  18 2.31  25 2.49
                            34 2.50   7 2.56  41 2.58  23 2.81  33 2.85
  40  0.874  0.424  0.910- 110 1.59  63 1.69  55 1.71 111 1.85 107 1.87 103 2.14   1 2.31  33 2.45
                             8 2.53  24 2.86  34 2.87  10 2.90  42 2.96
  41  0.865  0.910  0.051- 115 1.43  50 1.59 112 1.83  98 1.84  68 1.91 116 2.02  16 2.23  34 2.27
                            48 2.34   7 2.34  10 2.47  39 2.58   9 2.68  42 2.68  25 2.69  47 2.85
  42  0.702  0.668  0.004- 116 1.35 111 1.89  86 1.98 115 2.01 110 2.06  91 2.13  31 2.37  47 2.42
                            10 2.46  41 2.68  25 2.69  33 2.73  26 2.85  48 2.86  24 2.93  40 2.96
  43  0.880  0.894  0.484-  49 1.44  69 1.67 118 1.78  97 1.86 117 1.99 113 2.10  11 2.46  12 2.60
                             6 2.62  36 2.64  38 2.76  13 2.82  46 2.82  44 2.84  45 2.90  27 2.94
  44  0.704  0.667  0.574- 114 1.85 109 2.01 117 2.02 118 2.07  85 2.10  94 2.11  12 2.35  43 2.84
                            45 2.91  35 2.92  21 2.96  28 2.96  37 2.97  30 2.97  46 3.03  27 3.08
  45  0.705  0.953  0.661- 102 1.64  78 1.80 119 1.86 118 1.94  97 1.97  94 2.08  13 2.51  20 2.54
                            36 2.55  29 2.87  43 2.90  44 2.91  27 3.00
  46  0.890  0.625  0.388-  53 1.57 120 1.86  69 1.87 101 2.01 117 2.11 109 2.13  14 2.35   3 2.73
                            12 2.76  43 2.82  35 2.90  30 3.03  44 3.03
  47  0.873  0.634  0.144-  52 1.73 120 1.82  68 1.84 100 1.94 116 2.01  10 2.18 110 2.20  15 2.42
                            42 2.42  31 2.82  41 2.85   1 2.85  33 3.05
  48  0.705  0.948  0.915-  98 1.28  99 1.69  75 1.79 119 1.98 115 2.00  91 2.02  25 2.30  41 2.34
                            16 2.42  34 2.55  18 2.58  42 2.86  32 2.89
  49  0.990  0.999  0.523-  43 1.44  36 1.83  11 1.87  13 2.04   6 2.18   4 2.20
  50  0.002  0.997  0.996-  16 1.24  41 1.59  34 1.70  99 1.86   9 1.93   7 2.10   2 2.12
  51  0.175  0.036  0.888-  32 1.71  16 1.72   2 1.90
  52  0.002  0.489  0.164-  47 1.73   1 1.81  15 1.94
  53  0.996  0.491  0.359-  46 1.57  14 1.91   3 1.92
  54  0.165  0.034  0.690-  13 1.50  29 1.82   4 1.82
  55  0.990  0.298  0.968-   1 1.43  40 1.71  34 1.77   2 2.16   8 2.17
  56  0.176  0.235  0.082-   2 1.37   1 1.98  17 2.01   7 2.06  23 2.11
  57  0.182  0.225  0.446-   4 2.00  22 2.02   6 2.04   3 2.10  19 2.12
  58  0.996  0.290  0.606-  36 1.75  37 1.83   3 1.98   4 2.05   5 2.18
  59  0.174  0.343  0.785-   5 1.78   8 1.88
  60  0.005  0.186  0.258-   6 1.89   7 1.92
  61  0.184  0.537  0.531-  28 1.91  19 2.03  12 2.12   5 2.18   3 2.19  14 2.24
  62  0.174  0.521  0.004-   8 1.56   1 1.97  26 2.01  10 2.06  17 2.09  15 2.17
  63  0.998  0.566  0.889-  40 1.69 110 1.86  10 1.96   8 1.97
  64  0.181  0.021  0.167-  23 1.62   7 1.70   9 1.98
  65  0.176  0.029  0.362-   6 1.63  22 1.66  11 1.89
  66  0.002  0.570  0.686-  37 1.69  12 1.78   5 1.98
  67  0.168  0.827  0.967-   9 1.34  16 1.94  10 2.04  32 2.10  26 2.23
  68  0.012  0.755  0.079-  10 1.21  47 1.84  15 1.89  41 1.91   9 2.03
  69  0.012  0.766  0.452-  43 1.67  46 1.87  11 1.94  12 1.95  14 2.15
  70  0.181  0.817  0.615-  28 2.01  29 2.02  13 2.08  11 2.13  12 2.17
  71  0.998  0.873  0.793-  16 1.80  13 1.92
  72  0.175  0.714  0.266-  14 1.78  15 1.89
  73  0.358  0.002  0.530-  27 1.76  11 1.89  29 1.93  20 2.01   4 2.11  22 2.23
  74  0.353  0.005  0.998-  32 1.39   9 1.81  25 1.89   2 1.93  18 1.95  23 2.10
  75  0.520  0.037  0.885-  32 1.61  48 1.79  18 1.89  25 2.51
  76  0.347  0.490  0.165-  17 1.90  31 2.01  15 2.04
  77  0.349  0.485  0.359-  19 1.87  14 1.92  30 1.97
  78  0.513  0.037  0.685-  29 1.55  20 1.77  45 1.80
  79  0.344  0.295  0.969-  17 1.36   2 1.88   8 2.04  24 2.11  18 2.18
  80  0.536  0.224  0.082-  18 1.35  39 1.88  33 2.02  23 2.08  17 2.11
  81  0.526  0.225  0.447-  20 1.97  22 2.02  38 2.13  35 2.17  19 2.18
  82  0.350  0.299  0.611-  21 2.01  19 2.01   5 2.02   4 2.06  20 2.14
  83  0.539  0.350  0.788-  21 1.84  24 1.87
  84  0.349  0.190  0.266-  22 1.82  23 1.99
  85  0.530  0.518  0.526-  19 2.00  35 2.03  44 2.10  30 2.11  21 2.11  28 2.17
  86  0.522  0.528  1.000-  24 1.52  26 1.84  42 1.98  17 2.09  33 2.11  31 2.12
  87  0.356  0.561  0.891-  26 1.80   8 1.90  24 1.91
  88  0.523  0.014  0.163-  23 1.63  39 1.65  25 1.88  18 2.51
  89  0.526  0.021  0.370-  22 1.61  38 1.64  27 1.74
  90  0.351  0.555  0.690-   5 1.85  21 1.87  28 1.93
  91  0.524  0.824  0.966-  25 1.39  32 1.99  48 2.02  26 2.08  42 2.13
  92  0.351  0.758  0.082-  26 1.42   9 1.93  15 2.07  31 2.08  25 2.18
  93  0.347  0.756  0.440-  28 2.01  30 2.03  11 2.06  14 2.09  27 2.15
  94  0.523  0.818  0.609-  29 1.97  28 2.07  45 2.08  27 2.08  44 2.11
  95  0.344  0.873  0.795-  32 1.67  29 1.93
  96  0.514  0.713  0.266-  30 1.92  31 1.94
  97  0.706  0.007  0.524-  27 1.83  43 1.86  45 1.97  36 1.98  20 2.05  38 2.17
  98  0.699  0.012  0.996-  48 1.28  25 1.74  18 1.80  41 1.84  34 1.89  39 2.13
  99  0.876  0.040  0.888-  16 1.36  48 1.69  34 1.78  50 1.86
 100  0.705  0.491  0.166-  33 1.92  31 1.94  47 1.94
 101  0.694  0.502  0.361-  30 1.84  35 1.89  46 2.01
 102  0.873  0.037  0.690-  13 1.35  45 1.64  36 1.90
 103  0.694  0.288  0.974-  33 1.35  18 1.94  34 2.04  24 2.06  40 2.14
 104  0.876  0.231  0.085-  34 1.47   7 1.76   1 1.86  39 2.06  33 2.08
 105  0.870  0.227  0.443-   6 1.77   3 1.87  36 1.95  38 2.03  35 2.04
 106  0.702  0.295  0.607-  36 1.99  35 2.03  20 2.07  37 2.09  21 2.10
 107  0.877  0.342  0.787-  37 1.78  40 1.87
 108  0.697  0.185  0.260-  38 1.85  39 1.85
 109  0.870  0.525  0.526-  12 1.79   3 1.86  35 1.97  44 2.01  46 2.13  37 2.21
 110  0.891  0.522  0.003-  40 1.59  10 1.69   1 1.75  63 1.86  42 2.06  33 2.16  47 2.20
 111  0.706  0.553  0.891-  40 1.85  24 1.89  42 1.89
 112  0.870  0.005  0.167-   7 1.45  39 1.77  41 1.83
 113  0.867  0.022  0.359-   6 1.41  38 1.52  43 2.10
 114  0.712  0.566  0.690-  44 1.85  37 1.90  21 2.04
 115  0.873  0.815  0.970-  41 1.43  10 1.72  16 1.78  48 2.00  42 2.01
 116  0.700  0.756  0.082-  42 1.35  31 1.99  47 2.01  41 2.02  25 2.03
 117  0.705  0.760  0.442-  43 1.99  44 2.02  30 2.09  46 2.11  27 2.13
 118  0.868  0.829  0.605-  43 1.78  12 1.83  13 1.88  45 1.94  44 2.07
 119  0.698  0.866  0.783-  45 1.86  48 1.98
 120  0.874  0.708  0.265-  47 1.82  46 1.86
 
  LATTYP: Found a simple orthorhombic cell.
 ALAT       =     8.2728565000
 B/A-ratio  =     1.1146370060
 C/A-ratio  =     1.6738812646
  
  Lattice vectors:
  
 A1 = (   8.2728565000,   0.0000000000,   0.0000000000)
 A2 = (   0.0000000000,   9.2212320000,   0.0000000000)
 A3 = (   0.0000000000,   0.0000000000,  13.8477795000)


Analysis of symmetry for initial positions (statically):
=====================================================================
 Subroutine PRICEL returns:
 Original cell was already a primitive cell.
 

 Routine SETGRP: Setting up the symmetry group for a 
 simple orthorhombic supercell.


 Subroutine GETGRP returns: Found  1 space group operations
 (whereof  1 operations were pure point group operations)
 out of a pool of  8 trial point group operations.


The static configuration has the point symmetry C_1 .


Analysis of symmetry for dynamics (positions and initial velocities):
=====================================================================
 Subroutine PRICEL returns:
 Original cell was already a primitive cell.
 

 Routine SETGRP: Setting up the symmetry group for a 
 simple orthorhombic supercell.


 Subroutine GETGRP returns: Found  1 space group operations
 (whereof  1 operations were pure point group operations)
 out of a pool of  8 trial point group operations.


The dynamic configuration has the point symmetry C_1 .


Analysis of structural, dynamic, and magnetic symmetry:
=====================================================================
 Subroutine PRICEL returns:
 Original cell was already a primitive cell.
 

 Routine SETGRP: Setting up the symmetry group for a 
 simple orthorhombic supercell.


 Subroutine GETGRP returns: Found  1 space group operations
 (whereof  1 operations were pure point group operations)
 out of a pool of  8 trial point group operations.


The magnetic configuration has the point symmetry C_1 .


 Subroutine INISYM returns: Found  1 space group operations
 (whereof  1 operations are pure point group operations),
 and found     1 'primitive' translations

 
 
 KPOINTS: Automatic mesh                          

Automatic generation of k-mesh.
Space group operators:
 irot       det(A)        alpha          n_x          n_y          n_z        tau_x        tau_y        tau_z
    1     1.000000     0.000000     1.000000     0.000000     0.000000     0.000000     0.000000     0.000000
 
 Subroutine IBZKPT returns following result:
 ===========================================
 
 Found     14 irreducible k-points:
 
 Following reciprocal coordinates:
            Coordinates               Weight
  0.000000  0.000000  0.000000      1.000000
  0.250000  0.000000  0.000000      2.000000
  0.500000  0.000000  0.000000      1.000000
  0.000000  0.333333  0.000000      2.000000
  0.250000  0.333333  0.000000      2.000000
  0.500000  0.333333  0.000000      2.000000
 -0.250000  0.333333  0.000000      2.000000
  0.000000  0.000000  0.500000      1.000000
  0.250000  0.000000  0.500000      2.000000
  0.500000  0.000000  0.500000      1.000000
  0.000000  0.333333  0.500000      2.000000
  0.250000  0.333333  0.500000      2.000000
  0.500000  0.333333  0.500000      2.000000
 -0.250000  0.333333  0.500000      2.000000
 
 Following cartesian coordinates:
            Coordinates               Weight
  0.000000  0.000000  0.000000      1.000000
  0.030219  0.000000  0.000000      2.000000
  0.060439  0.000000  0.000000      1.000000
  0.000000  0.036148  0.000000      2.000000
  0.030219  0.036148  0.000000      2.000000
  0.060439  0.036148  0.000000      2.000000
 -0.030219  0.036148  0.000000      2.000000
  0.000000  0.000000  0.036107      1.000000
  0.030219  0.000000  0.036107      2.000000
  0.060439  0.000000  0.036107      1.000000
  0.000000  0.036148  0.036107      2.000000
  0.030219  0.036148  0.036107      2.000000
  0.060439  0.036148  0.036107      2.000000
 -0.030219  0.036148  0.036107      2.000000
 


--------------------------------------------------------------------------------------------------------




 Dimension of arrays:
   k-points           NKPTS =     14   k-points in BZ     NKDIM =     14   number of bands    NBANDS=    608
   number of dos      NEDOS =    301   number of ions     NIONS =    120
   non local maximal  LDIM  =      6   non local SUM 2l+1 LMDIM =     18
   total plane-waves  NPLWV = 453600
   max r-space proj   IRMAX =   5814   max aug-charges    IRDMAX=  14116
   dimension x,y,z NGX =    60 NGY =   70 NGZ =  108
   dimension x,y,z NGXF=   120 NGYF=  140 NGZF=  216
   support grid    NGXF=   120 NGYF=  140 NGZF=  216
   ions per type =              48  72
   NGX,Y,Z   is equivalent  to a cutoff of  12.06, 12.62, 12.97 a.u.
   NGXF,Y,Z  is equivalent  to a cutoff of  24.11, 25.24, 25.93 a.u.

 SYSTEM =  unknown system                          
 POSCAR =  Ni2O3_Cmcm_scale_0_950_disp_0_05_round_1

 Startparameter for this run:
   NWRITE =      1    write-flag & timer
   PREC   = accura    normal or accurate (medium, high low for compatibility)
   ISTART =      0    job   : 0-new  1-cont  2-samecut
   ICHARG =      2    charge: 1-file 2-atom 10-const
   ISPIN  =      2    spin polarized calculation?
   LNONCOLLINEAR =      F non collinear calculations
   LSORBIT =      F    spin-orbit coupling
   INIWAV =      1    electr: 0-lowe 1-rand  2-diag
   LASPH  =      F    aspherical Exc in radial PAW
   METAGGA=      F    non-selfconsistent MetaGGA calc.

 Electronic Relaxation 1
   ENCUT  =  500.0 eV  36.75 Ry    6.06 a.u.  15.08 16.81 25.25*2*pi/ulx,y,z
   ENINI  =  500.0     initial cutoff
   ENAUG  =  605.4 eV  augmentation charge cutoff
   NELM   =     80;   NELMIN=  2; NELMDL= -5     # of ELM steps 
   EDIFF  = 0.1E-04   stopping-criterion for ELM
   LREAL  =      T    real-space projection
   NLSPLINE    = F    spline interpolate recip. space projectors
   LCOMPAT=      F    compatible to vasp.4.4
   GGA_COMPAT  = T    GGA compatible to vasp.4.4-vasp.4.6
   LMAXPAW     = -100 max onsite density
   LMAXMIX     =    2 max onsite mixed and CHGCAR
   VOSKOWN=      1    Vosko Wilk Nusair interpolation
   ROPT   =   -0.00025  -0.00025
 Ionic relaxation
   EDIFFG = 0.1E-03   stopping-criterion for IOM
   NSW    =      0    number of steps for IOM
   NBLOCK =      1;   KBLOCK =      1    inner block; outer block 
   IBRION =     -1    ionic relax: 0-MD 1-quasi-New 2-CG
   NFREE  =      0    steps in history (QN), initial steepest desc. (CG)
   ISIF   =      2    stress and relaxation
   IWAVPR =     10    prediction:  0-non 1-charg 2-wave 3-comb
   ISYM   =      2    0-nonsym 1-usesym 2-fastsym
   LCORR  =      T    Harris-Foulkes like correction to forces

   POTIM  = 0.5000    time-step for ionic-motion
   TEIN   =    0.0    initial temperature
   TEBEG  =    0.0;   TEEND  =   0.0 temperature during run
   SMASS  =  -3.00    Nose mass-parameter (am)
   estimated Nose-frequenzy (Omega)   =  0.10E-29 period in steps =****** mass=  -0.156E-26a.u.
   SCALEE = 1.0000    scale energy and forces
   NPACO  =    256;   APACO  = 16.0  distance and # of slots for P.C.
   PSTRESS=    0.0 pullay stress

  Mass of Ions in am
   POMASS =  58.69 16.00
  Ionic Valenz
   ZVAL   =  10.00  6.00
  Atomic Wigner-Seitz radii
   RWIGS  =   1.15  0.73
  virtual crystal weights 
   VCA    =   1.00  1.00
   NELECT =     912.0000    total number of electrons
   NUPDOWN=      -1.0000    fix difference up-down

 DOS related values:
   EMIN   =  10.00;   EMAX   =-10.00  energy-range for DOS
   EFERMI =   0.00
   ISMEAR =     0;   SIGMA  =   0.05  broadening in eV -4-tet -1-fermi 0-gaus

 Electronic relaxation 2 (details)
   IALGO  =     38    algorithm
   LDIAG  =      T    sub-space diagonalisation (order eigenvalues)
   LSUBROT=      F    optimize rotation matrix (better conditioning)
   TURBO    =      0    0=normal 1=particle mesh
   IRESTART =      0    0=no restart 2=restart with 2 vectors
   NREBOOT  =      0    no. of reboots
   NMIN     =      0    reboot dimension
   EREF     =   0.00    reference energy to select bands
   IMIX   =      4    mixing-type and parameters
     AMIX     =   0.40;   BMIX     =  1.00
     AMIX_MAG =   1.60;   BMIX_MAG =  1.00
     AMIN     =   0.10
     WC   =   100.;   INIMIX=   1;  MIXPRE=   1;  MAXMIX= -45

 Intra band minimization:
   WEIMIN = 0.0000     energy-eigenvalue tresh-hold
   EBREAK =  0.41E-08  absolut break condition
   DEPER  =   0.30     relativ break condition  

   TIME   =   0.40     timestep for ELM

  volume/ion in A,a.u.               =       8.80        59.41
  Fermi-wavevector in a.u.,A,eV,Ry     =   1.558828  2.945758 33.061413  2.429945
  Thomas-Fermi vector in A             =   2.662276
 
 Write flags
   LWAVE        =      F    write WAVECAR
   LDOWNSAMPLE  =      F    k-point downsampling of WAVECAR
   LCHARG       =      T    write CHGCAR
   LVTOT        =      F    write LOCPOT, total local potential
   LVHAR        =      F    write LOCPOT, Hartree potential only
   LELF         =      F    write electronic localiz. function (ELF)
   LORBIT       =      0    0 simple, 1 ext, 2 COOP (PROOUT), +10 PAW based schemes


 Dipole corrections
   LMONO  =      F    monopole corrections only (constant potential shift)
   LDIPOL =      F    correct potential (dipole corrections)
   IDIPOL =      0    1-x, 2-y, 3-z, 4-all directions 
   EPSILON=  1.0000000 bulk dielectric constant

 Exchange correlation treatment:
   GGA     =    PS    GGA type
   LEXCH   =    14    internal setting for exchange type
   VOSKOWN=      1    Vosko Wilk Nusair interpolation
   LHFCALC =     F    Hartree Fock is set to
   LHFONE  =     F    Hartree Fock one center treatment
   AEXX    =    0.0000 exact exchange contribution

 Linear response parameters
   LEPSILON=     F    determine dielectric tensor
   LRPA    =     F    only Hartree local field effects (RPA)
   LNABLA  =     F    use nabla operator in PAW spheres
   LVEL    =     F    velocity operator in full k-point grid
   LINTERFAST=   F  fast interpolation
   KINTER  =     0    interpolate to denser k-point grid
   CSHIFT  =0.1000    complex shift for real part using Kramers Kronig
   OMEGAMAX=  -1.0    maximum frequency
   DEG_THRESHOLD= 0.2000000E-02 threshold for treating states as degnerate
   RTIME   =   -0.100 relaxation time in fs
  (WPLASMAI=    0.000 imaginary part of plasma frequency in eV, 0.658/RTIME)
   DFIELD  = 0.0000000 0.0000000 0.0000000 field for delta impulse in time
 
 Orbital magnetization related:
   ORBITALMAG=     F  switch on orbital magnetization
   LCHIMAG   =     F  perturbation theory with respect to B field
   DQ        =  0.001000  dq finite difference perturbation B field
   LLRAUG    =     F  two centre corrections for induced B field



--------------------------------------------------------------------------------------------------------


 Static calculation
 charge density and potential will be updated during run
 spin polarized calculation
 Variant of blocked Davidson
 Davidson routine will perform the subspace rotation
 perform sub-space diagonalisation
    after iterative eigenvector-optimisation
 modified Broyden-mixing scheme, WC =      100.0
 initial mixing is a Kerker type mixing with AMIX =  0.4000 and BMIX =      1.0000
 Hartree-type preconditioning will be used
 using additional bands          152
 real space projection scheme for non local part
 use partial core corrections
 calculate Harris-corrections to forces 
   (improved forces if not selfconsistent)
 use gradient corrections 
 use of overlap-Matrix (Vanderbilt PP)
 Gauss-broadening in eV      SIGMA  =   0.05


--------------------------------------------------------------------------------------------------------


  energy-cutoff  :      500.00
  volume of cell :     1056.39
      direct lattice vectors                 reciprocal lattice vectors
     8.272856500  0.000000000  0.000000000     0.120877233  0.000000000  0.000000000
     0.000000000  9.221232000  0.000000000     0.000000000  0.108445379  0.000000000
     0.000000000  0.000000000 13.847779500     0.000000000  0.000000000  0.072213744

  length of vectors
     8.272856500  9.221232000 13.847779500     0.120877233  0.108445379  0.072213744


 
 k-points in units of 2pi/SCALE and weight: Automatic mesh                          
   0.00000000  0.00000000  0.00000000       0.042
   0.03021931  0.00000000  0.00000000       0.083
   0.06043862  0.00000000  0.00000000       0.042
   0.00000000  0.03614846  0.00000000       0.083
   0.03021931  0.03614846  0.00000000       0.083
   0.06043862  0.03614846  0.00000000       0.083
  -0.03021931  0.03614846  0.00000000       0.083
   0.00000000  0.00000000  0.03610687       0.042
   0.03021931  0.00000000  0.03610687       0.083
   0.06043862  0.00000000  0.03610687       0.042
   0.00000000  0.03614846  0.03610687       0.083
   0.03021931  0.03614846  0.03610687       0.083
   0.06043862  0.03614846  0.03610687       0.083
  -0.03021931  0.03614846  0.03610687       0.083
 
 k-points in reciprocal lattice and weights: Automatic mesh                          
   0.00000000  0.00000000  0.00000000       0.042
   0.25000000  0.00000000  0.00000000       0.083
   0.50000000  0.00000000  0.00000000       0.042
   0.00000000  0.33333333  0.00000000       0.083
   0.25000000  0.33333333  0.00000000       0.083
   0.50000000  0.33333333  0.00000000       0.083
  -0.25000000  0.33333333  0.00000000       0.083
   0.00000000  0.00000000  0.50000000       0.042
   0.25000000  0.00000000  0.50000000       0.083
   0.50000000  0.00000000  0.50000000       0.042
   0.00000000  0.33333333  0.50000000       0.083
   0.25000000  0.33333333  0.50000000       0.083
   0.50000000  0.33333333  0.50000000       0.083
  -0.25000000  0.33333333  0.50000000       0.083
 
 position of ions in fractional coordinates (direct lattice) 
   0.01066169  0.38465397  0.05274444
   0.18898575  0.15395798  0.99989241
   0.00574220  0.38166351  0.47673257
   0.17792371  0.14461262  0.58077724
   0.18004171  0.42804923  0.67041318
   0.00201668  0.10702761  0.38308029
   0.00189214  0.09429518  0.13327669
   0.17939249  0.43207668  0.90745712
   0.18916019  0.90091404  0.04937575
   0.99886869  0.67845851  0.00872645
   0.17637859  0.91085050  0.47389975
   0.98802834  0.66826090  0.57609084
   0.00743571  0.96022489  0.66741201
   0.17361503  0.61955657  0.37869381
   0.16512964  0.63581973  0.14065454
   0.99735234  0.94691227  0.91294412
   0.35314875  0.37652296  0.05028737
   0.53433228  0.14006545  0.00288077
   0.34824368  0.39251142  0.47953271
   0.52877843  0.13965689  0.57747338
   0.52224022  0.42756207  0.66651469
   0.35496195  0.10205275  0.38306895
   0.35326709  0.09299944  0.13711027
   0.52897141  0.42829322  0.91242974
   0.54071919  0.91392122  0.04591461
   0.35762478  0.66301216  0.00175442
   0.52590335  0.91809021  0.47441619
   0.34587880  0.66961353  0.57313070
   0.35768292  0.94784958  0.66466738
   0.52366967  0.62254164  0.39078799
   0.53205396  0.62571683  0.13807007
   0.35597690  0.94828183  0.90455916
   0.69790531  0.38033010  0.04873074
   0.87538967  0.14215603  0.99736953
   0.70872243  0.38833819  0.47416846
   0.86832661  0.14665693  0.57344733
   0.87804742  0.42565799  0.67130746
   0.70595686  0.09499193  0.37882616
   0.69219083  0.10223596  0.13820214
   0.87412635  0.42415610  0.90994704
   0.86548687  0.90982361  0.05110213
   0.70229231  0.66846166  0.00377273
   0.87960125  0.89376626  0.48416745
   0.70411556  0.66660983  0.57411471
   0.70474200  0.95307572  0.66147836
   0.88966698  0.62464272  0.38750458
   0.87300682  0.63357275  0.14352863
   0.70543766  0.94803762  0.91450991
   0.99024582  0.99884646  0.52308254
   0.00233839  0.99723028  0.99573711
   0.17527178  0.03574358  0.88800859
   0.00182810  0.48945527  0.16355341
   0.99593574  0.49094514  0.35851661
   0.16500869  0.03438310  0.68972824
   0.99014731  0.29753038  0.96790298
   0.17575606  0.23524806  0.08191835
   0.18232849  0.22459918  0.44631589
   0.99586110  0.29029936  0.60567838
   0.17355912  0.34271507  0.78526669
   0.00544447  0.18643021  0.25761100
   0.18443690  0.53659581  0.53057199
   0.17435466  0.52050988  0.00380730
   0.99756325  0.56636527  0.88852044
   0.18134478  0.02114284  0.16741437
   0.17550557  0.02889400  0.36191087
   0.00242957  0.56994779  0.68631261
   0.16776347  0.82659317  0.96694317
   0.01174698  0.75536777  0.07875381
   0.01162200  0.76563828  0.45160633
   0.18091811  0.81666704  0.61466507
   0.99838022  0.87307745  0.79289391
   0.17450525  0.71355076  0.26648769
   0.35805397  0.00171855  0.52964072
   0.35280003  0.00464597  0.99764935
   0.52006497  0.03711684  0.88486756
   0.34670614  0.49042472  0.16492627
   0.34873419  0.48543938  0.35912873
   0.51287785  0.03681123  0.68539442
   0.34419894  0.29530391  0.96850862
   0.53564156  0.22428452  0.08241687
   0.52607837  0.22496102  0.44675255
   0.34983688  0.29920591  0.61074184
   0.53939009  0.34965754  0.78814068
   0.34942691  0.18986791  0.26552385
   0.53018466  0.51754822  0.52622796
   0.52185523  0.52783362  0.99964561
   0.35637468  0.56145688  0.89060761
   0.52349682  0.01408948  0.16338260
   0.52621292  0.02126639  0.36961029
   0.35061829  0.55455345  0.68992972
   0.52351388  0.82394756  0.96561561
   0.35125603  0.75845915  0.08229096
   0.34726359  0.75632045  0.43972132
   0.52333423  0.81839330  0.60927065
   0.34388588  0.87296218  0.79486980
   0.51380509  0.71253234  0.26560200
   0.70592706  0.00705896  0.52404796
   0.69885063  0.01249246  0.99617261
   0.87636781  0.03958558  0.88812128
   0.70528119  0.49072882  0.16619931
   0.69386143  0.50188557  0.36102598
   0.87307857  0.03703436  0.68951543
   0.69369382  0.28771879  0.97368395
   0.87622503  0.23056977  0.08534403
   0.87037909  0.22733281  0.44347348
   0.70232814  0.29479239  0.60673256
   0.87681701  0.34182869  0.78687542
   0.69684428  0.18539376  0.25994108
   0.87019458  0.52462246  0.52574650
   0.89082880  0.52249472  0.00340582
   0.70627380  0.55329006  0.89056040
   0.87003426  0.00479178  0.16705239
   0.86657711  0.02165561  0.35898288
   0.71178799  0.56553059  0.68954191
   0.87303228  0.81475379  0.96958691
   0.70006346  0.75563306  0.08201844
   0.70525440  0.75950645  0.44210407
   0.86849966  0.82873570  0.60527904
   0.69781552  0.86590029  0.78281894
   0.87430066  0.70762023  0.26539781
 
 position of ions in cartesian coordinates  (Angst):
   0.08820263  3.54698350  0.73039337
   1.56345199  1.41968225 13.84628962
   0.04750440  3.51940777  6.60168751
   1.47193732  1.33350652  8.04247516
   1.48945923  3.94714126  9.28373389
   0.01668370  0.98692642  5.30481139
   0.01565340  0.86951773  1.84558622
   1.48408833  3.98427931 12.56626610
   1.56489511  8.30753737  0.68374450
   8.26349733  6.25622332  0.12084196
   1.45915476  8.39916378  6.56245924
   8.17381667  6.16218880  7.97757892
   0.06151456  8.85445648  9.24217435
   1.43629223  5.71307487  5.24406838
   1.36609382  5.86304124  1.94775306
   8.25095279  8.73169773 12.64224887
   2.92154893  3.47200557  0.69636841
   4.42045428  1.29157601  0.03989227
   2.88096999  3.61943887  6.64046323
   4.37450807  1.28780858  7.99672403
   4.32041840  3.94264904  9.22974846
   2.93654928  0.94105208  5.30465435
   2.92252794  0.85756941  1.89867279
   4.37610457  3.94939115 12.63512585
   4.47329227  8.42747960  0.63581540
   2.95857849  6.11378895  0.02429482
   4.35072295  8.46592282  6.56961079
   2.86140568  6.17466171  7.93658756
   2.95905947  8.74034088  9.20416732
   4.33224403  5.74060089  5.41154592
   4.40160606  5.76988006  1.91196388
   2.94494581  8.74432676 12.52613579
   5.77367048  3.50711209  0.67481254
   7.24197312  1.31085373 13.81135333
   5.86315896  3.58095654  6.56618028
   7.18354144  1.35235758  7.94097218
   7.26396031  3.92509108  9.29611768
   5.84027980  0.87594262  5.24590113
   5.72639541  0.94274151  1.91379276
   7.23152186  3.91124180 12.60074597
   7.16004868  8.38969459  0.70765103
   5.80996350  6.16404005  0.05224393
   7.27681492  8.24162604  6.70464409
   5.82504699  6.14696390  7.95021391
   5.83022944  8.78853233  9.16000647
   7.36008726  5.75997544  5.36607798
   7.22226015  5.84232132  1.98755282
   5.83598453  8.74207484 12.66393158
   8.19216157  9.21059494  7.24353167
   0.01934516  9.19569177 13.78874794
   1.44999828  0.32959984 12.29694715
   0.01512361  4.51338060  2.26485156
   8.23923346  4.52711904  4.96465896
   1.36509321  0.31705454  9.55120458
   8.19134661  2.74359666 13.40330704
   1.45400466  2.16927694  1.13438725
   1.50837743  2.07108115  6.18048403
   8.23861597  2.67691775  8.38730065
   1.43582969  3.16025517 10.87419997
   0.04504132  1.71911622  3.56734032
   1.52582001  4.94807445  7.34724393
   1.44241108  4.79974236  0.05272265
   8.25269762  5.22258555 12.30403513
   1.50023934  0.19496303  2.31831728
   1.45193240  0.26643828  5.01166193
   0.02009948  5.25562080  9.50390569
   1.38788311  7.62220739 13.39001581
   0.09718108  6.96542145  1.09056540
   0.09614714  7.06012821  6.25374488
   1.49670956  7.53067624  8.51174636
   8.25945629  8.05084972 10.97982003
   1.44365689  6.57981710  3.69026277
   2.96212911  0.01584715  7.33434790
   2.91866402  0.04284157 13.81522822
   4.30242287  0.34226299 12.25345086
   2.86825014  4.52232012  2.28386262
   2.88502791  4.47634914  4.97313547
   4.24296486  0.33944489  9.49119080
   2.84750844  2.72306586 13.41169381
   4.43128576  2.06817959  1.14129064
   4.35217086  2.07441776  6.18653080
   2.89415031  2.75904711  8.45741833
   4.46229681  3.22427330 10.91399835
   2.89075868  1.75081605  3.67691573
   4.38614161  4.77243221  7.28708876
   4.31723343  4.86727627 13.84287199
   2.94823659  5.17732415 12.33293780
   4.33081407  0.12992236  2.26248622
   4.35328398  0.19610232  5.11828180
   2.90061480  5.11366602  9.55399463
   4.33095520  7.59781161 13.37163205
   2.90589073  6.99392778  1.13954707
   2.87286185  6.97420634  6.08916388
   4.32946899  7.54659449  8.43704562
   2.84491854  8.04978679 11.00718172
   4.25063578  6.57042601  3.67799793
   5.84003327  0.06509231  7.25690060
   5.78149098  0.11519587 13.79477865
   7.25006513  0.36502782 12.29850765
   5.83469008  4.52512430  2.30149140
   5.74021604  4.62800328  4.99940816
   7.22285372  0.34150243  9.54825764
   5.73882943  2.65312171 13.48336064
   7.24888393  2.12613734  1.18182531
   7.20052131  2.09628858  6.14112297
   5.81025992  2.71834902  8.40189871
   7.25378130  3.15208165 10.89647731
   5.76489273  1.70955887  3.59960676
   7.19899489  4.83766542  7.28042160
   7.36969883  4.81804503  0.04716304
   5.84290180  5.10201601 12.33228405
   7.19766858  0.04418612  2.31330466
   7.16906808  0.19969140  4.97111577
   5.88851990  5.21488877  9.54862433
   7.22247077  7.51303372 13.42662574
   5.79152455  6.96786775  1.13577327
   5.83446845  7.00358518  6.12215968
   7.18497306  7.64196416  8.38177068
   5.77292766  7.98466746 10.84030407
   7.23296390  6.52513031  3.67517035
 


--------------------------------------------------------------------------------------------------------


 k-point  1 :   0.0000 0.0000 0.0000  plane waves:   26849
 k-point  2 :   0.2500 0.0000 0.0000  plane waves:   26872
 k-point  3 :   0.5000 0.0000 0.0000  plane waves:   26822
 k-point  4 :   0.0000 0.3333 0.0000  plane waves:   26818
 k-point  5 :   0.2500 0.3333 0.0000  plane waves:   26823
 k-point  6 :   0.5000 0.3333 0.0000  plane waves:   26830
 k-point  7 :  -0.2500 0.3333 0.0000  plane waves:   26823
 k-point  8 :   0.0000 0.0000 0.5000  plane waves:   26830
 k-point  9 :   0.2500 0.0000 0.5000  plane waves:   26788
 k-point 10 :   0.5000 0.0000 0.5000  plane waves:   26848
 k-point 11 :   0.0000 0.3333 0.5000  plane waves:   26802
 k-point 12 :   0.2500 0.3333 0.5000  plane waves:   26838
 k-point 13 :   0.5000 0.3333 0.5000  plane waves:   26836
 k-point 14 :  -0.2500 0.3333 0.5000  plane waves:   26838

 maximum and minimum number of plane-waves per node :     26872    26788

 maximum number of plane-waves:     26872
 maximum index in each direction: 
   IXMAX=   15   IYMAX=   16   IZMAX=   25
   IXMIN=  -15   IYMIN=  -17   IZMIN=  -25

 The following grids will avoid any aliasing or wrap around errors in the Hartre
 e energy
  - symmetry arguments have not been applied
  - exchange correlation energies might require even more grid points
  - we recommend to set PREC=Normal or Accurate and rely on VASP defaults
 WARNING: aliasing errors must be expected set NGX to    64 to avoid them
 NGY is ok and might be reduce to    70
 NGZ is ok and might be reduce to   108

 serial   3D FFT for wavefunctions
 parallel 3D FFT for charge:
    minimum data exchange during FFTs selected (reduces bandwidth)


 total amount of memory used by VASP MPI-rank0   647742. kBytes
=======================================================================

   base      :      30000. kBytes
   nonlr-proj:      66072. kBytes
   fftplans  :       9900. kBytes
   grid      :      55919. kBytes
   one-center:       3732. kBytes
   wavefun   :     482119. kBytes
 
     INWAV:  cpu time    0.0000: real time    0.0000
 Broyden mixing: mesh for mixing (old mesh)
   NGX = 31   NGY = 33   NGZ = 51
  (NGX  =120   NGY  =140   NGZ  =216)
  gives a total of  52173 points

 initial charge density was supplied:
 charge density of overlapping atoms calculated
 number of electron     912.0000000 magnetization     120.0000000
 keeping initial charge density in first step


--------------------------------------------------------------------------------------------------------


 Maximum index for non-local projection operator         5618
 Maximum index for augmentation-charges         1267 (set IRDMAX)


--------------------------------------------------------------------------------------------------------


 First call to EWALD:  gamma=   0.174
 Maximum number of real-space cells 3x 3x 2
 Maximum number of reciprocal cells 2x 3x 4

    FEWALD:  cpu time    0.0058: real time    0.0059


--------------------------------------- Iteration      1(   1)  ---------------------------------------


    POTLOK:  cpu time    0.3000: real time    0.3897
    SETDIJ:  cpu time    0.0441: real time    0.0442
     EDDAV:  cpu time  194.1516: real time  194.6120
    --------------------------------------------
      LOOP:  cpu time  194.4989: real time  195.0492

 eigenvalue-minimisations  : 34048
 total energy-change (2. order) : 0.1272923E+05  (-0.3778217E+05)
 number of electron     912.0000000 magnetization     120.0000000
 augmentation part      912.0000000 magnetization     120.0000000

 Free energy of the ion-electron system (eV)
  ---------------------------------------------------
  alpha Z        PSCENC =      3552.91584438
  Ewald energy   TEWEN  =    -53076.94323234
  -Hartree energ DENC   =    -34370.19883598
  -exchange      EXHF   =         0.00000000
  -V(xc)+E(xc)   XCENC  =      3654.98340435
  PAW double counting   =     71080.72462945   -74396.17323249
  entropy T*S    EENTRO =        -0.01486543
  eigenvalues    EBANDS =     13578.12057121
  atomic energy  EATOM  =     82705.81968683
  Solvation  Ediel_sol  =         0.00000000
  ---------------------------------------------------
  free energy    TOTEN  =     12729.23396997 eV

  energy without entropy =    12729.24883540  energy(sigma->0) =    12729.24140269


--------------------------------------------------------------------------------------------------------




--------------------------------------- Iteration      1(   2)  ---------------------------------------


     EDDAV:  cpu time  199.1541: real time  199.6258
    --------------------------------------------
      LOOP:  cpu time  199.1541: real time  199.6258

 eigenvalue-minimisations  : 34048
 total energy-change (2. order) :-0.1044203E+05  (-0.9473561E+04)
 number of electron     912.0000000 magnetization     120.0000000
 augmentation part      912.0000000 magnetization     120.0000000

 Free energy of the ion-electron system (eV)
  ---------------------------------------------------
  alpha Z        PSCENC =      3552.91584438
  Ewald energy   TEWEN  =    -53076.94323234
  -Hartree energ DENC   =    -34370.19883598
  -exchange      EXHF   =         0.00000000
  -V(xc)+E(xc)   XCENC  =      3654.98340435
  PAW double counting   =     71080.72462945   -74396.17323249
  entropy T*S    EENTRO =        -0.04157900
  eigenvalues    EBANDS =      3136.11937447
  atomic energy  EATOM  =     82705.81968683
  Solvation  Ediel_sol  =         0.00000000
  ---------------------------------------------------
  free energy    TOTEN  =      2287.20605967 eV

  energy without entropy =     2287.24763867  energy(sigma->0) =     2287.22684917


--------------------------------------------------------------------------------------------------------




--------------------------------------- Iteration      1(   3)  ---------------------------------------


     EDDAV:  cpu time  219.8904: real time  220.4110
    --------------------------------------------
      LOOP:  cpu time  219.8920: real time  220.4127

 eigenvalue-minimisations  : 34608
 total energy-change (2. order) :-0.2738841E+04  (-0.2392600E+04)
 number of electron     912.0000000 magnetization     120.0000000
 augmentation part      912.0000000 magnetization     120.0000000

 Free energy of the ion-electron system (eV)
  ---------------------------------------------------
  alpha Z        PSCENC =      3552.91584438
  Ewald energy   TEWEN  =    -53076.94323234
  -Hartree energ DENC   =    -34370.19883598
  -exchange      EXHF   =         0.00000000
  -V(xc)+E(xc)   XCENC  =      3654.98340435
  PAW double counting   =     71080.72462945   -74396.17323249
  entropy T*S    EENTRO =        -0.13968387
  eigenvalues    EBANDS =       397.37688115
  atomic energy  EATOM  =     82705.81968683
  Solvation  Ediel_sol  =         0.00000000
  ---------------------------------------------------
  free energy    TOTEN  =      -451.63453852 eV

  energy without entropy =     -451.49485465  energy(sigma->0) =     -451.56469658


--------------------------------------------------------------------------------------------------------




--------------------------------------- Iteration      1(   4)  ---------------------------------------


     EDDAV:  cpu time  216.5761: real time  217.0889
    --------------------------------------------
      LOOP:  cpu time  216.5746: real time  217.0874

 eigenvalue-minimisations  : 38032
 total energy-change (2. order) :-0.3640637E+03  (-0.3476222E+03)
 number of electron     912.0000000 magnetization     120.0000000
 augmentation part      912.0000000 magnetization     120.0000000

 Free energy of the ion-electron system (eV)
  ---------------------------------------------------
  alpha Z        PSCENC =      3552.91584438
  Ewald energy   TEWEN  =    -53076.94323234
  -Hartree energ DENC   =    -34370.19883598
  -exchange      EXHF   =         0.00000000
  -V(xc)+E(xc)   XCENC  =      3654.98340435
  PAW double counting   =     71080.72462945   -74396.17323249
  entropy T*S    EENTRO =        -0.15928632
  eigenvalues    EBANDS =        33.33282506
  atomic energy  EATOM  =     82705.81968683
  Solvation  Ediel_sol  =         0.00000000
  ---------------------------------------------------
  free energy    TOTEN  =      -815.69819706 eV

  energy without entropy =     -815.53891074  energy(sigma->0) =     -815.61855390


--------------------------------------------------------------------------------------------------------




--------------------------------------- Iteration      1(   5)  ---------------------------------------


     EDDAV:  cpu time  206.9063: real time  207.3963
    CHARGE:  cpu time    7.1240: real time    7.1408
    MIXING:  cpu time    0.0064: real time    0.0064
    --------------------------------------------
      LOOP:  cpu time  214.0333: real time  214.5402

 eigenvalue-minimisations  : 37632
 total energy-change (2. order) :-0.1156473E+02  (-0.1145258E+02)
 number of electron     912.0000038 magnetization     115.5874255
 augmentation part      307.7332525 magnetization      89.7868801

 Broyden mixing:
  rms(total) = 0.27787E+02    rms(broyden)= 0.27785E+02
  rms(prec ) = 0.29104E+02
  weight for this iteration     100.00

 Free energy of the ion-electron system (eV)
  ---------------------------------------------------
  alpha Z        PSCENC =      3552.91584438
  Ewald energy   TEWEN  =    -53076.94323234
  -Hartree energ DENC   =    -34370.19883598
  -exchange      EXHF   =         0.00000000
  -V(xc)+E(xc)   XCENC  =      3654.98340435
  PAW double counting   =     71080.72462945   -74396.17323249
  entropy T*S    EENTRO =        -0.15905983
  eigenvalues    EBANDS =        21.76786485
  atomic energy  EATOM  =     82705.81968683
  Solvation  Ediel_sol  =         0.00000000
  ---------------------------------------------------
  free energy    TOTEN  =      -827.26293079 eV

  energy without entropy =     -827.10387095  energy(sigma->0) =     -827.18340087


--------------------------------------------------------------------------------------------------------




--------------------------------------- Iteration      1(   6)  ---------------------------------------


    POTLOK:  cpu time    0.2773: real time    0.2779
    SETDIJ:  cpu time    0.0452: real time    0.0453
     EDDAV:  cpu time  268.8339: real time  269.4705
    CHARGE:  cpu time    6.9479: real time    6.9643
    MIXING:  cpu time    0.0063: real time    0.0064
    --------------------------------------------
      LOOP:  cpu time  276.1105: real time  276.7644

 eigenvalue-minimisations  : 52464
 total energy-change (2. order) :-0.2842676E+03  (-0.1627320E+03)
 number of electron     912.0000025 magnetization     106.5302268
 augmentation part      365.1321128 magnetization      99.9742782

 Broyden mixing:
  rms(total) = 0.33371E+02    rms(broyden)= 0.33370E+02
  rms(prec ) = 0.39080E+02
  weight for this iteration     100.00

 eigenvalues of (default mixing * dielectric matrix)
  average eigenvalue GAMMA=   0.3451
  0.3451

 Free energy of the ion-electron system (eV)
  ---------------------------------------------------
  alpha Z        PSCENC =      3552.91584438
  Ewald energy   TEWEN  =    -53076.94323234
  -Hartree energ DENC   =    -33389.49551063
  -exchange      EXHF   =         0.00000000
  -V(xc)+E(xc)   XCENC  =      3666.91458605
  PAW double counting   =     84606.78830873   -87598.29524482
  entropy T*S    EENTRO =        -0.06764019
  eigenvalues    EBANDS =     -1579.16731991
  atomic energy  EATOM  =     82705.81968683
  Solvation  Ediel_sol  =         0.00000000
  ---------------------------------------------------
  free energy    TOTEN  =     -1111.53052190 eV

  energy without entropy =    -1111.46288171  energy(sigma->0) =    -1111.49670180


--------------------------------------------------------------------------------------------------------




--------------------------------------- Iteration      1(   7)  ---------------------------------------


    POTLOK:  cpu time    0.2782: real time    0.2788
    SETDIJ:  cpu time    0.0452: real time    0.0453
     EDDAV:  cpu time  220.5660: real time  221.0885
    CHARGE:  cpu time    6.9907: real time    7.0072
    MIXING:  cpu time    0.0060: real time    0.0060
    --------------------------------------------
      LOOP:  cpu time  227.8861: real time  228.4259

 eigenvalue-minimisations  : 41008
 total energy-change (2. order) : 0.2651692E+03  (-0.6511702E+02)
 number of electron     912.0000043 magnetization      99.0136274
 augmentation part      359.4793279 magnetization      89.7729967

 Broyden mixing:
  rms(total) = 0.31418E+02    rms(broyden)= 0.31416E+02
  rms(prec ) = 0.37517E+02
  weight for this iteration     100.00

 eigenvalues of (default mixing * dielectric matrix)
  average eigenvalue GAMMA=   0.2872
  0.3840  0.1903

 Free energy of the ion-electron system (eV)
  ---------------------------------------------------
  alpha Z        PSCENC =      3552.91584438
  Ewald energy   TEWEN  =    -53076.94323234
  -Hartree energ DENC   =    -33480.51516851
  -exchange      EXHF   =         0.00000000
  -V(xc)+E(xc)   XCENC  =      3647.31084431
  PAW double counting   =     88901.04389526   -92125.12412893
  entropy T*S    EENTRO =        -0.06735621
  eigenvalues    EBANDS =      -970.80166624
  atomic energy  EATOM  =     82705.81968683
  Solvation  Ediel_sol  =         0.00000000
  ---------------------------------------------------
  free energy    TOTEN  =      -846.36128146 eV

  energy without entropy =     -846.29392525  energy(sigma->0) =     -846.32760336


--------------------------------------------------------------------------------------------------------




--------------------------------------- Iteration      1(   8)  ---------------------------------------


    POTLOK:  cpu time    0.2777: real time    0.2784
    SETDIJ:  cpu time    0.0456: real time    0.0457
     EDDAV:  cpu time  245.6542: real time  246.2359
    CHARGE:  cpu time    6.9897: real time    7.0062
    MIXING:  cpu time    0.0065: real time    0.0065
    --------------------------------------------
      LOOP:  cpu time  252.9736: real time  253.5727

 eigenvalue-minimisations  : 46880
 total energy-change (2. order) : 0.2029739E+03  (-0.4368843E+02)
 number of electron     912.0000038 magnetization      84.9088341
 augmentation part      337.8579838 magnetization      72.3757786

 Broyden mixing:
  rms(total) = 0.18290E+02    rms(broyden)= 0.18289E+02
  rms(prec ) = 0.21059E+02
  weight for this iteration     100.00

 eigenvalues of (default mixing * dielectric matrix)
  average eigenvalue GAMMA=   0.4923
  0.8691  0.4367  0.1712

 Free energy of the ion-electron system (eV)
  ---------------------------------------------------
  alpha Z        PSCENC =      3552.91584438
  Ewald energy   TEWEN  =    -53076.94323234
  -Hartree energ DENC   =    -33821.64093190
  -exchange      EXHF   =         0.00000000
  -V(xc)+E(xc)   XCENC  =      3647.58469876
  PAW double counting   =     92858.25197742   -96270.69466814
  entropy T*S    EENTRO =        -0.09784203
  eigenvalues    EBANDS =      -238.58287939
  atomic energy  EATOM  =     82705.81968683
  Solvation  Ediel_sol  =         0.00000000
  ---------------------------------------------------
  free energy    TOTEN  =      -643.38734642 eV

  energy without entropy =     -643.28950438  energy(sigma->0) =     -643.33842540


--------------------------------------------------------------------------------------------------------




--------------------------------------- Iteration      1(   9)  ---------------------------------------


    POTLOK:  cpu time    0.2828: real time    0.2834
    SETDIJ:  cpu time    0.0467: real time    0.0468
     EDDAV:  cpu time  219.1045: real time  219.6234
    CHARGE:  cpu time    6.9780: real time    6.9945
    MIXING:  cpu time    0.0067: real time    0.0067
    --------------------------------------------
      LOOP:  cpu time  226.4187: real time  226.9549

 eigenvalue-minimisations  : 40368
 total energy-change (2. order) :-0.3270040E+03  (-0.9175667E+02)
 number of electron     912.0000024 magnetization      67.7479930
 augmentation part      321.2673998 magnetization      59.3180181

 Broyden mixing:
  rms(total) = 0.27976E+02    rms(broyden)= 0.27975E+02
  rms(prec ) = 0.36393E+02
  weight for this iteration     100.00

 eigenvalues of (default mixing * dielectric matrix)
  average eigenvalue GAMMA=   0.5782
  1.4912  0.3912  0.2985  0.1321

 Free energy of the ion-electron system (eV)
  ---------------------------------------------------
  alpha Z        PSCENC =      3552.91584438
  Ewald energy   TEWEN  =    -53076.94323234
  -Hartree energ DENC   =    -33873.19786544
  -exchange      EXHF   =         0.00000000
  -V(xc)+E(xc)   XCENC  =      3648.77196593
  PAW double counting   =     99736.71111317  -103334.20771092
  entropy T*S    EENTRO =        -0.07586264
  eigenvalues    EBANDS =      -330.18528272
  atomic energy  EATOM  =     82705.81968683
  Solvation  Ediel_sol  =         0.00000000
  ---------------------------------------------------
  free energy    TOTEN  =      -970.39134377 eV

  energy without entropy =     -970.31548113  energy(sigma->0) =     -970.35341245


--------------------------------------------------------------------------------------------------------




--------------------------------------- Iteration      1(  10)  ---------------------------------------


    POTLOK:  cpu time    0.2786: real time    0.2793
    SETDIJ:  cpu time    0.0458: real time    0.0459
     EDDAV:  cpu time  246.6353: real time  247.2194
    CHARGE:  cpu time    6.9706: real time    6.9871
    MIXING:  cpu time    0.0082: real time    0.0082
    --------------------------------------------
      LOOP:  cpu time  253.9385: real time  254.5399

 eigenvalue-minimisations  : 46864
 total energy-change (2. order) :-0.1259666E+03  (-0.5698116E+02)
 number of electron     912.0000063 magnetization      59.5839190
 augmentation part      322.7580537 magnetization      53.4936619

 Broyden mixing:
  rms(total) = 0.26440E+02    rms(broyden)= 0.26439E+02
  rms(prec ) = 0.31914E+02
  weight for this iteration     100.00

 eigenvalues of (default mixing * dielectric matrix)
  average eigenvalue GAMMA=   0.5496
  1.7533  0.3827  0.2372  0.2372  0.1373

 Free energy of the ion-electron system (eV)
  ---------------------------------------------------
  alpha Z        PSCENC =      3552.91584438
  Ewald energy   TEWEN  =    -53076.94323234
  -Hartree energ DENC   =    -33591.02609632
  -exchange      EXHF   =         0.00000000
  -V(xc)+E(xc)   XCENC  =      3656.60273361
  PAW double counting   =    107019.55496537  -110689.94408450
  entropy T*S    EENTRO =        -0.06252451
  eigenvalues    EBANDS =      -673.27528021
  atomic energy  EATOM  =     82705.81968683
  Solvation  Ediel_sol  =         0.00000000
  ---------------------------------------------------
  free energy    TOTEN  =     -1096.35798769 eV

  energy without entropy =    -1096.29546319  energy(sigma->0) =    -1096.32672544


--------------------------------------------------------------------------------------------------------




--------------------------------------- Iteration      1(  11)  ---------------------------------------


    POTLOK:  cpu time    0.3306: real time    0.3314
    SETDIJ:  cpu time    0.0461: real time    0.0462
     EDDAV:  cpu time  247.0125: real time  247.5975
    CHARGE:  cpu time    7.6269: real time    7.6450
    MIXING:  cpu time    0.0093: real time    0.0093
    --------------------------------------------
      LOOP:  cpu time  255.0254: real time  255.6293

 eigenvalue-minimisations  : 43584
 total energy-change (2. order) : 0.3541698E+03  (-0.4208396E+02)
 number of electron     912.0000023 magnetization      56.3207558
 augmentation part      336.2196374 magnetization      46.8224390

 Broyden mixing:
  rms(total) = 0.18219E+02    rms(broyden)= 0.18217E+02
  rms(prec ) = 0.22669E+02
  weight for this iteration     100.00

 eigenvalues of (default mixing * dielectric matrix)
  average eigenvalue GAMMA=   0.5228
  1.7674  0.4682  0.3012  0.3012  0.1290  0.1696

 Free energy of the ion-electron system (eV)
  ---------------------------------------------------
  alpha Z        PSCENC =      3552.91584438
  Ewald energy   TEWEN  =    -53076.94323234
  -Hartree energ DENC   =    -33539.44400060
  -exchange      EXHF   =         0.00000000
  -V(xc)+E(xc)   XCENC  =      3660.58013343
  PAW double counting   =    110261.49903286  -113975.87461380
  entropy T*S    EENTRO =        -0.09511462
  eigenvalues    EBANDS =      -330.64593766
  atomic energy  EATOM  =     82705.81968683
  Solvation  Ediel_sol  =         0.00000000
  ---------------------------------------------------
  free energy    TOTEN  =      -742.18820153 eV

  energy without entropy =     -742.09308691  energy(sigma->0) =     -742.14064422


--------------------------------------------------------------------------------------------------------




--------------------------------------- Iteration      1(  12)  ---------------------------------------


    POTLOK:  cpu time    0.3318: real time    0.3326
    SETDIJ:  cpu time    0.0457: real time    0.0458
     EDDAV:  cpu time  232.4097: real time  232.9601
    CHARGE:  cpu time    6.9311: real time    6.9475
    MIXING:  cpu time    0.0072: real time    0.0072
    --------------------------------------------
      LOOP:  cpu time  239.7256: real time  240.2933

 eigenvalue-minimisations  : 40960
 total energy-change (2. order) : 0.5707040E+02  (-0.3100847E+02)
 number of electron     912.0000024 magnetization      50.8061349
 augmentation part      334.9489776 magnetization      42.6265671

 Broyden mixing:
  rms(total) = 0.17718E+02    rms(broyden)= 0.17717E+02
  rms(prec ) = 0.22205E+02
  weight for this iteration     100.00

 eigenvalues of (default mixing * dielectric matrix)
  average eigenvalue GAMMA=   0.5101
  1.8493  0.5356  0.3587  0.3587  0.2195  0.1244  0.1244

 Free energy of the ion-electron system (eV)
  ---------------------------------------------------
  alpha Z        PSCENC =      3552.91584438
  Ewald energy   TEWEN  =    -53076.94323234
  -Hartree energ DENC   =    -33517.10562008
  -exchange      EXHF   =         0.00000000
  -V(xc)+E(xc)   XCENC  =      3654.48681912
  PAW double counting   =    110791.21786431  -114513.74959382
  entropy T*S    EENTRO =        -0.09319945
  eigenvalues    EBANDS =      -281.66636972
  atomic energy  EATOM  =     82705.81968683
  Solvation  Ediel_sol  =         0.00000000
  ---------------------------------------------------
  free energy    TOTEN  =      -685.11780077 eV

  energy without entropy =     -685.02460132  energy(sigma->0) =     -685.07120104


--------------------------------------------------------------------------------------------------------




--------------------------------------- Iteration      1(  13)  ---------------------------------------


    POTLOK:  cpu time    0.2775: real time    0.2781
    SETDIJ:  cpu time    0.0461: real time    0.0462
     EDDAV:  cpu time  246.5687: real time  247.1526
    CHARGE:  cpu time    6.9724: real time    6.9889
    MIXING:  cpu time    0.0079: real time    0.0079
    --------------------------------------------
      LOOP:  cpu time  253.8726: real time  254.4738

 eigenvalue-minimisations  : 44048
 total energy-change (2. order) :-0.4718926E+02  (-0.2600060E+02)
 number of electron     912.0000070 magnetization      48.3102407
 augmentation part      333.0027573 magnetization      38.8411037

 Broyden mixing:
  rms(total) = 0.17906E+02    rms(broyden)= 0.17905E+02
  rms(prec ) = 0.24334E+02
  weight for this iteration     100.00

 eigenvalues of (default mixing * dielectric matrix)
  average eigenvalue GAMMA=   0.4698
  1.8571  0.5156  0.3573  0.3573  0.2671  0.1293  0.1376  0.1376

 Free energy of the ion-electron system (eV)
  ---------------------------------------------------
  alpha Z        PSCENC =      3552.91584438
  Ewald energy   TEWEN  =    -53076.94323234
  -Hartree energ DENC   =    -33540.06620630
  -exchange      EXHF   =         0.00000000
  -V(xc)+E(xc)   XCENC  =      3645.80162566
  PAW double counting   =    111522.76318466  -115255.29316961
  entropy T*S    EENTRO =        -0.08127455
  eigenvalues    EBANDS =      -287.22351849
  atomic energy  EATOM  =     82705.81968683
  Solvation  Ediel_sol  =         0.00000000
  ---------------------------------------------------
  free energy    TOTEN  =      -732.30705977 eV

  energy without entropy =     -732.22578522  energy(sigma->0) =     -732.26642250


--------------------------------------------------------------------------------------------------------




--------------------------------------- Iteration      1(  14)  ---------------------------------------


    POTLOK:  cpu time    0.2775: real time    0.2782
    SETDIJ:  cpu time    0.0459: real time    0.0460
     EDDAV:  cpu time  242.0456: real time  242.6188
    CHARGE:  cpu time    7.7182: real time    7.7364
    MIXING:  cpu time    0.0075: real time    0.0076
    --------------------------------------------
      LOOP:  cpu time  250.0947: real time  250.6869

 eigenvalue-minimisations  : 43872
 total energy-change (2. order) : 0.1481997E+03  (-0.1082251E+02)
 number of electron     912.0000035 magnetization      47.5095533
 augmentation part      339.2501994 magnetization      38.2788892

 Broyden mixing:
  rms(total) = 0.97776E+01    rms(broyden)= 0.97765E+01
  rms(prec ) = 0.11694E+02
  weight for this iteration     100.00

 eigenvalues of (default mixing * dielectric matrix)
  average eigenvalue GAMMA=   0.4410
  1.7220  0.4889  0.4889  0.3404  0.3404  0.1789  0.1468  0.1468  0.1157

 Free energy of the ion-electron system (eV)
  ---------------------------------------------------
  alpha Z        PSCENC =      3552.91584438
  Ewald energy   TEWEN  =    -53076.94323234
  -Hartree energ DENC   =    -33559.99160418
  -exchange      EXHF   =         0.00000000
  -V(xc)+E(xc)   XCENC  =      3641.90080072
  PAW double counting   =    111720.76872757  -115450.93250253
  entropy T*S    EENTRO =        -0.10971969
  eigenvalues    EBANDS =      -117.53531474
  atomic energy  EATOM  =     82705.81968683
  Solvation  Ediel_sol  =         0.00000000
  ---------------------------------------------------
  free energy    TOTEN  =      -584.10731400 eV

  energy without entropy =     -583.99759430  energy(sigma->0) =     -584.05245415


--------------------------------------------------------------------------------------------------------




--------------------------------------- Iteration      1(  15)  ---------------------------------------


    POTLOK:  cpu time    0.2782: real time    0.2789
    SETDIJ:  cpu time    0.0461: real time    0.0462
     EDDAV:  cpu time  249.3168: real time  249.9072
    CHARGE:  cpu time    7.7639: real time    7.7823
    MIXING:  cpu time    0.0105: real time    0.0105
    --------------------------------------------
      LOOP:  cpu time  257.4155: real time  258.0251

 eigenvalue-minimisations  : 44080
 total energy-change (2. order) : 0.5633210E+01  (-0.7727076E+01)
 number of electron     912.0000034 magnetization      46.5496774
 augmentation part      339.4264113 magnetization      37.1009324

 Broyden mixing:
  rms(total) = 0.93938E+01    rms(broyden)= 0.93929E+01
  rms(prec ) = 0.11449E+02
  weight for this iteration     100.00

 eigenvalues of (default mixing * dielectric matrix)
  average eigenvalue GAMMA=   0.4175
  1.5404  0.5594  0.5594  0.3775  0.3775  0.2327  0.1577  0.1248  0.1226  0.1226

 Free energy of the ion-electron system (eV)
  ---------------------------------------------------
  alpha Z        PSCENC =      3552.91584438
  Ewald energy   TEWEN  =    -53076.94323234
  -Hartree energ DENC   =    -33562.08879683
  -exchange      EXHF   =         0.00000000
  -V(xc)+E(xc)   XCENC  =      3638.60303555
  PAW double counting   =    111262.89746080  -114978.16705660
  entropy T*S    EENTRO =        -0.09724689
  eigenvalues    EBANDS =      -121.41379846
  atomic energy  EATOM  =     82705.81968683
  Solvation  Ediel_sol  =         0.00000000
  ---------------------------------------------------
  free energy    TOTEN  =      -578.47410356 eV

  energy without entropy =     -578.37685668  energy(sigma->0) =     -578.42548012


--------------------------------------------------------------------------------------------------------




--------------------------------------- Iteration      1(  16)  ---------------------------------------


    POTLOK:  cpu time    0.3559: real time    0.3567
    SETDIJ:  cpu time    0.0677: real time    0.0679
     EDDAV:  cpu time  241.7794: real time  242.3886
    CHARGE:  cpu time    7.4137: real time    7.4314
    MIXING:  cpu time    0.0087: real time    0.0087
    --------------------------------------------
      LOOP:  cpu time  249.6254: real time  250.2533

 eigenvalue-minimisations  : 42592
 total energy-change (2. order) : 0.8544569E+01  (-0.5949308E+01)
 number of electron     912.0000034 magnetization      46.0040972
 augmentation part      341.6023538 magnetization      35.9754485

 Broyden mixing:
  rms(total) = 0.60767E+01    rms(broyden)= 0.60758E+01
  rms(prec ) = 0.70675E+01
  weight for this iteration     100.00

 eigenvalues of (default mixing * dielectric matrix)
  average eigenvalue GAMMA=   0.3918
  1.3519  0.6146  0.6146  0.3941  0.3941  0.2219  0.2219  0.1291  0.1291  0.1250
  0.1129

 Free energy of the ion-electron system (eV)
  ---------------------------------------------------
  alpha Z        PSCENC =      3552.91584438
  Ewald energy   TEWEN  =    -53076.94323234
  -Hartree energ DENC   =    -33563.49680072
  -exchange      EXHF   =         0.00000000
  -V(xc)+E(xc)   XCENC  =      3635.08213307
  PAW double counting   =    110661.20188990  -114357.88626121
  entropy T*S    EENTRO =        -0.10622406
  eigenvalues    EBANDS =      -126.51657078
  atomic energy  EATOM  =     82705.81968683
  Solvation  Ediel_sol  =         0.00000000
  ---------------------------------------------------
  free energy    TOTEN  =      -569.92953493 eV

  energy without entropy =     -569.82331087  energy(sigma->0) =     -569.87642290


--------------------------------------------------------------------------------------------------------




--------------------------------------- Iteration      1(  17)  ---------------------------------------


    POTLOK:  cpu time    0.2820: real time    0.2827
    SETDIJ:  cpu time    0.0461: real time    0.0463
     EDDAV:  cpu time  235.7675: real time  236.3258
    CHARGE:  cpu time    7.1075: real time    7.1244
    MIXING:  cpu time    0.0092: real time    0.0092
    --------------------------------------------
      LOOP:  cpu time  243.2123: real time  243.7883

 eigenvalue-minimisations  : 41952
 total energy-change (2. order) : 0.5650791E+01  (-0.2208779E+01)
 number of electron     912.0000040 magnetization      45.3772583
 augmentation part      340.2164021 magnetization      34.8111641

 Broyden mixing:
  rms(total) = 0.44203E+01    rms(broyden)= 0.44197E+01
  rms(prec ) = 0.48748E+01
  weight for this iteration     100.00

 eigenvalues of (default mixing * dielectric matrix)
  average eigenvalue GAMMA=   0.3826
  0.9757  0.9757  0.5278  0.4543  0.4543  0.2729  0.2729  0.1418  0.1418  0.1244
  0.1251  0.1251

 Free energy of the ion-electron system (eV)
  ---------------------------------------------------
  alpha Z        PSCENC =      3552.91584438
  Ewald energy   TEWEN  =    -53076.94323234
  -Hartree energ DENC   =    -33589.10305464
  -exchange      EXHF   =         0.00000000
  -V(xc)+E(xc)   XCENC  =      3632.64982271
  PAW double counting   =    110259.32314272  -113947.75300861
  entropy T*S    EENTRO =        -0.10769197
  eigenvalues    EBANDS =      -101.08025290
  atomic energy  EATOM  =     82705.81968683
  Solvation  Ediel_sol  =         0.00000000
  ---------------------------------------------------
  free energy    TOTEN  =      -564.27874383 eV

  energy without entropy =     -564.17105187  energy(sigma->0) =     -564.22489785


--------------------------------------------------------------------------------------------------------




--------------------------------------- Iteration      1(  18)  ---------------------------------------


    POTLOK:  cpu time    0.2778: real time    0.2784
    SETDIJ:  cpu time    0.0457: real time    0.0458
     EDDAV:  cpu time  235.0852: real time  235.6421
    CHARGE:  cpu time    7.7212: real time    7.7395
    MIXING:  cpu time    0.0092: real time    0.0092
    --------------------------------------------
      LOOP:  cpu time  243.1390: real time  243.7150

 eigenvalue-minimisations  : 42288
 total energy-change (2. order) :-0.5912728E+01  (-0.1228732E+01)
 number of electron     912.0000035 magnetization      43.9760642
 augmentation part      338.6649990 magnetization      34.1630803

 Broyden mixing:
  rms(total) = 0.47889E+01    rms(broyden)= 0.47886E+01
  rms(prec ) = 0.56872E+01
  weight for this iteration     100.00

 eigenvalues of (default mixing * dielectric matrix)
  average eigenvalue GAMMA=   0.3773
  0.8614  0.7774  0.7774  0.5428  0.5428  0.3005  0.3005  0.1618  0.1618  0.1227
  0.1227  0.1267  0.1067

 Free energy of the ion-electron system (eV)
  ---------------------------------------------------
  alpha Z        PSCENC =      3552.91584438
  Ewald energy   TEWEN  =    -53076.94323234
  -Hartree energ DENC   =    -33599.78401357
  -exchange      EXHF   =         0.00000000
  -V(xc)+E(xc)   XCENC  =      3630.20490624
  PAW double counting   =    109886.58360840  -113562.20215566
  entropy T*S    EENTRO =        -0.09723388
  eigenvalues    EBANDS =      -106.68888211
  atomic energy  EATOM  =     82705.81968683
  Solvation  Ediel_sol  =         0.00000000
  ---------------------------------------------------
  free energy    TOTEN  =      -570.19147171 eV

  energy without entropy =     -570.09423783  energy(sigma->0) =     -570.14285477


--------------------------------------------------------------------------------------------------------




--------------------------------------- Iteration      1(  19)  ---------------------------------------


    POTLOK:  cpu time    0.2767: real time    0.2773
    SETDIJ:  cpu time    0.0455: real time    0.0456
     EDDAV:  cpu time  232.9213: real time  233.4730
    CHARGE:  cpu time    8.0729: real time    8.0920
    MIXING:  cpu time    0.0112: real time    0.0112
    --------------------------------------------
      LOOP:  cpu time  241.3275: real time  241.8991

 eigenvalue-minimisations  : 41952
 total energy-change (2. order) :-0.1513718E+01  (-0.1164137E+01)
 number of electron     912.0000037 magnetization      41.8283724
 augmentation part      338.8058687 magnetization      31.3566913

 Broyden mixing:
  rms(total) = 0.39126E+01    rms(broyden)= 0.39123E+01
  rms(prec ) = 0.44548E+01
  weight for this iteration     100.00

 eigenvalues of (default mixing * dielectric matrix)
  average eigenvalue GAMMA=   0.4076
  1.1881  0.9120  0.9120  0.5159  0.5159  0.3322  0.3322  0.2197  0.1716  0.1273
  0.1273  0.1216  0.1216  0.1090

 Free energy of the ion-electron system (eV)
  ---------------------------------------------------
  alpha Z        PSCENC =      3552.91584438
  Ewald energy   TEWEN  =    -53076.94323234
  -Hartree energ DENC   =    -33601.43953941
  -exchange      EXHF   =         0.00000000
  -V(xc)+E(xc)   XCENC  =      3628.31419981
  PAW double counting   =    109781.30156395  -113443.25554123
  entropy T*S    EENTRO =        -0.10964209
  eigenvalues    EBANDS =      -118.30852985
  atomic energy  EATOM  =     82705.81968683
  Solvation  Ediel_sol  =         0.00000000
  ---------------------------------------------------
  free energy    TOTEN  =      -571.70518996 eV

  energy without entropy =     -571.59554786  energy(sigma->0) =     -571.65036891


--------------------------------------------------------------------------------------------------------




--------------------------------------- Iteration      1(  20)  ---------------------------------------


    POTLOK:  cpu time    0.3525: real time    0.3533
    SETDIJ:  cpu time    0.0654: real time    0.0655
     EDDAV:  cpu time  230.3706: real time  230.9162
    CHARGE:  cpu time    7.0066: real time    7.0232
    MIXING:  cpu time    0.0103: real time    0.0104
    --------------------------------------------
      LOOP:  cpu time  237.8054: real time  238.3686

 eigenvalue-minimisations  : 41056
 total energy-change (2. order) :-0.2261622E+01  (-0.7563285E+00)
[...]
      7.18354      1.35236      7.94097        -3.438046      0.916336      0.414691
      7.26396      3.92509      9.29612        -4.360459     -0.104110      1.134457
      5.84028      0.87594      5.24590        -6.136471      7.058437     -0.126316
      5.72640      0.94274      1.91379         2.213483      4.151354      4.719410
      7.23152      3.91124     12.60075        -5.660833     -2.517077    -12.358330
      7.16005      8.38969      0.70765        -6.998591      5.880419     25.482676
      5.80996      6.16404      0.05224        -0.407208    -18.523459    -26.529619
      7.27681      8.24163      6.70464       -16.571867     -9.815940     -8.814807
      5.82505      6.14696      7.95021        -1.635965     -0.168851      0.253487
      5.83023      8.78853      9.16001        -4.495780     -4.333360      2.121402
      7.36009      5.75998      5.36608        -7.484637      4.346453     -1.356582
      7.22226      5.84232      1.98755        -4.335451     -0.367012      5.377324
      5.83598      8.74207     12.66393        -1.785523    -23.007075    -46.665163
      8.19216      9.21059      7.24353        12.941293     12.539322      5.493683
      0.01935      9.19569     13.78875        10.613616     21.424708     51.070025
      1.45000      0.32960     12.29695         0.470429      5.377957     -2.586822
      0.01512      4.51338      2.26485         2.458022     -0.718711      0.415864
      8.23923      4.52712      4.96466         5.121855     -5.029347     -0.578897
      1.36509      0.31705      9.55120         9.143196      7.591008      2.240485
      8.19135      2.74360     13.40331         2.776078    -10.131343    -18.798816
      1.45400      2.16928      1.13439        -2.575312     15.110564     23.480426
      1.50838      2.07108      6.18048         0.076998      1.900846      1.699864
      8.23862      2.67692      8.38730         3.600714      1.188237     -0.216735
      1.43583      3.16026     10.87420         0.003205      0.183632      0.946574
      0.04504      1.71912      3.56734         0.097677      0.564991      0.036354
      1.52582      4.94807      7.34724        -0.196199     -0.581046     -0.296537
      1.44241      4.79974      0.05272         0.587336      2.744765      8.851806
      8.25270      5.22259     12.30404         3.581899      2.349603     -4.516297
      1.50024      0.19496      2.31832        -1.152323     -5.848931      1.074107
      1.45193      0.26644      5.01166         1.001568     -6.407889     -1.442488
      0.02010      5.25562      9.50391         2.481490      0.526934      0.654203
      1.38788      7.62221     13.39002        -2.155602    -17.592161    -27.924264
      0.09718      6.96542      1.09057         7.975151     36.916398     55.263249
      0.09615      7.06013      6.25374         3.923589     -3.288648     -1.087793
      1.49671      7.53068      8.51175         0.260268     -0.794266     -1.422021
      8.25946      8.05085     10.97982         0.065247     -1.683452     -0.954691
      1.44366      6.57982      3.69026        -0.077857     -0.254919     -0.597735
      2.96213      0.01585      7.33435        -1.605584      2.626768      0.484640
      2.91866      0.04284     13.81523         0.033138      8.573889     22.344103
      4.30242      0.34226     12.25345         3.561741      5.549716     -2.919934
      2.86825      4.52232      2.28386         0.391095      0.791445     -1.635313
      2.88503      4.47635      4.97314         0.269955      0.888392      1.755722
      4.24296      0.33944      9.49119         5.727030      6.480556      2.377078
      2.84751      2.72307     13.41169        -0.802507    -13.975450    -25.109154
      4.43129      2.06818      1.14129        -0.928678     17.600727     25.913629
      4.35217      2.07442      6.18653        -0.064878      2.085937      1.500924
      2.89415      2.75905      8.45742         0.189368      0.182372     -0.714401
      4.46230      3.22427     10.91400        -0.178847      0.024978      0.196970
      2.89076      1.75082      3.67692         0.386952     -0.284018     -0.769302
      4.38614      4.77243      7.28709        -0.158234      0.334416      0.247861
      4.31723      4.86728     13.84287         0.414918      4.831469     11.448064
      2.94824      5.17732     12.33294        -0.557073     -0.246395     -2.101740
      4.33081      0.12992      2.26249         0.986028     -5.861545      2.013632
      4.35328      0.19610      5.11828         0.263752     -5.280361     -2.819930
      2.90061      5.11367      9.55399         0.247742      0.291075     -1.015660
      4.33096      7.59781     13.37163        -1.930825    -15.779996    -19.651634
      2.90589      6.99393      1.13955        -0.646302     10.539056     17.103349
      2.87286      6.97421      6.08916         0.371194     -0.709939      0.633422
      4.32947      7.54659      8.43705        -0.012319     -1.796853     -1.534924
      2.84492      8.04979     11.00718         0.198062     -1.325823     -2.691820
      4.25064      6.57043      3.67800         0.298692     -1.010420     -0.023630
      5.84003      0.06509      7.25690         0.309481      1.950400      0.363214
      5.78149      0.11520     13.79478         0.532100     20.405910     37.901517
      7.25007      0.36503     12.29851       -20.127008     21.440944    -11.730996
      5.83469      4.52512      2.30149        -0.462349      0.562174     -1.732921
      5.74022      4.62800      4.99941         0.299905     -0.164738      1.309700
      7.22285      0.34150      9.54826       -19.798804     18.631523      6.919084
      5.73883      2.65312     13.48336        -0.103589    -17.401706    -25.376261
      7.24888      2.12614      1.18183        -2.959917      8.477703     15.695602
      7.20052      2.09629      6.14112        -2.194049      2.406853      1.534451
      5.81026      2.71835      8.40190        -0.695554      0.420117     -0.463435
      7.25378      3.15208     10.89648        -0.157247     -0.580322      0.787139
      5.76489      1.70956      3.59961         0.148353      0.076092      0.065720
      7.19899      4.83767      7.28042        -1.967233     -0.750064     -0.512076
      7.36970      4.81805      0.04716        -5.345721     -0.506946      8.356653
      5.84290      5.10202     12.33228        -0.175015      0.365206     -1.283984
      7.19767      0.04419      2.31330       -11.749393    -11.452981      5.705374
      7.16907      0.19969      4.97112        -7.257063    -17.475362     -6.264079
      5.88852      5.21489      9.54862        -1.020753     -0.832649     -0.995447
      7.22247      7.51303     13.42663        -4.102128    -13.333375    -18.943730
      5.79152      6.96787      1.13577        -0.717145     16.932480     25.904111
      5.83447      7.00359      6.12216        -0.519292     -0.587624      0.735300
      7.18497      7.64196      8.38177        -1.945231     -2.566064      1.776693
      5.77293      7.98467     10.84030         0.488946      0.072284      0.529746
      7.23296      6.52513      3.67517         0.005302      0.178349      0.490405
 -----------------------------------------------------------------------------------
    total drift:                               -0.010224     -0.042604      0.007546


--------------------------------------------------------------------------------------------------------



  FREE ENERGIE OF THE ION-ELECTRON SYSTEM (eV)
  ---------------------------------------------------
  free  energy   TOTEN  =      -586.5486725624 eV

  energy  without entropy=     -586.4490477311  energy(sigma->0) =     -586.49886015
 


--------------------------------------------------------------------------------------------------------


    POTLOK:  cpu time    0.3270: real time    0.3278


--------------------------------------------------------------------------------------------------------


     LOOP+:  cpu time14068.5343: real time14102.9056
    4ORBIT:  cpu time    0.0000: real time    0.0000

volume of typ            1:    28.9 %

volume of typ            2:    11.1 %
 
total charge     
 
# of ion       s       p       d       tot
------------------------------------------
    1        0.378   0.600   8.141   9.119
    2        0.393   0.569   8.243   9.205
    3        0.241   0.295   7.965   8.501
    4        0.226   0.261   7.998   8.485
    5        0.257   0.299   7.876   8.432
    6        0.414   0.619   8.076   9.109
    7        0.398   0.591   8.131   9.119
    8        0.299   0.418   7.989   8.707
    9        0.402   0.595   8.261   9.258
   10        0.509   0.831   8.401   9.741
   11        0.246   0.308   7.977   8.531
   12        0.274   0.359   7.970   8.604
   13        0.463   0.726   8.142   9.331
   14        0.251   0.292   7.883   8.426
   15        0.245   0.295   7.959   8.498
   16        0.609   1.058   8.435  10.102
   17        0.358   0.536   8.187   9.081
   18        0.416   0.625   8.274   9.315
   19        0.225   0.254   7.900   8.380
   20        0.237   0.292   7.970   8.499
   21        0.244   0.283   7.839   8.367
   22        0.329   0.445   7.945   8.718
   23        0.325   0.434   8.032   8.792
   24        0.317   0.461   8.004   8.782
   25        0.400   0.605   8.242   9.248
   26        0.369   0.540   8.121   9.030
   27        0.274   0.360   7.977   8.611
   28        0.228   0.263   7.894   8.385
   29        0.318   0.441   7.945   8.704
   30        0.242   0.280   7.843   8.365
   31        0.236   0.266   7.920   8.422
   32        0.459   0.757   8.117   9.333
   33        0.381   0.538   8.216   9.134
   34        0.402   0.640   8.246   9.289
   35        0.225   0.259   7.931   8.415
   36        0.276   0.373   8.007   8.656
   37        0.303   0.395   7.885   8.584
   38        0.351   0.490   8.013   8.854
   39        0.309   0.416   8.044   8.769
   40        0.357   0.556   8.022   8.935
   41        0.429   0.680   8.304   9.413
   42        0.385   0.565   8.227   9.176
   43        0.389   0.598   8.129   9.116
   44        0.229   0.264   7.944   8.437
   45        0.302   0.412   7.961   8.674
   46        0.314   0.414   7.937   8.664
   47        0.295   0.395   7.989   8.679
   48        0.459   0.720   8.280   9.459
   49        1.294   2.932   0.031   4.257
   50        1.306   3.172   0.074   4.553
   51        1.284   2.834   0.014   4.132
   52        1.281   2.764   0.011   4.057
   53        1.289   2.767   0.016   4.072
   54        1.285   2.846   0.022   4.153
   55        1.285   2.980   0.034   4.299
   56        1.296   2.930   0.034   4.260
   57        1.283   2.740   0.006   4.029
   58        1.267   2.813   0.012   4.092
   59        1.282   2.696   0.006   3.984
   60        1.304   2.643   0.005   3.952
   61        1.283   2.734   0.006   4.024
   62        1.293   2.854   0.019   4.165
   63        1.300   2.744   0.012   4.056
   64        1.280   2.830   0.017   4.127
   65        1.283   2.826   0.018   4.126
   66        1.288   2.745   0.012   4.045
   67        1.304   2.965   0.035   4.304
   68        1.315   3.059   0.064   4.438
   69        1.264   2.854   0.014   4.132
   70        1.282   2.733   0.005   4.020
   71        1.290   2.703   0.005   3.998
   72        1.289   2.676   0.006   3.971
   73        1.281   2.809   0.013   4.104
   74        1.297   2.996   0.039   4.332
   75        1.286   2.840   0.016   4.142
   76        1.282   2.694   0.005   3.982
   77        1.290   2.677   0.007   3.974
   78        1.280   2.835   0.020   4.136
   79        1.293   2.929   0.035   4.256
   80        1.303   2.937   0.037   4.277
   81        1.287   2.718   0.005   4.011
   82        1.278   2.729   0.006   4.013
   83        1.280   2.686   0.005   3.971
   84        1.299   2.643   0.005   3.947
   85        1.286   2.725   0.006   4.018
   86        1.294   2.869   0.024   4.187
   87        1.293   2.733   0.009   4.035
   88        1.278   2.848   0.020   4.146
   89        1.282   2.858   0.022   4.162
   90        1.285   2.705   0.008   3.997
   91        1.301   2.918   0.030   4.249
   92        1.288   2.894   0.027   4.209
   93        1.276   2.729   0.005   4.011
   94        1.283   2.730   0.006   4.019
   95        1.285   2.723   0.007   4.015
   96        1.292   2.636   0.004   3.932
   97        1.279   2.825   0.012   4.117
   98        1.299   3.086   0.063   4.448
   99        1.296   2.999   0.040   4.335
  100        1.285   2.705   0.006   3.997
  101        1.289   2.693   0.007   3.990
  102        1.301   2.931   0.040   4.272
  103        1.302   2.935   0.036   4.273
  104        1.290   2.936   0.029   4.255
  105        1.273   2.819   0.012   4.103
  106        1.275   2.741   0.006   4.021
  107        1.284   2.699   0.006   3.989
  108        1.296   2.664   0.006   3.965
  109        1.284   2.797   0.012   4.093
  110        1.305   2.911   0.028   4.244
  111        1.290   2.740   0.008   4.038
  112        1.286   2.892   0.028   4.206
  113        1.299   2.935   0.039   4.273
  114        1.290   2.686   0.007   3.983
  115        1.292   3.012   0.036   4.340
  116        1.289   2.952   0.037   4.278
  117        1.269   2.755   0.005   4.029
  118        1.283   2.832   0.014   4.129
  119        1.289   2.663   0.004   3.956
  120        1.288   2.682   0.006   3.976
--------------------------------------------------
tot         108.75  225.27  388.12  722.13
 
magnetization (x)
 
# of ion       s       p       d       tot
------------------------------------------
    1        0.001  -0.000   0.018   0.019
    2        0.002   0.001  -0.010  -0.007
    3        0.000   0.000  -0.130  -0.129
    4        0.003   0.001   0.287   0.290
    5       -0.000   0.009   0.425   0.433
    6        0.000   0.001   0.120   0.121
    7        0.001   0.002   0.099   0.101
    8        0.000   0.002   0.438   0.440
    9        0.001   0.000  -0.082  -0.081
   10       -0.002  -0.000  -0.033  -0.035
   11       -0.000   0.000  -0.397  -0.398
   12       -0.000  -0.000   0.005   0.004
   13       -0.002   0.000  -0.008  -0.009
   14       -0.000   0.010   0.604   0.614
   15       -0.002   0.009   0.577   0.584
   16       -0.000  -0.004   0.002  -0.002
   17        0.000   0.000  -0.025  -0.025
   18       -0.000   0.001  -0.011  -0.011
   19       -0.001   0.000  -0.165  -0.166
   20        0.001   0.000   0.160   0.160
   21       -0.001   0.005   0.391   0.396
   22       -0.001  -0.000   0.017   0.016
   23       -0.001  -0.001   0.012   0.010
   24       -0.001   0.000   0.317   0.316
   25        0.000   0.001  -0.032  -0.031
   26       -0.002  -0.001  -0.079  -0.082
   27        0.001   0.000  -0.133  -0.131
   28       -0.000  -0.000   0.025   0.024
   29       -0.000   0.000  -0.021  -0.021
   30       -0.001   0.003   0.388   0.390
   31       -0.002   0.007   0.741   0.747
   32        0.000  -0.001  -0.008  -0.010
   33       -0.000  -0.001  -0.019  -0.021
   34       -0.001  -0.000  -0.058  -0.059
   35       -0.001   0.000  -0.169  -0.170
   36       -0.000  -0.001   0.145   0.144
   37       -0.001   0.010   0.308   0.318
   38       -0.003  -0.000   0.075   0.073
   39       -0.002   0.002   0.098   0.098
   40       -0.001  -0.002   0.059   0.056
   41        0.000   0.001  -0.023  -0.022
   42       -0.002  -0.000  -0.007  -0.008
   43        0.000   0.001  -0.007  -0.005
   44        0.000  -0.000   0.105   0.105
   45       -0.002  -0.000   0.042   0.039
   46       -0.001   0.003   0.196   0.198
   47       -0.001   0.003   0.194   0.195
   48       -0.001  -0.006  -0.016  -0.022
   49        0.000  -0.002  -0.000  -0.002
   50       -0.000  -0.010   0.000  -0.010
   51        0.000  -0.002  -0.000  -0.001
   52        0.003   0.073   0.000   0.076
   53        0.002   0.038   0.000   0.039
   54        0.000   0.006  -0.000   0.006
   55        0.001  -0.004   0.000  -0.002
   56       -0.000   0.001  -0.000   0.000
   57       -0.001  -0.001  -0.000  -0.002
   58        0.005   0.018   0.000   0.023
   59        0.008   0.335  -0.000   0.343
   60        0.010   0.411   0.000   0.421
   61        0.002  -0.012   0.000  -0.010
   62        0.005   0.001   0.000   0.006
   63        0.002   0.056   0.000   0.059
   64        0.001   0.007  -0.000   0.008
   65        0.000  -0.004   0.000  -0.004
   66        0.003   0.049   0.000   0.052
   67       -0.001  -0.017  -0.000  -0.018
   68       -0.000  -0.019  -0.000  -0.019
   69        0.000  -0.009  -0.000  -0.009
   70       -0.001  -0.013  -0.000  -0.014
   71        0.005   0.236  -0.000   0.241
   72        0.012   0.524  -0.000   0.536
   73        0.001   0.001   0.000   0.001
   74        0.000  -0.015   0.000  -0.015
   75       -0.000  -0.005  -0.000  -0.005
   76        0.005   0.121   0.000   0.127
   77        0.003   0.071   0.000   0.074
   78        0.001   0.002  -0.000   0.003
   79        0.002   0.005   0.000   0.006
   80       -0.000   0.003  -0.000   0.003
   81       -0.000  -0.013  -0.000  -0.013
   82        0.002   0.014   0.000   0.016
   83        0.009   0.385  -0.000   0.394
   84        0.004   0.187  -0.000   0.191
   85        0.002  -0.015   0.000  -0.013
   86        0.005   0.007   0.000   0.013
   87        0.005   0.113   0.000   0.117
   88        0.001   0.011  -0.000   0.012
   89        0.000  -0.004  -0.000  -0.004
   90        0.003   0.067   0.000   0.070
   91       -0.001  -0.006  -0.000  -0.006
   92        0.002  -0.030   0.000  -0.028
   93       -0.000  -0.025  -0.000  -0.026
   94       -0.000  -0.004  -0.000  -0.004
   95        0.002   0.086  -0.000   0.088
   96        0.012   0.522  -0.000   0.534
   97       -0.000   0.001   0.000   0.001
   98       -0.001  -0.003   0.000  -0.004
   99       -0.000  -0.002  -0.000  -0.002
  100        0.004   0.093   0.000   0.097
  101        0.002   0.026   0.000   0.028
  102        0.000  -0.010  -0.000  -0.010
  103        0.000  -0.006   0.000  -0.006
  104        0.000  -0.001   0.000  -0.001
  105       -0.000  -0.006  -0.000  -0.006
  106        0.003   0.001   0.000   0.004
  107        0.008   0.341   0.000   0.349
  108        0.006   0.300   0.000   0.306
  109       -0.000  -0.007   0.000  -0.007
  110        0.001  -0.001   0.000   0.000
  111        0.002   0.050   0.000   0.053
  112        0.001   0.020  -0.000   0.021
  113        0.001   0.002   0.000   0.002
  114        0.002   0.060   0.000   0.063
  115       -0.001  -0.004  -0.000  -0.005
  116        0.002  -0.011   0.000  -0.009
  117        0.001  -0.006   0.000  -0.004
  118        0.001   0.000   0.000   0.001
  119        0.007   0.325  -0.000   0.331
  120        0.008   0.357   0.000   0.365
--------------------------------------------------
tot           0.14    4.71    4.42    9.27
 

 total amount of memory used by VASP MPI-rank0   647742. kBytes
=======================================================================

   base      :      30000. kBytes
   nonlr-proj:      66072. kBytes
   fftplans  :       9900. kBytes
   grid      :      55919. kBytes
   one-center:       3732. kBytes
   wavefun   :     482119. kBytes
 
  
  
 General timing and accounting informations for this job:
 ========================================================
  
                  Total CPU time used (sec):    14269.746
                            User time (sec):    14251.486
                          System time (sec):       18.260
                         Elapsed time (sec):    14308.856
  
                   Maximum memory used (kb):      820152.
                   Average memory used (kb):           0.
  
                          Minor page faults:        49181
                          Major page faults:           20
                 Voluntary context switches:         1132
