 vasp.5.4.4.18Apr17-6-g9f103f2a35 (build May 12 2020 04:58:55) complex          
  
 MD_VERSION_INFO: Compiled 2020-05-12T11:58:55-UTC in devlin.sd.materialsdesign.
 com:/home/medea2/data/build/wwolf/vasp-gpu5.4.4/13047/x86_64/src/src/build/std 
 from svn 13047
 
 This VASP executable licensed from Materials Design, Inc.
 
 executed on                        Lin64 date 2023.03.25  15:56:30
 running on   16 total cores
 distrk:  each k-point on   16 cores,    1 groups
 distr:  one band on NCORES_PER_BAND=   1 cores,   16 groups


--------------------------------------------------------------------------------------------------------


 INCAR:
 POTCAR:    PAW_PBE Ni 02Aug2007                  
 POTCAR:    PAW_PBE O 08Apr2002                   

 ----------------------------------------------------------------------------- 
|                                                                             |
|           W    W    AA    RRRRR   N    N  II  N    N   GGGG   !!!           |
|           W    W   A  A   R    R  NN   N  II  NN   N  G    G  !!!           |
|           W    W  A    A  R    R  N N  N  II  N N  N  G       !!!           |
|           W WW W  AAAAAA  RRRRR   N  N N  II  N  N N  G  GGG   !            |
|           WW  WW  A    A  R   R   N   NN  II  N   NN  G    G                |
|           W    W  A    A  R    R  N    N  II  N    N   GGGG   !!!           |
|                                                                             |
|      For optimal performance we recommend to set                            |
|        NCORE= 4 - approx SQRT( number of cores)                             |
|      NCORE specifies how many cores store one orbital (NPAR=cpu/NCORE).     |
|      This setting can  greatly improve the performance of VASP for DFT.     |
|      The default,   NCORE=1            might be grossly inefficient         |
|      on modern multi-core architectures or massively parallel machines.     |
|      Do your own testing !!!!                                               |
|      Unfortunately you need to use the default for GW and RPA calculations. |
|      (for HF NCORE is supported but not extensively tested yet)             |
|                                                                             |
 ----------------------------------------------------------------------------- 

 POTCAR:    PAW_PBE Ni 02Aug2007                  
  local pseudopotential read in
  partial core-charges read in
  partial kinetic energy density read in
  atomic valenz-charges read in
  non local Contribution for L=           2  read in
    real space projection operators read in
  non local Contribution for L=           2  read in
    real space projection operators read in
  non local Contribution for L=           0  read in
    real space projection operators read in
  non local Contribution for L=           0  read in
    real space projection operators read in
  non local Contribution for L=           1  read in
    real space projection operators read in
  non local Contribution for L=           1  read in
    real space projection operators read in
    PAW grid and wavefunctions read in
 
   number of l-projection  operators is LMAX  =           6
   number of lm-projection operators is LMMAX =          18
 
 POTCAR:    PAW_PBE O 08Apr2002                   
  local pseudopotential read in
  partial core-charges read in
  partial kinetic energy density read in
  kinetic energy density of atom read in
  atomic valenz-charges read in
  non local Contribution for L=           0  read in
    real space projection operators read in
  non local Contribution for L=           0  read in
    real space projection operators read in
  non local Contribution for L=           1  read in
    real space projection operators read in
  non local Contribution for L=           1  read in
    real space projection operators read in
    PAW grid and wavefunctions read in
 
   number of l-projection  operators is LMAX  =           4
   number of lm-projection operators is LMMAX =           8
 
 Optimization of the real space projectors (new method)

 maximal supplied QI-value         = 16.25
 optimisation between [QCUT,QGAM] = [ 11.38, 22.75] = [ 36.24,144.96] Ry 
 Optimized for a Real-space Cutoff    1.47 Angstroem

   l    n(q)    QCUT    max X(q) W(low)/X(q) W(high)/X(q)  e(spline) 
   2      9    11.376    60.317    0.17E-03    0.16E-04    0.16E-06
   2      9    11.376    55.921    0.17E-03    0.16E-04    0.17E-06
   0     10    11.376    51.690    0.45E-04    0.60E-04    0.21E-06
   0     10    11.376    30.015    0.37E-04    0.55E-04    0.19E-06
   1     10    11.376    18.849    0.83E-04    0.11E-03    0.92E-07
   1     10    11.376    14.624    0.69E-04    0.92E-04    0.82E-07
 Optimization of the real space projectors (new method)

 maximal supplied QI-value         = 24.76
 optimisation between [QCUT,QGAM] = [ 11.39, 22.77] = [ 36.31,145.25] Ry 
 Optimized for a Real-space Cutoff    1.10 Angstroem

   l    n(q)    QCUT    max X(q) W(low)/X(q) W(high)/X(q)  e(spline) 
   0      7    11.387    20.381    0.22E-03    0.48E-03    0.18E-06
   0      7    11.387    15.268    0.22E-03    0.52E-03    0.19E-06
   1      7    11.387     5.964    0.22E-03    0.73E-03    0.24E-06
   1      7    11.387     5.382    0.19E-03    0.60E-03    0.21E-06

 ----------------------------------------------------------------------------- 
|                                                                             |
|  ADVICE TO THIS USER RUNNING 'VASP/VAMP'   (HEAR YOUR MASTER'S VOICE ...):  |
|                                                                             |
|      You enforced a specific xc-type in the INCAR file,                     |
|      a different type was found on the POTCAR file                          |
|          I HOPE YOU KNOW, WHAT YOU ARE  DOING                               |
|                                                                             |
 ----------------------------------------------------------------------------- 

  PAW_PBE Ni 02Aug2007                  :
 energy of atom  1       EATOM=-1077.6739
 kinetic energy error for atom=    0.0030 (will be added to EATOM!!)
  PAW_PBE O 08Apr2002                   :
 energy of atom  2       EATOM= -432.3788
 kinetic energy error for atom=    0.0224 (will be added to EATOM!!)
 
 
 POSCAR: Ni2O3_Cc_scale_1_025_disp_0_10_round_1  
  positions in direct lattice
  No initial velocities read in
 exchange correlation table for  LEXCH =       14
   RHO(1)=    0.500       N(1)  =     2000
   RHO(2)=  100.500       N(2)  =     4000
 


--------------------------------------------------------------------------------------------------------


 ion  position               nearest neighbor table
   1  0.886  0.451  0.236-  60 1.70  33 1.76  38 1.88  67 2.24   8 2.83  23 2.95
   2  0.729  0.195  0.246-  38 1.75  36 1.78  37 1.84  40 1.94  15 2.90   5 2.94
   3  0.381  0.306  0.980-  35 1.62  40 2.06  39 2.06  54 2.10  20 2.94   8 3.04  14 3.07
   4  0.256  0.033  0.002-  59 1.80  39 1.91  58 2.16  55 2.18   5 3.05
   5  0.424  0.187  0.245-  44 1.75  37 1.78  39 1.84  42 2.00   2 2.94   4 3.05  16 3.06
   6  0.228  0.458  0.238-  34 1.58  67 1.58  68 1.98  42 2.18  23 2.88  21 3.02  28 3.07
   7  0.916  0.042  0.022-  41 2.01  57 2.06  58 2.07  48 2.42
   8  0.714  0.309  0.011-  33 1.44  40 1.82  41 2.09  49 2.27   1 2.83   3 3.04
   9  0.886  0.440  0.716-  45 1.62  72 2.02  50 2.03  79 2.20  16 2.90  31 2.99
  10  0.742  0.193  0.739-  50 1.76  48 1.85  52 1.89  49 2.02
  11  0.410  0.295  0.493-  47 1.72  42 1.79  52 1.83  51 2.05  16 3.09
  12  0.228  0.038  0.472-  43 1.75  51 1.85  71 1.97  70 2.04
  13  0.411  0.208  0.733-  49 1.70  51 1.82  54 1.84  56 1.90
  14  0.235  0.451  0.731-  79 1.73  80 1.79  54 1.85  46 1.91  31 3.05   3 3.07
  15  0.888  0.063  0.487-  53 1.61  36 1.84  69 2.21  70 2.35   2 2.90  16 3.03
  16  0.726  0.288  0.490-  37 1.86  45 1.87  52 1.90  53 2.03   9 2.90  15 3.03   5 3.06  11 3.09

  17  0.906  0.925  0.249-  62 1.85  57 1.94  36 2.16  43 2.19  18 2.98
  18  0.757  0.707  0.273-  62 1.59  61 1.66  60 2.09  64 2.27  32 2.79  17 2.98  31 3.02
  19  0.397  0.779  0.997-  63 1.84  59 1.88  64 1.91  78 2.01  21 3.08
  20  0.248  0.529  0.001-  63 1.95  35 1.99  34 2.03  79 2.18  21 2.90   3 2.94
  21  0.380  0.683  0.224-  63 1.69  68 1.83  61 2.05  66 2.09  20 2.90   6 3.02  19 3.08
  22  0.253  0.928  0.233-  58 1.59  66 1.84  44 2.03  43 2.08  27 3.01
  23  0.913  0.532  0.020-  65 1.50  34 2.00  33 2.12  72 2.34   6 2.88   1 2.95
  24  0.720  0.776  0.997-  57 1.81  64 1.96  65 2.07  73 2.16
  25  0.893  0.942  0.748-  48 1.72  74 1.94  69 2.07  55 2.10
  26  0.709  0.674  0.716-  72 1.79  76 1.83  73 1.96  74 2.08
  27  0.394  0.794  0.483-  71 1.63  66 1.78  76 1.96  75 1.97  22 3.01
  28  0.218  0.541  0.471-  75 1.70  67 1.80  46 1.89  47 1.91   6 3.07
  29  0.393  0.694  0.739-  78 1.64  73 1.91  80 1.91  75 2.14
  30  0.233  0.945  0.733-  70 1.68  55 1.88  56 2.02  78 2.12
  31  0.908  0.541  0.501-  77 1.81  46 1.89  45 2.08  60 2.11  32 2.95   9 2.99  18 3.02  14 3.05

  32  0.745  0.764  0.488-  77 1.64  69 1.93  76 1.98  61 2.06  18 2.79  31 2.95
  33  0.777  0.423  0.068-   8 1.44   1 1.76  23 2.12
  34  0.134  0.461  0.085-   6 1.58  23 2.00  20 2.03
  35  0.442  0.424  0.066-   3 1.62  20 1.99
  36  0.796  0.051  0.311-   2 1.78  15 1.84  17 2.16
  37  0.615  0.261  0.312-   5 1.78   2 1.84  16 1.86
  38  0.884  0.292  0.276-   2 1.75   1 1.88
  39  0.307  0.190  0.066-   5 1.84   4 1.91   3 2.06
  40  0.602  0.220  0.060-   8 1.82   2 1.94   3 2.06
  41  0.925  0.214  0.061-   7 2.01   8 2.09
  42  0.330  0.286  0.322-  11 1.79   5 2.00   6 2.18
  43  0.132  0.019  0.304-  12 1.75  22 2.08  17 2.19
  44  0.440  0.046  0.306-   5 1.75  22 2.03
  45  0.781  0.439  0.559-   9 1.62  16 1.87  31 2.08
  46  0.111  0.475  0.547-  28 1.89  31 1.89  14 1.91
  47  0.400  0.440  0.525-  11 1.72  28 1.91
  48  0.791  0.038  0.789-  25 1.72  10 1.85   7 2.42
  49  0.603  0.264  0.799-  13 1.70  10 2.02   8 2.27
  50  0.919  0.276  0.789-  10 1.76   9 2.03
  51  0.313  0.178  0.560-  13 1.82  12 1.85  11 2.05
  52  0.609  0.222  0.559-  11 1.83  10 1.89  16 1.90
  53  0.929  0.197  0.535-  15 1.61  16 2.03
  54  0.295  0.297  0.781-  13 1.84  14 1.85   3 2.10
  55  0.113  0.021  0.791-  30 1.88  25 2.10   4 2.18
  56  0.427  0.049  0.782-  13 1.90  30 2.02
  57  0.790  0.922  0.061-  24 1.81  17 1.94   7 2.06
  58  0.129  0.950  0.082-  22 1.59   7 2.07   4 2.16
  59  0.427  0.938  0.046-   4 1.80  19 1.88
  60  0.793  0.525  0.298-   1 1.70  18 2.09  31 2.11
  61  0.606  0.752  0.288-  18 1.66  21 2.05  32 2.06
  62  0.917  0.771  0.299-  18 1.59  17 1.85
  63  0.301  0.690  0.063-  21 1.69  19 1.84  20 1.95
  64  0.593  0.692  0.053-  19 1.91  24 1.96  18 2.27
  65  0.909  0.658  0.054-  23 1.50  24 2.07
  66  0.284  0.784  0.310-  27 1.78  22 1.84  21 2.09
  67  0.140  0.513  0.303-   6 1.58  28 1.80   1 2.24
  68  0.439  0.543  0.311-  21 1.83   6 1.98
  69  0.790  0.923  0.551-  32 1.93  25 2.07  15 2.21
  70  0.138  0.962  0.572-  30 1.68  12 2.04  15 2.35
  71  0.413  0.934  0.513-  27 1.63  12 1.97
  72  0.784  0.535  0.794-  26 1.79   9 2.02  23 2.34
  73  0.602  0.757  0.790-  29 1.91  26 1.96  24 2.16
  74  0.920  0.778  0.796-  25 1.94  26 2.08
  75  0.294  0.675  0.535-  28 1.70  27 1.97  29 2.14
  76  0.598  0.707  0.542-  26 1.83  27 1.96  32 1.98
  77  0.919  0.694  0.543-  32 1.64  31 1.81
  78  0.326  0.777  0.810-  29 1.64  19 2.01  30 2.12
  79  0.130  0.517  0.792-  14 1.73  20 2.18   9 2.20
  80  0.419  0.531  0.782-  14 1.79  29 1.91
 
  LATTYP: Found a simple monoclinic cell.
 ALAT       =    16.3463459659
 B/A-ratio  =     0.6987547874
 C/A-ratio  =     1.5833429409
 COS(beta)  =    -0.9717709890
  
  Lattice vectors:
  
 A1 = ( -12.7040962200,   0.0000000000, -10.2863485100)
 A2 = (   0.0000000000, -11.4220875000,   0.0000000000)
 A3 = (  15.7046301900,   0.0000000000,  20.5726970200)


Analysis of symmetry for initial positions (statically):
=====================================================================
 Subroutine PRICEL returns:
 Original cell was already a primitive cell.
 

 Routine SETGRP: Setting up the symmetry group for a 
 simple monoclinic supercell.


 Subroutine GETGRP returns: Found  1 space group operations
 (whereof  1 operations were pure point group operations)
 out of a pool of  4 trial point group operations.


The static configuration has the point symmetry C_1 .


Analysis of symmetry for dynamics (positions and initial velocities):
=====================================================================
 Subroutine PRICEL returns:
 Original cell was already a primitive cell.
 

 Routine SETGRP: Setting up the symmetry group for a 
 simple monoclinic supercell.


 Subroutine GETGRP returns: Found  1 space group operations
 (whereof  1 operations were pure point group operations)
 out of a pool of  4 trial point group operations.


The dynamic configuration has the point symmetry C_1 .


Analysis of structural, dynamic, and magnetic symmetry:
=====================================================================
 Subroutine PRICEL returns:
 Original cell was already a primitive cell.
 

 Routine SETGRP: Setting up the symmetry group for a 
 simple monoclinic supercell.


 Subroutine GETGRP returns: Found  1 space group operations
 (whereof  1 operations were pure point group operations)
 out of a pool of  4 trial point group operations.


The magnetic configuration has the point symmetry C_1 .


 Subroutine INISYM returns: Found  1 space group operations
 (whereof  1 operations are pure point group operations),
 and found     1 'primitive' translations

 
 
 KPOINTS: Automatic mesh                          

Automatic generation of k-mesh.
Space group operators:
 irot       det(A)        alpha          n_x          n_y          n_z        tau_x        tau_y        tau_z
    1     1.000000     0.000000     1.000000     0.000000     0.000000     0.000000     0.000000     0.000000
 
 Subroutine IBZKPT returns following result:
 ===========================================
 
 Found     19 irreducible k-points:
 
 Following reciprocal coordinates:
            Coordinates               Weight
  0.000000  0.000000  0.000000      1.000000
  0.250000  0.000000  0.000000      2.000000
  0.500000  0.000000  0.000000      1.000000
  0.000000  0.333333  0.000000      2.000000
  0.250000  0.333333  0.000000      2.000000
  0.500000  0.333333  0.000000      2.000000
 -0.250000  0.333333 -0.000000      2.000000
  0.000000  0.000000  0.333333      2.000000
  0.250000  0.000000  0.333333      2.000000
  0.500000  0.000000  0.333333      2.000000
 -0.250000  0.000000  0.333333      2.000000
  0.000000  0.333333  0.333333      2.000000
  0.250000  0.333333  0.333333      2.000000
  0.500000  0.333333  0.333333      2.000000
 -0.250000  0.333333  0.333333      2.000000
  0.000000 -0.333333  0.333333      2.000000
  0.250000 -0.333333  0.333333      2.000000
  0.500000 -0.333333  0.333333      2.000000
 -0.250000 -0.333333  0.333333      2.000000
 
 Following cartesian coordinates:
            Coordinates               Weight
  0.000000  0.000000  0.000000      1.000000
  0.025764  0.000000  0.016789      2.000000
  0.051527  0.000000  0.033578      1.000000
  0.000000  0.029183  0.000000      2.000000
  0.025764  0.029183  0.016789      2.000000
  0.051527  0.029183  0.033578      2.000000
 -0.025764  0.029183 -0.016789      2.000000
  0.000000  0.000000  0.032405      2.000000
  0.025764  0.000000  0.049194      2.000000
  0.051527  0.000000  0.065983      2.000000
 -0.025764  0.000000  0.015617      2.000000
  0.000000  0.029183  0.032405      2.000000
  0.025764  0.029183  0.049194      2.000000
  0.051527  0.029183  0.065983      2.000000
 -0.025764  0.029183  0.015617      2.000000
  0.000000 -0.029183  0.032405      2.000000
  0.025764 -0.029183  0.049194      2.000000
  0.051527 -0.029183  0.065983      2.000000
 -0.025764 -0.029183  0.015617      2.000000
 


--------------------------------------------------------------------------------------------------------




 Dimension of arrays:
   k-points           NKPTS =     19   k-points in BZ     NKDIM =     19   number of bands    NBANDS=    416
   number of dos      NEDOS =    301   number of ions     NIONS =     80
   non local maximal  LDIM  =      6   non local SUM 2l+1 LMDIM =     18
   total plane-waves  NPLWV = 544320
   max r-space proj   IRMAX =   6459   max aug-charges    IRDMAX=  15674
   dimension x,y,z NGX =    72 NGY =   84 NGZ =   90
   dimension x,y,z NGXF=   144 NGYF=  168 NGZF=  180
   support grid    NGXF=   144 NGYF=  168 NGZF=  180
   ions per type =              32  48
   NGX,Y,Z   is equivalent  to a cutoff of  12.34, 12.23, 12.19 a.u.
   NGXF,Y,Z  is equivalent  to a cutoff of  24.67, 24.45, 24.37 a.u.

 SYSTEM =  unknown system                          
 POSCAR =  Ni2O3_Cc_scale_1_025_disp_0_10_round_1  

 Startparameter for this run:
   NWRITE =      1    write-flag & timer
   PREC   = accura    normal or accurate (medium, high low for compatibility)
   ISTART =      0    job   : 0-new  1-cont  2-samecut
   ICHARG =      2    charge: 1-file 2-atom 10-const
   ISPIN  =      2    spin polarized calculation?
   LNONCOLLINEAR =      F non collinear calculations
   LSORBIT =      F    spin-orbit coupling
   INIWAV =      1    electr: 0-lowe 1-rand  2-diag
   LASPH  =      F    aspherical Exc in radial PAW
   METAGGA=      F    non-selfconsistent MetaGGA calc.

 Electronic Relaxation 1
   ENCUT  =  500.0 eV  36.75 Ry    6.06 a.u.  17.69 20.83 22.38*2*pi/ulx,y,z
   ENINI  =  500.0     initial cutoff
   ENAUG  =  605.4 eV  augmentation charge cutoff
   NELM   =     80;   NELMIN=  2; NELMDL= -5     # of ELM steps 
   EDIFF  = 0.1E-04   stopping-criterion for ELM
   LREAL  =      T    real-space projection
   NLSPLINE    = F    spline interpolate recip. space projectors
   LCOMPAT=      F    compatible to vasp.4.4
   GGA_COMPAT  = T    GGA compatible to vasp.4.4-vasp.4.6
   LMAXPAW     = -100 max onsite density
   LMAXMIX     =    2 max onsite mixed and CHGCAR
   VOSKOWN=      1    Vosko Wilk Nusair interpolation
   ROPT   =   -0.00025  -0.00025
 Ionic relaxation
   EDIFFG = 0.1E-03   stopping-criterion for IOM
   NSW    =      0    number of steps for IOM
   NBLOCK =      1;   KBLOCK =      1    inner block; outer block 
   IBRION =     -1    ionic relax: 0-MD 1-quasi-New 2-CG
   NFREE  =      0    steps in history (QN), initial steepest desc. (CG)
   ISIF   =      2    stress and relaxation
   IWAVPR =     10    prediction:  0-non 1-charg 2-wave 3-comb
   ISYM   =      2    0-nonsym 1-usesym 2-fastsym
   LCORR  =      T    Harris-Foulkes like correction to forces

   POTIM  = 0.5000    time-step for ionic-motion
   TEIN   =    0.0    initial temperature
   TEBEG  =    0.0;   TEEND  =   0.0 temperature during run
   SMASS  =  -3.00    Nose mass-parameter (am)
   estimated Nose-frequenzy (Omega)   =  0.10E-29 period in steps =****** mass=  -0.215E-26a.u.
   SCALEE = 1.0000    scale energy and forces
   NPACO  =    256;   APACO  = 16.0  distance and # of slots for P.C.
   PSTRESS=    0.0 pullay stress

  Mass of Ions in am
   POMASS =  58.69 16.00
  Ionic Valenz
   ZVAL   =  10.00  6.00
  Atomic Wigner-Seitz radii
   RWIGS  =   1.15  0.73
  virtual crystal weights 
   VCA    =   1.00  1.00
   NELECT =     608.0000    total number of electrons
   NUPDOWN=      -1.0000    fix difference up-down

 DOS related values:
   EMIN   =  10.00;   EMAX   =-10.00  energy-range for DOS
   EFERMI =   0.00
   ISMEAR =     0;   SIGMA  =   0.05  broadening in eV -4-tet -1-fermi 0-gaus

 Electronic relaxation 2 (details)
   IALGO  =     38    algorithm
   LDIAG  =      T    sub-space diagonalisation (order eigenvalues)
   LSUBROT=      F    optimize rotation matrix (better conditioning)
   TURBO    =      0    0=normal 1=particle mesh
   IRESTART =      0    0=no restart 2=restart with 2 vectors
   NREBOOT  =      0    no. of reboots
   NMIN     =      0    reboot dimension
   EREF     =   0.00    reference energy to select bands
   IMIX   =      4    mixing-type and parameters
     AMIX     =   0.40;   BMIX     =  1.00
     AMIX_MAG =   1.60;   BMIX_MAG =  1.00
     AMIN     =   0.10
     WC   =   100.;   INIMIX=   1;  MIXPRE=   1;  MAXMIX= -45

 Intra band minimization:
   WEIMIN = 0.0000     energy-eigenvalue tresh-hold
   EBREAK =  0.60E-08  absolut break condition
   DEPER  =   0.30     relativ break condition  

   TIME   =   0.40     timestep for ELM

  volume/ion in A,a.u.               =      14.25        96.17
  Fermi-wavevector in a.u.,A,eV,Ry     =   1.327588  2.508778 23.980138  1.762490
  Thomas-Fermi vector in A             =   2.456889
 
 Write flags
   LWAVE        =      F    write WAVECAR
   LDOWNSAMPLE  =      F    k-point downsampling of WAVECAR
   LCHARG       =      T    write CHGCAR
   LVTOT        =      F    write LOCPOT, total local potential
   LVHAR        =      F    write LOCPOT, Hartree potential only
   LELF         =      F    write electronic localiz. function (ELF)
   LORBIT       =      0    0 simple, 1 ext, 2 COOP (PROOUT), +10 PAW based schemes


 Dipole corrections
   LMONO  =      F    monopole corrections only (constant potential shift)
   LDIPOL =      F    correct potential (dipole corrections)
   IDIPOL =      0    1-x, 2-y, 3-z, 4-all directions 
   EPSILON=  1.0000000 bulk dielectric constant

 Exchange correlation treatment:
   GGA     =    PS    GGA type
   LEXCH   =    14    internal setting for exchange type
   VOSKOWN=      1    Vosko Wilk Nusair interpolation
   LHFCALC =     F    Hartree Fock is set to
   LHFONE  =     F    Hartree Fock one center treatment
   AEXX    =    0.0000 exact exchange contribution

 Linear response parameters
   LEPSILON=     F    determine dielectric tensor
   LRPA    =     F    only Hartree local field effects (RPA)
   LNABLA  =     F    use nabla operator in PAW spheres
   LVEL    =     F    velocity operator in full k-point grid
   LINTERFAST=   F  fast interpolation
   KINTER  =     0    interpolate to denser k-point grid
   CSHIFT  =0.1000    complex shift for real part using Kramers Kronig
   OMEGAMAX=  -1.0    maximum frequency
   DEG_THRESHOLD= 0.2000000E-02 threshold for treating states as degnerate
   RTIME   =   -0.100 relaxation time in fs
  (WPLASMAI=    0.000 imaginary part of plasma frequency in eV, 0.658/RTIME)
   DFIELD  = 0.0000000 0.0000000 0.0000000 field for delta impulse in time
 
 Orbital magnetization related:
   ORBITALMAG=     F  switch on orbital magnetization
   LCHIMAG   =     F  perturbation theory with respect to B field
   DQ        =  0.001000  dq finite difference perturbation B field
   LLRAUG    =     F  two centre corrections for induced B field



--------------------------------------------------------------------------------------------------------


 Static calculation
 charge density and potential will be updated during run
 spin polarized calculation
 Variant of blocked Davidson
 Davidson routine will perform the subspace rotation
 perform sub-space diagonalisation
    after iterative eigenvector-optimisation
 modified Broyden-mixing scheme, WC =      100.0
 initial mixing is a Kerker type mixing with AMIX =  0.4000 and BMIX =      1.0000
 Hartree-type preconditioning will be used
 using additional bands          112
 real space projection scheme for non local part
 use partial core corrections
 calculate Harris-corrections to forces 
   (improved forces if not selfconsistent)
 use gradient corrections 
 use of overlap-Matrix (Vanderbilt PP)
 Gauss-broadening in eV      SIGMA  =   0.05


--------------------------------------------------------------------------------------------------------


  energy-cutoff  :      500.00
  volume of cell :     1140.09
      direct lattice vectors                 reciprocal lattice vectors
     9.703562250  0.000000000  0.000000000     0.103054937  0.000000000  0.067155041
     0.000000000 11.422087500  0.000000000     0.000000000  0.087549671  0.000000000
    -6.703028280  0.000000000 10.286348510     0.000000000  0.000000000  0.097216228

  length of vectors
     9.703562250 11.422087500 12.277603748     0.123004552  0.087549671  0.097216228


 
 k-points in units of 2pi/SCALE and weight: Automatic mesh                          
   0.00000000  0.00000000  0.00000000       0.028
   0.02576373  0.00000000  0.01678876       0.056
   0.05152747  0.00000000  0.03357752       0.028
   0.00000000  0.02918322  0.00000000       0.056
   0.02576373  0.02918322  0.01678876       0.056
   0.05152747  0.02918322  0.03357752       0.056
  -0.02576373  0.02918322 -0.01678876       0.056
   0.00000000  0.00000000  0.03240541       0.056
   0.02576373  0.00000000  0.04919417       0.056
   0.05152747  0.00000000  0.06598293       0.056
  -0.02576373  0.00000000  0.01561665       0.056
   0.00000000  0.02918322  0.03240541       0.056
   0.02576373  0.02918322  0.04919417       0.056
   0.05152747  0.02918322  0.06598293       0.056
  -0.02576373  0.02918322  0.01561665       0.056
   0.00000000 -0.02918322  0.03240541       0.056
   0.02576373 -0.02918322  0.04919417       0.056
   0.05152747 -0.02918322  0.06598293       0.056
  -0.02576373 -0.02918322  0.01561665       0.056
 
 k-points in reciprocal lattice and weights: Automatic mesh                          
   0.00000000  0.00000000  0.00000000       0.028
   0.25000000  0.00000000  0.00000000       0.056
   0.50000000  0.00000000  0.00000000       0.028
   0.00000000  0.33333333  0.00000000       0.056
   0.25000000  0.33333333  0.00000000       0.056
   0.50000000  0.33333333  0.00000000       0.056
  -0.25000000  0.33333333 -0.00000000       0.056
   0.00000000  0.00000000  0.33333333       0.056
   0.25000000  0.00000000  0.33333333       0.056
   0.50000000  0.00000000  0.33333333       0.056
  -0.25000000  0.00000000  0.33333333       0.056
   0.00000000  0.33333333  0.33333333       0.056
   0.25000000  0.33333333  0.33333333       0.056
   0.50000000  0.33333333  0.33333333       0.056
  -0.25000000  0.33333333  0.33333333       0.056
   0.00000000 -0.33333333  0.33333333       0.056
   0.25000000 -0.33333333  0.33333333       0.056
   0.50000000 -0.33333333  0.33333333       0.056
  -0.25000000 -0.33333333  0.33333333       0.056
 
 position of ions in fractional coordinates (direct lattice) 
   0.88609960  0.45121478  0.23577934
   0.72859992  0.19469565  0.24622888
   0.38140348  0.30557372  0.98007829
   0.25577157  0.03276827  0.00222936
   0.42428070  0.18663703  0.24468400
   0.22848804  0.45750146  0.23818311
   0.91568528  0.04190622  0.02234862
   0.71402040  0.30944485  0.01110715
   0.88600003  0.44028044  0.71597101
   0.74151196  0.19291372  0.73924343
   0.40983872  0.29454209  0.49275728
   0.22805038  0.03779682  0.47220838
   0.41062573  0.20820514  0.73336911
   0.23471316  0.45128302  0.73083990
   0.88809166  0.06280648  0.48723460
   0.72555003  0.28846588  0.48959434
   0.90637475  0.92530610  0.24909313
   0.75701049  0.70664244  0.27282669
   0.39703516  0.77911521  0.99711426
   0.24777492  0.52890537  0.00132873
   0.38000156  0.68317253  0.22429882
   0.25253630  0.92828526  0.23322531
   0.91295942  0.53178938  0.01975001
   0.72004057  0.77630150  0.99738177
   0.89277319  0.94199517  0.74821351
   0.70910802  0.67396132  0.71613459
   0.39412154  0.79414686  0.48294697
   0.21775320  0.54071611  0.47120322
   0.39344604  0.69405309  0.73891292
   0.23292424  0.94529996  0.73262291
   0.90752074  0.54077531  0.50098613
   0.74470075  0.76351716  0.48797354
   0.77668859  0.42284431  0.06794590
   0.13384848  0.46110415  0.08482556
   0.44210098  0.42438925  0.06571697
   0.79609037  0.05115818  0.31060531
   0.61522908  0.26056158  0.31185122
   0.88413150  0.29220834  0.27566167
   0.30651470  0.19006744  0.06630575
   0.60235554  0.21972111  0.06005328
   0.92519445  0.21426622  0.06072567
   0.32958036  0.28606764  0.32242411
   0.13201750  0.01892283  0.30416190
   0.43993250  0.04550537  0.30555886
   0.78076376  0.43931290  0.55867017
   0.11110766  0.47475896  0.54707803
   0.40035628  0.43964542  0.52468202
   0.79089817  0.03761378  0.78925244
   0.60318676  0.26424997  0.79913330
   0.91858618  0.27608421  0.78922310
   0.31300241  0.17754700  0.56048545
   0.60904499  0.22211812  0.55880185
   0.92945785  0.19656718  0.53499791
   0.29491835  0.29744391  0.78138025
   0.11290929  0.02072357  0.79085800
   0.42717235  0.04886178  0.78210907
   0.78992466  0.92205729  0.06112125
   0.12928877  0.95031906  0.08196895
   0.42689725  0.93811685  0.04570118
   0.79257966  0.52546401  0.29830601
   0.60643306  0.75235445  0.28847048
   0.91707411  0.77109330  0.29873066
   0.30125689  0.68973415  0.06294690
   0.59275708  0.69223006  0.05324230
   0.90911579  0.65769831  0.05392513
   0.28403895  0.78403514  0.31034949
   0.14006172  0.51269959  0.30294807
   0.43854915  0.54319181  0.31078191
   0.78998785  0.92302439  0.55060961
   0.13786093  0.96190269  0.57150911
   0.41306292  0.93391106  0.51306841
   0.78438135  0.53491226  0.79381622
   0.60221761  0.75746308  0.78997517
   0.91951335  0.77755184  0.79550686
   0.29360194  0.67538639  0.53517642
   0.59800688  0.70718270  0.54211287
   0.91895025  0.69370761  0.54323295
   0.32642508  0.77685977  0.80976635
   0.12967641  0.51707518  0.79178786
   0.41948531  0.53148505  0.78183247
 
 position of ions in cartesian coordinates  (Angst):
   7.01788704  5.15381470  2.42530846
   5.41953553  2.22383075  2.53279607
  -2.86852008  3.49028977 10.08142686
   2.46695189  0.37428205  0.02293197
   2.47691041  2.13178449  2.51690490
   0.62059980  5.22562171  2.45003448
   8.73560568  0.47865651  0.22988569
   6.85408986  3.53450615  0.11425202
   3.79818252  5.02892171  7.36472733
   2.24013785  2.20347739  7.60411555
   0.67392955  3.36428552  5.06867311
  -0.95232507  0.43171859  4.85729997
  -0.93126155  2.37813733  7.54369025
  -2.62128676  5.15459414  7.51767392
   5.35170540  0.71738111  5.01186490
   3.75865517  3.29488252  5.03613801
   7.12538551 10.56892724  2.56225875
   5.51693340  8.07133178  2.80639042
  -2.83102969  8.89912210 10.25666478
   2.39539285  6.04120342  0.01366778
   2.18388746  7.80325642  2.30721583
   0.88718586 10.60295546  2.39903682
   8.72657369  6.07414483  0.20315549
   0.30148028  8.86698366 10.25941648
   3.64778391 10.75955126  7.69638492
   2.08060340  7.69804517  7.36640997
   0.58717570  9.07081492  4.96776085
  -1.04550678  6.17610672  4.84696054
  -1.13512606  7.92753512  7.60071581
  -2.65059722 10.79729886  7.53601458
   5.44805980  6.17678291  5.15331793
   3.95534965  8.72095981  5.01946590
   7.08120279  4.82976471  0.69891521
   0.73021893  5.26677195  0.87254527
   3.84945167  4.84741115  0.67598766
   5.64291629  0.58433321  3.19499447
   3.87956613  2.97615717  3.20781033
   6.73145708  3.33762923  2.83555201
   2.52983515  2.17096693  0.68204405
   5.44245564  2.50967374  0.61772897
   8.57063606  2.44736751  0.62464541
   1.03688561  3.26748961  3.31656676
  -0.75776579  0.21613822  3.12871531
   2.22074272  0.51976632  3.14308492
   3.83140780  5.01787038  5.74667607
  -2.58893941  5.42273838  5.62743528
   0.36792367  5.02166846  5.39706211
   2.38414820  0.42962789  8.11852566
   0.49644716  3.01828628  8.22016363
   3.62337342  3.15345800  8.11822386
  -0.71971145  2.02795737  5.76534867
   2.16424137  2.53705260  5.74803058
   5.43294599  2.24520753  5.50317495
  -2.37585535  3.39743037  8.03754957
  -4.20552122  0.23670643  8.13504101
  -1.09740572  0.55810353  8.04504647
   7.25538564 10.53181905  0.62871448
   0.70512144 10.85462746  0.84316119
   3.83608774 10.71525275  0.47009826
   5.69129245  6.00189590  3.06847958
   3.95093516  8.59345836  2.96730789
   6.89648565  8.80749514  3.07284768
   2.50133013  7.87820381  0.64749375
   5.39497058  7.90671232  0.54766885
   8.46019999  7.51228765  0.55469268
   0.67590822  8.95531797  3.19236301
  -0.67157186  5.85609958  3.11622943
   2.17230905  6.20438438  3.19681104
   3.97494449 10.54286535  5.66376234
  -2.49309961 10.98693669  5.87874188
   0.56906970 10.66721384  5.27760047
   2.29032069  6.10981464  8.16547029
   0.54843016  8.65180958  8.12595991
   3.59025005  8.88126515  8.18286080
  -0.73831798  7.71432244  5.50501117
   2.16899909  8.07750268  5.57636191
   5.27578513  7.92358902  5.58788345
  -2.26040066  8.87336027  8.32953889
  -4.04905330  5.90607795  8.14460587
  -1.17014334  6.07066875  8.04220126
 


--------------------------------------------------------------------------------------------------------


 k-point  1 :   0.0000 0.0000 0.0000  plane waves:   28967
 k-point  2 :   0.2500 0.0000 0.0000  plane waves:   28963
 k-point  3 :   0.5000 0.0000 0.0000  plane waves:   28914
 k-point  4 :   0.0000 0.3333 0.0000  plane waves:   28968
 k-point  5 :   0.2500 0.3333 0.0000  plane waves:   28953
 k-point  6 :   0.5000 0.3333 0.0000  plane waves:   28954
 k-point  7 :  -0.2500 0.3333-0.0000  plane waves:   28953
 k-point  8 :   0.0000 0.0000 0.3333  plane waves:   28916
 k-point  9 :   0.2500 0.0000 0.3333  plane waves:   28899
 k-point 10 :   0.5000 0.0000 0.3333  plane waves:   28925
 k-point 11 :  -0.2500 0.0000 0.3333  plane waves:   28940
 k-point 12 :   0.0000 0.3333 0.3333  plane waves:   28962
 k-point 13 :   0.2500 0.3333 0.3333  plane waves:   28924
 k-point 14 :   0.5000 0.3333 0.3333  plane waves:   28959
 k-point 15 :  -0.2500 0.3333 0.3333  plane waves:   28972
 k-point 16 :   0.0000-0.3333 0.3333  plane waves:   28962
 k-point 17 :   0.2500-0.3333 0.3333  plane waves:   28924
 k-point 18 :   0.5000-0.3333 0.3333  plane waves:   28959
 k-point 19 :  -0.2500-0.3333 0.3333  plane waves:   28972

 maximum and minimum number of plane-waves per node :     28972    28899

 maximum number of plane-waves:     28972
 maximum index in each direction: 
   IXMAX=   17   IYMAX=   21   IZMAX=   22
   IXMIN=  -18   IYMIN=  -21   IZMIN=  -22

 The following grids will avoid any aliasing or wrap around errors in the Hartre
 e energy
  - symmetry arguments have not been applied
  - exchange correlation energies might require even more grid points
  - we recommend to set PREC=Normal or Accurate and rely on VASP defaults
 NGX is ok and might be reduce to    72
 WARNING: aliasing errors must be expected set NGY to    90 to avoid them
 NGZ is ok and might be reduce to    90

 serial   3D FFT for wavefunctions
 parallel 3D FFT for charge:
    minimum data exchange during FFTs selected (reduces bandwidth)


 total amount of memory used by VASP MPI-rank0   631876. kBytes
=======================================================================

   base      :      30000. kBytes
   nonlr-proj:      48958. kBytes
   fftplans  :      11488. kBytes
   grid      :      65714. kBytes
   one-center:       2488. kBytes
   wavefun   :     473228. kBytes
 
     INWAV:  cpu time    0.0000: real time    0.0000
 Broyden mixing: mesh for mixing (old mesh)
   NGX = 35   NGY = 41   NGZ = 45
  (NGX  =144   NGY  =168   NGZ  =180)
  gives a total of  64575 points

 initial charge density was supplied:
 charge density of overlapping atoms calculated
 number of electron     608.0000000 magnetization      80.0000000
 keeping initial charge density in first step


--------------------------------------------------------------------------------------------------------


 Maximum index for non-local projection operator         6234
 Maximum index for augmentation-charges         1032 (set IRDMAX)


--------------------------------------------------------------------------------------------------------


 First call to EWALD:  gamma=   0.170
 Maximum number of real-space cells 3x 3x 3
 Maximum number of reciprocal cells 3x 3x 3

    FEWALD:  cpu time    0.0041: real time    0.0041


--------------------------------------- Iteration      1(   1)  ---------------------------------------


    POTLOK:  cpu time    0.4588: real time    0.5427
    SETDIJ:  cpu time    0.0326: real time    0.0327
     EDDAV:  cpu time  257.1181: real time  257.7259
    --------------------------------------------
      LOOP:  cpu time  257.6125: real time  258.3043

 eigenvalue-minimisations  : 31616
 total energy-change (2. order) : 0.7159564E+04  (-0.2574185E+05)
 number of electron     608.0000000 magnetization      80.0000000
 augmentation part      608.0000000 magnetization      80.0000000

 Free energy of the ion-electron system (eV)
  ---------------------------------------------------
  alpha Z        PSCENC =      1463.15073082
  Ewald energy   TEWEN  =    -33935.37706504
  -Hartree energ DENC   =    -21289.44713717
  -exchange      EXHF   =         0.00000000
  -V(xc)+E(xc)   XCENC  =      2361.90335705
  PAW double counting   =     47387.14975297   -49597.44882166
  entropy T*S    EENTRO =        -0.01610707
  eigenvalues    EBANDS =      5632.43650241
  atomic energy  EATOM  =     55137.21312455
  Solvation  Ediel_sol  =         0.00000000
  ---------------------------------------------------
  free energy    TOTEN  =      7159.56433685 eV

  energy without entropy =     7159.58044392  energy(sigma->0) =     7159.57239038


--------------------------------------------------------------------------------------------------------




--------------------------------------- Iteration      1(   2)  ---------------------------------------


     EDDAV:  cpu time  256.1438: real time  256.7492
    --------------------------------------------
      LOOP:  cpu time  256.1438: real time  256.7492

 eigenvalue-minimisations  : 31632
 total energy-change (2. order) :-0.6102636E+04  (-0.5546169E+04)
 number of electron     608.0000000 magnetization      80.0000000
 augmentation part      608.0000000 magnetization      80.0000000

 Free energy of the ion-electron system (eV)
  ---------------------------------------------------
  alpha Z        PSCENC =      1463.15073082
  Ewald energy   TEWEN  =    -33935.37706504
  -Hartree energ DENC   =    -21289.44713717
  -exchange      EXHF   =         0.00000000
  -V(xc)+E(xc)   XCENC  =      2361.90335705
  PAW double counting   =     47387.14975297   -49597.44882166
  entropy T*S    EENTRO =        -0.04531238
  eigenvalues    EBANDS =      -470.16982540
  atomic energy  EATOM  =     55137.21312455
  Solvation  Ediel_sol  =         0.00000000
  ---------------------------------------------------
  free energy    TOTEN  =      1056.92880373 eV

  energy without entropy =     1056.97411611  energy(sigma->0) =     1056.95145992


--------------------------------------------------------------------------------------------------------




--------------------------------------- Iteration      1(   3)  ---------------------------------------


     EDDAV:  cpu time  266.4482: real time  267.0780
    --------------------------------------------
      LOOP:  cpu time  266.4484: real time  267.0782

 eigenvalue-minimisations  : 33216
 total energy-change (2. order) :-0.1522622E+04  (-0.1361122E+04)
 number of electron     608.0000000 magnetization      80.0000000
 augmentation part      608.0000000 magnetization      80.0000000

 Free energy of the ion-electron system (eV)
  ---------------------------------------------------
  alpha Z        PSCENC =      1463.15073082
  Ewald energy   TEWEN  =    -33935.37706504
  -Hartree energ DENC   =    -21289.44713717
  -exchange      EXHF   =         0.00000000
  -V(xc)+E(xc)   XCENC  =      2361.90335705
  PAW double counting   =     47387.14975297   -49597.44882166
  entropy T*S    EENTRO =        -0.13286501
  eigenvalues    EBANDS =     -1992.70462860
  atomic energy  EATOM  =     55137.21312455
  Solvation  Ediel_sol  =         0.00000000
  ---------------------------------------------------
  free energy    TOTEN  =      -465.69355210 eV

  energy without entropy =     -465.56068709  energy(sigma->0) =     -465.62711959


--------------------------------------------------------------------------------------------------------




--------------------------------------- Iteration      1(   4)  ---------------------------------------


     EDDAV:  cpu time  282.5940: real time  283.2614
    --------------------------------------------
      LOOP:  cpu time  282.5940: real time  283.2614

 eigenvalue-minimisations  : 35824
 total energy-change (2. order) :-0.1819208E+03  (-0.1754139E+03)
 number of electron     608.0000000 magnetization      80.0000000
 augmentation part      608.0000000 magnetization      80.0000000

 Free energy of the ion-electron system (eV)
  ---------------------------------------------------
  alpha Z        PSCENC =      1463.15073082
  Ewald energy   TEWEN  =    -33935.37706504
  -Hartree energ DENC   =    -21289.44713717
  -exchange      EXHF   =         0.00000000
  -V(xc)+E(xc)   XCENC  =      2361.90335705
  PAW double counting   =     47387.14975297   -49597.44882166
  entropy T*S    EENTRO =        -0.13040081
  eigenvalues    EBANDS =     -2174.62784513
  atomic energy  EATOM  =     55137.21312455
  Solvation  Ediel_sol  =         0.00000000
  ---------------------------------------------------
  free energy    TOTEN  =      -647.61430444 eV

  energy without entropy =     -647.48390362  energy(sigma->0) =     -647.54910403


--------------------------------------------------------------------------------------------------------




--------------------------------------- Iteration      1(   5)  ---------------------------------------


     EDDAV:  cpu time  277.5902: real time  278.2460
    CHARGE:  cpu time   12.8364: real time   12.8668
    MIXING:  cpu time    0.0083: real time    0.0084
    --------------------------------------------
      LOOP:  cpu time  290.4318: real time  291.1180

 eigenvalue-minimisations  : 35040
 total energy-change (2. order) :-0.5646740E+01  (-0.5604617E+01)
 number of electron     608.0000017 magnetization      85.9469970
 augmentation part      199.5311502 magnetization      60.2051132

 Broyden mixing:
  rms(total) = 0.14249E+02    rms(broyden)= 0.14248E+02
  rms(prec ) = 0.16533E+02
  weight for this iteration     100.00

 Free energy of the ion-electron system (eV)
  ---------------------------------------------------
  alpha Z        PSCENC =      1463.15073082
  Ewald energy   TEWEN  =    -33935.37706504
  -Hartree energ DENC   =    -21289.44713717
  -exchange      EXHF   =         0.00000000
  -V(xc)+E(xc)   XCENC  =      2361.90335705
  PAW double counting   =     47387.14975297   -49597.44882166
  entropy T*S    EENTRO =        -0.13106157
  eigenvalues    EBANDS =     -2180.27392462
  atomic energy  EATOM  =     55137.21312455
  Solvation  Ediel_sol  =         0.00000000
  ---------------------------------------------------
  free energy    TOTEN  =      -653.26104468 eV

  energy without entropy =     -653.12998311  energy(sigma->0) =     -653.19551390


--------------------------------------------------------------------------------------------------------




--------------------------------------- Iteration      1(   6)  ---------------------------------------


    POTLOK:  cpu time    0.4250: real time    0.4260
    SETDIJ:  cpu time    0.0338: real time    0.0339
     EDDAV:  cpu time  353.5810: real time  354.4165
    CHARGE:  cpu time   12.6786: real time   12.7085
    MIXING:  cpu time    0.0094: real time    0.0095
    --------------------------------------------
      LOOP:  cpu time  366.7278: real time  367.5944

 eigenvalue-minimisations  : 47568
 total energy-change (2. order) :-0.9129164E+02  (-0.1447055E+03)
 number of electron     608.0000026 magnetization      77.9540765
 augmentation part      261.5488340 magnetization      71.4846015

 Broyden mixing:
  rms(total) = 0.25510E+02    rms(broyden)= 0.25508E+02
  rms(prec ) = 0.27964E+02
  weight for this iteration     100.00

 eigenvalues of (default mixing * dielectric matrix)
  average eigenvalue GAMMA=   0.2404
  0.2404

 Free energy of the ion-electron system (eV)
  ---------------------------------------------------
  alpha Z        PSCENC =      1463.15073082
  Ewald energy   TEWEN  =    -33935.37706504
  -Hartree energ DENC   =    -20412.43251241
  -exchange      EXHF   =         0.00000000
  -V(xc)+E(xc)   XCENC  =      2381.03661089
  PAW double counting   =     51015.91840239   -52916.93023752
  entropy T*S    EENTRO =        -0.08260326
  eigenvalues    EBANDS =     -3477.04913970
  atomic energy  EATOM  =     55137.21312455
  Solvation  Ediel_sol  =         0.00000000
  ---------------------------------------------------
  free energy    TOTEN  =      -744.55268928 eV

  energy without entropy =     -744.47008602  energy(sigma->0) =     -744.51138765


--------------------------------------------------------------------------------------------------------




--------------------------------------- Iteration      1(   7)  ---------------------------------------


    POTLOK:  cpu time    0.4211: real time    0.4221
    SETDIJ:  cpu time    0.0339: real time    0.0340
     EDDAV:  cpu time  319.9216: real time  320.6775
    CHARGE:  cpu time   12.7271: real time   12.7572
    MIXING:  cpu time    0.0096: real time    0.0096
    --------------------------------------------
      LOOP:  cpu time  333.1133: real time  333.9003

 eigenvalue-minimisations  : 42192
 total energy-change (2. order) : 0.2483477E+03  (-0.4527242E+02)
 number of electron     608.0000021 magnetization      71.3732956
 augmentation part      235.9838107 magnetization      55.4606891

 Broyden mixing:
  rms(total) = 0.98696E+01    rms(broyden)= 0.98672E+01
  rms(prec ) = 0.11453E+02
  weight for this iteration     100.00

 eigenvalues of (default mixing * dielectric matrix)
  average eigenvalue GAMMA=   0.5068
  0.5068  0.5068

 Free energy of the ion-electron system (eV)
  ---------------------------------------------------
  alpha Z        PSCENC =      1463.15073082
  Ewald energy   TEWEN  =    -33935.37706504
  -Hartree energ DENC   =    -20788.10488402
  -exchange      EXHF   =         0.00000000
  -V(xc)+E(xc)   XCENC  =      2356.80115837
  PAW double counting   =     52984.06625041   -55111.64957723
  entropy T*S    EENTRO =        -0.09481743
  eigenvalues    EBANDS =     -2602.20995191
  atomic energy  EATOM  =     55137.21312455
  Solvation  Ediel_sol  =         0.00000000
  ---------------------------------------------------
  free energy    TOTEN  =      -496.20503148 eV

  energy without entropy =     -496.11021405  energy(sigma->0) =     -496.15762276


--------------------------------------------------------------------------------------------------------




--------------------------------------- Iteration      1(   8)  ---------------------------------------


    POTLOK:  cpu time    0.4336: real time    0.4346
    SETDIJ:  cpu time    0.0342: real time    0.0343
     EDDAV:  cpu time  371.5082: real time  372.3857
    CHARGE:  cpu time   12.6441: real time   12.6740
    MIXING:  cpu time    0.0112: real time    0.0112
    --------------------------------------------
      LOOP:  cpu time  384.6314: real time  385.5398

 eigenvalue-minimisations  : 50624
 total energy-change (2. order) :-0.7700273E+02  (-0.2113018E+02)
 number of electron     608.0000021 magnetization      65.9996301
 augmentation part      229.4804604 magnetization      55.5535542

 Broyden mixing:
  rms(total) = 0.15540E+02    rms(broyden)= 0.15538E+02
  rms(prec ) = 0.20630E+02
  weight for this iteration     100.00

 eigenvalues of (default mixing * dielectric matrix)
  average eigenvalue GAMMA=   0.4400
  0.5851  0.5851  0.1498

 Free energy of the ion-electron system (eV)
  ---------------------------------------------------
  alpha Z        PSCENC =      1463.15073082
  Ewald energy   TEWEN  =    -33935.37706504
  -Hartree energ DENC   =    -20769.59187748
  -exchange      EXHF   =         0.00000000
  -V(xc)+E(xc)   XCENC  =      2345.11918195
  PAW double counting   =     54330.19537927   -56540.77581199
  entropy T*S    EENTRO =        -0.06069408
  eigenvalues    EBANDS =     -2603.08073361
  atomic energy  EATOM  =     55137.21312455
  Solvation  Ediel_sol  =         0.00000000
  ---------------------------------------------------
  free energy    TOTEN  =      -573.20776562 eV

  energy without entropy =     -573.14707154  energy(sigma->0) =     -573.17741858


--------------------------------------------------------------------------------------------------------




--------------------------------------- Iteration      1(   9)  ---------------------------------------


    POTLOK:  cpu time    0.4306: real time    0.4316
    SETDIJ:  cpu time    0.0347: real time    0.0348
     EDDAV:  cpu time  313.2407: real time  313.9807
    CHARGE:  cpu time   12.8566: real time   12.8870
    MIXING:  cpu time    0.0090: real time    0.0090
    --------------------------------------------
      LOOP:  cpu time  326.5716: real time  327.3431

 eigenvalue-minimisations  : 40848
 total energy-change (2. order) : 0.4171002E+02  (-0.2056082E+02)
 number of electron     608.0000032 magnetization      61.6171632
 augmentation part      223.0365651 magnetization      47.1485977

 Broyden mixing:
  rms(total) = 0.11661E+02    rms(broyden)= 0.11660E+02
  rms(prec ) = 0.14954E+02
  weight for this iteration     100.00

 eigenvalues of (default mixing * dielectric matrix)
  average eigenvalue GAMMA=   0.4072
  0.6420  0.6420  0.1723  0.1723

 Free energy of the ion-electron system (eV)
  ---------------------------------------------------
  alpha Z        PSCENC =      1463.15073082
  Ewald energy   TEWEN  =    -33935.37706504
  -Hartree energ DENC   =    -20792.31781605
  -exchange      EXHF   =         0.00000000
  -V(xc)+E(xc)   XCENC  =      2341.53201825
  PAW double counting   =     55407.59476993   -57658.04580397
  entropy T*S    EENTRO =        -0.11242195
  eigenvalues    EBANDS =     -2495.13527838
  atomic energy  EATOM  =     55137.21312455
  Solvation  Ediel_sol  =         0.00000000
  ---------------------------------------------------
  free energy    TOTEN  =      -531.49774184 eV

  energy without entropy =     -531.38531989  energy(sigma->0) =     -531.44153086


--------------------------------------------------------------------------------------------------------




--------------------------------------- Iteration      1(  10)  ---------------------------------------


    POTLOK:  cpu time    0.4006: real time    0.4015
    SETDIJ:  cpu time    0.0343: real time    0.0344
     EDDAV:  cpu time  317.6599: real time  318.4101
    CHARGE:  cpu time   12.9492: real time   12.9798
    MIXING:  cpu time    0.0117: real time    0.0117
    --------------------------------------------
      LOOP:  cpu time  331.0556: real time  331.8375

 eigenvalue-minimisations  : 41424
 total energy-change (2. order) : 0.1953653E+02  (-0.1715129E+02)
 number of electron     608.0000026 magnetization      57.6658740
 augmentation part      221.6238653 magnetization      41.6662767

 Broyden mixing:
  rms(total) = 0.10123E+02    rms(broyden)= 0.10122E+02
  rms(prec ) = 0.13413E+02
  weight for this iteration     100.00

 eigenvalues of (default mixing * dielectric matrix)
  average eigenvalue GAMMA=   0.4011
  0.9247  0.5198  0.2220  0.2220  0.1171

 Free energy of the ion-electron system (eV)
  ---------------------------------------------------
  alpha Z        PSCENC =      1463.15073082
  Ewald energy   TEWEN  =    -33935.37706504
  -Hartree energ DENC   =    -20789.69038708
  -exchange      EXHF   =         0.00000000
  -V(xc)+E(xc)   XCENC  =      2340.23272553
  PAW double counting   =     56321.66996253   -58593.74351068
  entropy T*S    EENTRO =        -0.10265598
  eigenvalues    EBANDS =     -2455.31413991
  atomic energy  EATOM  =     55137.21312455
  Solvation  Ediel_sol  =         0.00000000
  ---------------------------------------------------
  free energy    TOTEN  =      -511.96121527 eV

  energy without entropy =     -511.85855928  energy(sigma->0) =     -511.90988728


--------------------------------------------------------------------------------------------------------




--------------------------------------- Iteration      1(  11)  ---------------------------------------


    POTLOK:  cpu time    0.4355: real time    0.4365
    SETDIJ:  cpu time    0.0339: real time    0.0340
     EDDAV:  cpu time  316.3916: real time  317.1389
    CHARGE:  cpu time   12.9225: real time   12.9531
    MIXING:  cpu time    0.0119: real time    0.0120
    --------------------------------------------
      LOOP:  cpu time  329.7954: real time  330.5744

 eigenvalue-minimisations  : 41280
 total energy-change (2. order) : 0.1670182E+02  (-0.1056169E+02)
 number of electron     608.0000018 magnetization      54.6164375
 augmentation part      221.7785081 magnetization      40.4572893

 Broyden mixing:
  rms(total) = 0.90496E+01    rms(broyden)= 0.90489E+01
  rms(prec ) = 0.11923E+02
  weight for this iteration     100.00

 eigenvalues of (default mixing * dielectric matrix)
  average eigenvalue GAMMA=   0.4024
  1.1145  0.4821  0.2956  0.2956  0.1134  0.1134

 Free energy of the ion-electron system (eV)
  ---------------------------------------------------
  alpha Z        PSCENC =      1463.15073082
  Ewald energy   TEWEN  =    -33935.37706504
  -Hartree energ DENC   =    -20774.57322416
  -exchange      EXHF   =         0.00000000
  -V(xc)+E(xc)   XCENC  =      2339.95043037
  PAW double counting   =     57114.63578705   -59399.72290982
  entropy T*S    EENTRO =        -0.11111585
  eigenvalues    EBANDS =     -2440.42515617
  atomic energy  EATOM  =     55137.21312455
  Solvation  Ediel_sol  =         0.00000000
  ---------------------------------------------------
  free energy    TOTEN  =      -495.25939825 eV

  energy without entropy =     -495.14828240  energy(sigma->0) =     -495.20384033


--------------------------------------------------------------------------------------------------------




--------------------------------------- Iteration      1(  12)  ---------------------------------------


    POTLOK:  cpu time    0.4284: real time    0.4294
    SETDIJ:  cpu time    0.0347: real time    0.0347
     EDDAV:  cpu time  308.7093: real time  309.4383
    CHARGE:  cpu time   12.8973: real time   12.9278
    MIXING:  cpu time    0.0110: real time    0.0110
    --------------------------------------------
      LOOP:  cpu time  322.0807: real time  322.8412

 eigenvalue-minimisations  : 40000
 total energy-change (2. order) : 0.2658070E+02  (-0.5473058E+01)
 number of electron     608.0000035 magnetization      51.7208204
 augmentation part      222.9336757 magnetization      37.1037875

 Broyden mixing:
  rms(total) = 0.76464E+01    rms(broyden)= 0.76457E+01
  rms(prec ) = 0.10230E+02
  weight for this iteration     100.00

 eigenvalues of (default mixing * dielectric matrix)
  average eigenvalue GAMMA=   0.4176
  1.3065  0.4828  0.3927  0.3927  0.1267  0.1267  0.0949

 Free energy of the ion-electron system (eV)
  ---------------------------------------------------
  alpha Z        PSCENC =      1463.15073082
  Ewald energy   TEWEN  =    -33935.37706504
  -Hartree energ DENC   =    -20764.19758367
  -exchange      EXHF   =         0.00000000
  -V(xc)+E(xc)   XCENC  =      2339.84873051
  PAW double counting   =     57635.77079510   -59928.07943384
  entropy T*S    EENTRO =        -0.10385394
  eigenvalues    EBANDS =     -2416.90414182
  atomic energy  EATOM  =     55137.21312455
  Solvation  Ediel_sol  =         0.00000000
  ---------------------------------------------------
  free energy    TOTEN  =      -468.67869734 eV

  energy without entropy =     -468.57484340  energy(sigma->0) =     -468.62677037


--------------------------------------------------------------------------------------------------------




--------------------------------------- Iteration      1(  13)  ---------------------------------------


    POTLOK:  cpu time    0.4409: real time    0.4420
    SETDIJ:  cpu time    0.0368: real time    0.0369
     EDDAV:  cpu time  318.3054: real time  319.0569
    CHARGE:  cpu time   12.9420: real time   12.9727
    MIXING:  cpu time    0.0106: real time    0.0106
    --------------------------------------------
      LOOP:  cpu time  331.7358: real time  332.5191

 eigenvalue-minimisations  : 41568
 total energy-change (2. order) :-0.2913560E+01  (-0.4395360E+01)
 number of electron     608.0000014 magnetization      48.2494750
 augmentation part      223.4993486 magnetization      34.4054133

 Broyden mixing:
  rms(total) = 0.85364E+01    rms(broyden)= 0.85357E+01
  rms(prec ) = 0.11437E+02
  weight for this iteration     100.00

 eigenvalues of (default mixing * dielectric matrix)
  average eigenvalue GAMMA=   0.4198
  1.5298  0.4666  0.4431  0.4431  0.1462  0.1462  0.0917  0.0917

 Free energy of the ion-electron system (eV)
  ---------------------------------------------------
  alpha Z        PSCENC =      1463.15073082
  Ewald energy   TEWEN  =    -33935.37706504
  -Hartree energ DENC   =    -20760.36027126
  -exchange      EXHF   =         0.00000000
  -V(xc)+E(xc)   XCENC  =      2339.61353455
  PAW double counting   =     58057.57794967   -60353.80798182
  entropy T*S    EENTRO =        -0.11933541
  eigenvalues    EBANDS =     -2419.48294308
  atomic energy  EATOM  =     55137.21312455
  Solvation  Ediel_sol  =         0.00000000
  ---------------------------------------------------
  free energy    TOTEN  =      -471.59225702 eV

  energy without entropy =     -471.47292161  energy(sigma->0) =     -471.53258932


--------------------------------------------------------------------------------------------------------




--------------------------------------- Iteration      1(  14)  ---------------------------------------


    POTLOK:  cpu time    0.4376: real time    0.4386
    SETDIJ:  cpu time    0.0339: real time    0.0340
     EDDAV:  cpu time  311.2059: real time  311.9407
    CHARGE:  cpu time   12.9339: real time   12.9645
    MIXING:  cpu time    0.0128: real time    0.0128
    --------------------------------------------
      LOOP:  cpu time  324.6241: real time  325.3906

 eigenvalue-minimisations  : 40416
 total energy-change (2. order) : 0.2526507E+01  (-0.3887800E+01)
 number of electron     608.0000024 magnetization      46.4406636
 augmentation part      225.6317483 magnetization      32.0517054

 Broyden mixing:
  rms(total) = 0.63918E+01    rms(broyden)= 0.63912E+01
  rms(prec ) = 0.87802E+01
  weight for this iteration     100.00

 eigenvalues of (default mixing * dielectric matrix)
  average eigenvalue GAMMA=   0.4008
  1.5747  0.5215  0.4426  0.4426  0.1622  0.1622  0.1203  0.0942  0.0868

 Free energy of the ion-electron system (eV)
  ---------------------------------------------------
  alpha Z        PSCENC =      1463.15073082
  Ewald energy   TEWEN  =    -33935.37706504
  -Hartree energ DENC   =    -20764.55991499
  -exchange      EXHF   =         0.00000000
  -V(xc)+E(xc)   XCENC  =      2339.30189339
  PAW double counting   =     58552.98558044   -60855.85279744
  entropy T*S    EENTRO =        -0.10577426
  eigenvalues    EBANDS =     -2405.82152759
  atomic energy  EATOM  =     55137.21312455
  Solvation  Ediel_sol  =         0.00000000
  ---------------------------------------------------
  free energy    TOTEN  =      -469.06575013 eV

  energy without entropy =     -468.95997587  energy(sigma->0) =     -469.01286300


--------------------------------------------------------------------------------------------------------




--------------------------------------- Iteration      1(  15)  ---------------------------------------


    POTLOK:  cpu time    0.4413: real time    0.4423
    SETDIJ:  cpu time    0.0344: real time    0.0344
     EDDAV:  cpu time  302.9679: real time  303.6834
    CHARGE:  cpu time   12.9899: real time   13.0206
    MIXING:  cpu time    0.0131: real time    0.0131
    --------------------------------------------
      LOOP:  cpu time  316.4465: real time  317.1939

 eigenvalue-minimisations  : 39024
 total energy-change (2. order) : 0.5192573E+01  (-0.2325016E+01)
 number of electron     608.0000020 magnetization      45.1411000
 augmentation part      225.7347951 magnetization      30.0881953

 Broyden mixing:
  rms(total) = 0.51410E+01    rms(broyden)= 0.51404E+01
  rms(prec ) = 0.70155E+01
  weight for this iteration     100.00

 eigenvalues of (default mixing * dielectric matrix)
  average eigenvalue GAMMA=   0.3906
  1.5929  0.5666  0.4710  0.4710  0.2627  0.1317  0.1317  0.0975  0.0963  0.0847

 Free energy of the ion-electron system (eV)
  ---------------------------------------------------
  alpha Z        PSCENC =      1463.15073082
  Ewald energy   TEWEN  =    -33935.37706504
  -Hartree energ DENC   =    -20769.57403095
  -exchange      EXHF   =         0.00000000
  -V(xc)+E(xc)   XCENC  =      2339.13227219
  PAW double counting   =     58755.49174199   -61060.66379394
  entropy T*S    EENTRO =        -0.10629671
  eigenvalues    EBANDS =     -2393.13985963
  atomic energy  EATOM  =     55137.21312455
  Solvation  Ediel_sol  =         0.00000000
  ---------------------------------------------------
  free energy    TOTEN  =      -463.87317673 eV

  energy without entropy =     -463.76688002  energy(sigma->0) =     -463.82002837


--------------------------------------------------------------------------------------------------------




--------------------------------------- Iteration      1(  16)  ---------------------------------------


    POTLOK:  cpu time    0.4321: real time    0.4331
    SETDIJ:  cpu time    0.0343: real time    0.0344
     EDDAV:  cpu time  303.9037: real time  304.6213
    CHARGE:  cpu time   12.9139: real time   12.9444
    MIXING:  cpu time    0.0142: real time    0.0142
    --------------------------------------------
      LOOP:  cpu time  317.2981: real time  318.0474

 eigenvalue-minimisations  : 39136
 total energy-change (2. order) : 0.5253135E+01  (-0.1275457E+01)
 number of electron     608.0000020 magnetization      43.8231545
 augmentation part      225.5976367 magnetization      28.6982054

 Broyden mixing:
  rms(total) = 0.33197E+01    rms(broyden)= 0.33191E+01
  rms(prec ) = 0.43369E+01
  weight for this iteration     100.00

 eigenvalues of (default mixing * dielectric matrix)
  average eigenvalue GAMMA=   0.3850
  1.6286  0.6124  0.5020  0.5020  0.2862  0.1602  0.1602  0.1144  0.0922  0.0922
  0.0850

 Free energy of the ion-electron system (eV)
  ---------------------------------------------------
  alpha Z        PSCENC =      1463.15073082
  Ewald energy   TEWEN  =    -33935.37706504
  -Hartree energ DENC   =    -20775.75516795
  -exchange      EXHF   =         0.00000000
  -V(xc)+E(xc)   XCENC  =      2338.96382771
  PAW double counting   =     58878.61533927   -61185.57605430
  entropy T*S    EENTRO =        -0.11612757
  eigenvalues    EBANDS =     -2379.73864921
  atomic energy  EATOM  =     55137.21312455
  Solvation  Ediel_sol  =         0.00000000
  ---------------------------------------------------
  free energy    TOTEN  =      -458.62004172 eV

  energy without entropy =     -458.50391415  energy(sigma->0) =     -458.56197793


--------------------------------------------------------------------------------------------------------




--------------------------------------- Iteration      1(  17)  ---------------------------------------


    POTLOK:  cpu time    0.4368: real time    0.4378
    SETDIJ:  cpu time    0.0353: real time    0.0354
     EDDAV:  cpu time  307.1198: real time  307.8452
    CHARGE:  cpu time   12.9449: real time   12.9755
    MIXING:  cpu time    0.0133: real time    0.0134
    --------------------------------------------
      LOOP:  cpu time  320.5500: real time  321.3072

 eigenvalue-minimisations  : 39712
 total energy-change (2. order) : 0.1636557E+01  (-0.8675974E+00)
 number of electron     608.0000020 magnetization      42.8025370
 augmentation part      225.1188310 magnetization      28.4381713

 Broyden mixing:
  rms(total) = 0.27438E+01    rms(broyden)= 0.27433E+01
  rms(prec ) = 0.36851E+01
  weight for this iteration     100.00

 eigenvalues of (default mixing * dielectric matrix)
  average eigenvalue GAMMA=   0.3744
  1.6907  0.5708  0.4799  0.4799  0.3115  0.3115  0.1410  0.1410  0.1009  0.1009
  0.0824  0.0824

 Free energy of the ion-electron system (eV)
  ---------------------------------------------------
  alpha Z        PSCENC =      1463.15073082
  Ewald energy   TEWEN  =    -33935.37706504
  -Hartree energ DENC   =    -20788.69543495
  -exchange      EXHF   =         0.00000000
  -V(xc)+E(xc)   XCENC  =      2338.72684556
  PAW double counting   =     59003.26965815   -61313.48914170
  entropy T*S    EENTRO =        -0.11271237
  eigenvalues    EBANDS =     -2361.66949008
  atomic energy  EATOM  =     55137.21312455
  Solvation  Ediel_sol  =         0.00000000
  ---------------------------------------------------
  free energy    TOTEN  =      -456.98348506 eV

  energy without entropy =     -456.87077270  energy(sigma->0) =     -456.92712888


--------------------------------------------------------------------------------------------------------




--------------------------------------- Iteration      1(  18)  ---------------------------------------


    POTLOK:  cpu time    0.4374: real time    0.4384
    SETDIJ:  cpu time    0.0343: real time    0.0344
     EDDAV:  cpu time  336.5592: real time  337.3540
    CHARGE:  cpu time   12.8901: real time   12.9206
    MIXING:  cpu time    0.0149: real time    0.0149
    --------------------------------------------
      LOOP:  cpu time  349.9358: real time  350.7623

 eigenvalue-minimisations  : 44576
 total energy-change (2. order) : 0.5628917E+00  (-0.4390298E+00)
 number of electron     608.0000025 magnetization      42.0856528
 augmentation part      224.6209799 magnetization      28.2169047

 Broyden mixing:
  rms(total) = 0.20789E+01    rms(broyden)= 0.20785E+01
  rms(prec ) = 0.27534E+01
  weight for this iteration     100.00

 eigenvalues of (default mixing * dielectric matrix)
  average eigenvalue GAMMA=   0.3634
  1.7228  0.5096  0.5096  0.4682  0.4682  0.2665  0.1540  0.1540  0.1100  0.1100
  0.0859  0.0859  0.0800

 Free energy of the ion-electron system (eV)
  ---------------------------------------------------
  alpha Z        PSCENC =      1463.15073082
  Ewald energy   TEWEN  =    -33935.37706504
  -Hartree energ DENC   =    -20794.56938189
  -exchange      EXHF   =         0.00000000
  -V(xc)+E(xc)   XCENC  =      2338.47848768
  PAW double counting   =     59101.63403068   -61413.34810014
  entropy T*S    EENTRO =        -0.11524558
  eigenvalues    EBANDS =     -2353.48717440
  atomic energy  EATOM  =     55137.21312455
  Solvation  Ediel_sol  =         0.00000000
  ---------------------------------------------------
  free energy    TOTEN  =      -456.42059332 eV

  energy without entropy =     -456.30534774  energy(sigma->0) =     -456.36297053


--------------------------------------------------------------------------------------------------------




--------------------------------------- Iteration      1(  19)  ---------------------------------------


    POTLOK:  cpu time    0.4259: real time    0.4269
    SETDIJ:  cpu time    0.0340: real time    0.0341
     EDDAV:  cpu time  332.9347: real time  333.7208
    CHARGE:  cpu time   12.8850: real time   12.9155
    MIXING:  cpu time    0.0155: real time    0.0156
    --------------------------------------------
      LOOP:  cpu time  346.2952: real time  347.1128

 eigenvalue-minimisations  : 43984
 total energy-change (2. order) : 0.5106548E+00  (-0.2068213E+00)
 number of electron     608.0000020 magnetization      41.1339030
 augmentation part      224.5047965 magnetization      27.4254012

 Broyden mixing:
  rms(total) = 0.14299E+01    rms(broyden)= 0.14297E+01
  rms(prec ) = 0.17436E+01
  weight for this iteration     100.00

 eigenvalues of (default mixing * dielectric matrix)
  average eigenvalue GAMMA=   0.3633
  1.7502  0.5658  0.5658  0.4603  0.4603  0.2773  0.2773  0.1332  0.1274  0.1274
  0.0988  0.0845  0.0845  0.0729

 Free energy of the ion-electron system (eV)
  ---------------------------------------------------
  alpha Z        PSCENC =      1463.15073082
  Ewald energy   TEWEN  =    -33935.37706504
  -Hartree energ DENC   =    -20795.80462382
  -exchange      EXHF   =         0.00000000
  -V(xc)+E(xc)   XCENC  =      2338.28079312
  PAW double counting   =     59164.08951333   -61476.10675680
  entropy T*S    EENTRO =        -0.11891239
  eigenvalues    EBANDS =     -2351.23674226
  atomic energy  EATOM  =     55137.21312455
  Solvation  Ediel_sol  =         0.00000000
  ---------------------------------------------------
  free energy    TOTEN  =      -455.90993849 eV

  energy without entropy =     -455.79102611  energy(sigma->0) =     -455.85048230


--------------------------------------------------------------------------------------------------------




--------------------------------------- Iteration      1(  20)  ---------------------------------------


    POTLOK:  cpu time    0.4103: real time    0.4113
    SETDIJ:  cpu time    0.0314: real time    0.0315
     EDDAV:  cpu time  328.6863: real time  329.4624
    CHARGE:  cpu time   12.9205: real time   12.9510
    MIXING:  cpu time    0.0153: real time    0.0154
    --------------------------------------------
      LOOP:  cpu time  342.0638: real time  342.8715

 eigenvalue-minimisations  : 43392
 total energy-change (2. order) :-0.7015759E+00  (-0.1213874E+00)
 number of electron     608.0000022 magnetization      40.1206124
 augmentation part      224.4097074 magnetization      26.6663627

 Broyden mixing:
  rms(total) = 0.16465E+01    rms(broyden)= 0.16463E+01
  rms(prec ) = 0.20862E+01
  weight for this iteration     100.00

 eigenvalues of (default mixing * dielectric matrix)
  average eigenvalue GAMMA=   0.3684
  1.7877  0.6220  0.6220  0.5076  0.5076  0.3107  0.3107  0.1636  0.1304  0.1304
  0.0926  0.0926  0.0868  0.0868  0.0743

 Free energy of the ion-electron system (eV)
  ---------------------------------------------------
  alpha Z        PSCENC =      1463.15073082
  Ewald energy   TEWEN  =    -33935.37706504
  -Hartree energ DENC   =    -20795.55426264
  -exchange      EXHF   =         0.00000000
  -V(xc)+E(xc)   XCENC  =      2337.95487048
  PAW double counting   =     59236.62891024   -61548.14311650
  entropy T*S    EENTRO =        -0.11782867
  eigenvalues    EBANDS =     -2352.36687761
  atomic energy  EATOM  =     55137.21312455
  Solvation  Ediel_sol  =         0.00000000
  ---------------------------------------------------
  free energy    TOTEN  =      -456.61151438 eV

  energy without entropy =     -456.49368571  energy(sigma->0) =     -456.55260004


--------------------------------------------------------------------------------------------------------




--------------------------------------- Iteration      1(  21)  ---------------------------------------


    POTLOK:  cpu time    0.4266: real time    0.4276
    SETDIJ:  cpu time    0.0338: real time    0.0339
     EDDAV:  cpu time  330.3903: real time  331.1705
    CHARGE:  cpu time   12.9249: real time   12.9555
    MIXING:  cpu time    0.0143: real time    0.0143
    --------------------------------------------
      LOOP:  cpu time  343.7899: real time  344.6018

 eigenvalue-minimisations  : 43600
 total energy-change (2. order) :-0.1666054E+00  (-0.1229441E+00)
 number of electron     608.0000022 magnetization      38.2421535
 augmentation part      224.6902050 magnetization      24.7636033

 Broyden mixing:
  rms(total) = 0.11734E+01    rms(broyden)= 0.11732E+01
  rms(prec ) = 0.14378E+01
  weight for this iteration     100.00

 eigenvalues of (default mixing * dielectric matrix)
  average eigenvalue GAMMA=   0.3832
  1.7858  0.8009  0.8009  0.4920  0.4920  0.4015  0.2723  0.2723  0.1388  0.1388
  0.1048  0.1048  0.0857  0.0857  0.0854  0.0701

 Free energy of the ion-electron system (eV)
  ---------------------------------------------------
  alpha Z        PSCENC =      1463.15073082
  Ewald energy   TEWEN  =    -33935.37706504
  -Hartree energ DENC   =    -20793.34827140
  -exchange      EXHF   =         0.00000000
  -V(xc)+E(xc)   XCENC  =      2337.58237396
  PAW double counting   =     59309.28407510   -61619.70085026
  entropy T*S    EENTRO =        -0.11927616
  eigenvalues    EBANDS =     -2355.46296131
  atomic energy  EATOM  =     55137.21312455
  Solvation  Ediel_sol  =         0.00000000
  ---------------------------------------------------
  free energy    TOTEN  =      -456.77811976 eV

  energy without entropy =     -456.65884359  energy(sigma->0) =     -456.71848168


--------------------------------------------------------------------------------------------------------




--------------------------------------- Iteration      1(  22)  ---------------------------------------


    POTLOK:  cpu time    0.4323: real time    0.4333
    SETDIJ:  cpu time    0.0346: real time    0.0347
     EDDAV:  cpu time  329.8748: real time  330.6538
    CHARGE:  cpu time   12.9876: real time   13.0183
    MIXING:  cpu time    0.0153: real time    0.0153
    --------------------------------------------
      LOOP:  cpu time  343.3446: real time  344.1554

 eigenvalue-minimisations  : 43504
 total energy-change (2. order) :-0.1077438E+01  (-0.1500861E+00)
 number of electron     608.0000021 magnetization      37.2604479
 augmentation part      224.6521209 magnetization      24.2043034

 Broyden mixing:
  rms(total) = 0.14712E+01    rms(broyden)= 0.14710E+01
  rms(prec ) = 0.20326E+01
  weight for this iteration     100.00

 eigenvalues of (default mixing * dielectric matrix)
  average eigenvalue GAMMA=   0.3876
  1.7710  0.8978  0.8978  0.5122  0.4846  0.4846  0.2833  0.2833  0.1634  0.1295
  0.1295  0.1284  0.0868  0.0868  0.0935  0.0844  0.0719

 Free energy of the ion-electron system (eV)
  ---------------------------------------------------
  alpha Z        PSCENC =      1463.15073082
  Ewald energy   TEWEN  =    -33935.37706504
  -Hartree energ DENC   =    -20791.01171719
  -exchange      EXHF   =         0.00000000
  -V(xc)+E(xc)   XCENC  =      2336.99425363
  PAW double counting   =     59406.02130782   -61713.31636283
  entropy T*S    EENTRO =        -0.12092556
  eigenvalues    EBANDS =     -2361.40890436
  atomic energy  EATOM  =     55137.21312455
  Solvation  Ediel_sol  =         0.00000000
  ---------------------------------------------------
  free energy    TOTEN  =      -457.85555817 eV

  energy without entropy =     -457.73463261  energy(sigma->0) =     -457.79509539


--------------------------------------------------------------------------------------------------------




--------------------------------------- Iteration      1(  23)  ---------------------------------------


    POTLOK:  cpu time    0.4364: real time    0.4374
    SETDIJ:  cpu time    0.0343: real time    0.0344
     EDDAV:  cpu time  332.8048: real time  333.5905
    CHARGE:  cpu time   12.9806: real time   13.0114
    MIXING:  cpu time    0.0152: real time    0.0152
    --------------------------------------------
      LOOP:  cpu time  346.2713: real time  347.0890

 eigenvalue-minimisations  : 43968
 total energy-change (2. order) :-0.2157974E+00  (-0.1586284E+00)
 number of electron     608.0000022 magnetization      35.4752373
 augmentation part      224.6169165 magnetization      22.4378763

 Broyden mixing:
  rms(total) = 0.14139E+01    rms(broyden)= 0.14137E+01
  rms(prec ) = 0.18628E+01
  weight for this iteration     100.00

 eigenvalues of (default mixing * dielectric matrix)
  average eigenvalue GAMMA=   0.4129
  1.7610  1.1680  1.1680  0.6280  0.4651  0.4651  0.3118  0.3118  0.2624  0.1349
  0.1349  0.1118  0.0869  0.0869  0.0972  0.0901  0.0779  0.0704

 Free energy of the ion-electron system (eV)
  ---------------------------------------------------
  alpha Z        PSCENC =      1463.15073082
  Ewald energy   TEWEN  =    -33935.37706504
  -Hartree energ DENC   =    -20791.24163449
  -exchange      EXHF   =         0.00000000
  -V(xc)+E(xc)   XCENC  =      2336.79184813
  PAW double counting   =     59446.60155908   -61752.50435318
  entropy T*S    EENTRO =        -0.11479784
  eigenvalues    EBANDS =     -2362.59076757
  atomic energy  EATOM  =     55137.21312455
  Solvation  Ediel_sol  =         0.00000000
  ---------------------------------------------------
  free energy    TOTEN  =      -458.07135554 eV

  energy without entropy =     -457.95655770  energy(sigma->0) =     -458.01395662


--------------------------------------------------------------------------------------------------------




--------------------------------------- Iteration      1(  24)  ---------------------------------------


    POTLOK:  cpu time    0.4238: real time    0.4248
    SETDIJ:  cpu time    0.0336: real time    0.0337
     EDDAV:  cpu time  311.9204: real time  312.6570
    CHARGE:  cpu time   13.3856: real time   13.4173
    MIXING:  cpu time    0.0159: real time    0.0159
    --------------------------------------------
      LOOP:  cpu time  325.7794: real time  326.5487

 eigenvalue-minimisations  : 40432
 total energy-change (2. order) :-0.2829271E+00  (-0.1313082E+00)
 number of electron     608.0000022 magnetization      34.7267678
 augmentation part      224.5894322 magnetization      22.0717483

 Broyden mixing:
  rms(total) = 0.12735E+01    rms(broyden)= 0.12733E+01
  rms(prec ) = 0.17779E+01
  weight for this iteration     100.00

 eigenvalues of (default mixing * dielectric matrix)
  average eigenvalue GAMMA=   0.4061
  1.7210  1.2406  1.2406  0.6436  0.4649  0.4649  0.3206  0.3206  0.2669  0.1529
  0.1336  0.1336  0.1030  0.1030  0.0858  0.0858  0.0856  0.0770  0.0719

 Free energy of the ion-electron system (eV)
  ---------------------------------------------------
  alpha Z        PSCENC =      1463.15073082
  Ewald energy   TEWEN  =    -33935.37706504
  -Hartree energ DENC   =    -20791.76769751
  -exchange      EXHF   =         0.00000000
  -V(xc)+E(xc)   XCENC  =      2336.53739935
  PAW double counting   =     59520.49058066   -61824.28089803
  entropy T*S    EENTRO =        -0.11465393
  eigenvalues    EBANDS =     -2364.20580348
  atomic energy  EATOM  =     55137.21312455
  Solvation  Ediel_sol  =         0.00000000
  ---------------------------------------------------
  free energy    TOTEN  =      -458.35428261 eV

  energy without entropy =     -458.23962869  energy(sigma->0) =     -458.29695565


--------------------------------------------------------------------------------------------------------




--------------------------------------- Iteration      1(  25)  ---------------------------------------


    POTLOK:  cpu time    0.4242: real time    0.4252
    SETDIJ:  cpu time    0.0347: real time    0.0347
     EDDAV:  cpu time  342.3673: real time  343.1760
    CHARGE:  cpu time   13.4068: real time   13.4385
    MIXING:  cpu time    0.0170: real time    0.0171
    --------------------------------------------
      LOOP:  cpu time  356.2501: real time  357.0915

 eigenvalue-minimisations  : 44912
 total energy-change (2. order) : 0.2872205E+00  (-0.8518985E-01)
 number of electron     608.0000022 magnetization      33.9414718
 augmentation part      224.5728099 magnetization      21.2686090

 Broyden mixing:
  rms(total) = 0.72898E+00    rms(broyden)= 0.72877E+00
  rms(prec ) = 0.94142E+00
  weight for this iteration     100.00

 eigenvalues of (default mixing * dielectric matrix)
  average eigenvalue GAMMA=   0.4266
  1.6733  1.4636  1.4636  0.5594  0.5594  0.4621  0.4621  0.3765  0.2925  0.2446
  0.1364  0.1364  0.1069  0.1069  0.0863  0.0863  0.0891  0.0834  0.0735  0.0703

[...]
   0.137E+03 0.125E+03 0.263E+02   -.147E+03 -.132E+03 -.278E+02   0.102E+02 0.744E+01 0.252E+01   -.849E-01 -.554E-01 0.405E-01
   0.477E+02 -.124E+03 -.165E+02   -.519E+02 0.137E+03 0.138E+02   0.361E+01 -.146E+02 0.340E+01   0.326E-01 0.117E-01 0.239E+00
   -.110E+03 0.121E+03 -.151E+03   0.118E+03 -.129E+03 0.159E+03   -.100E+02 0.844E+01 -.839E+01   -.596E-01 -.236E-01 0.617E-01
   0.479E+02 -.132E+03 0.127E+03   -.537E+02 0.142E+03 -.133E+03   0.715E+01 -.860E+01 0.664E+01   -.183E+00 -.301E+00 0.122E-01
   0.401E+02 0.673E+02 0.251E+03   -.422E+02 -.728E+02 -.272E+03   0.126E+01 0.793E+01 0.154E+02   0.238E+00 -.385E-01 -.106E+00
   -.159E+03 -.812E+02 -.668E+02   0.173E+03 0.859E+02 0.763E+02   -.153E+02 -.561E+01 -.104E+02   -.101E+00 -.401E-01 -.338E-01
   0.167E+03 0.168E+02 0.291E+02   -.184E+03 -.180E+02 -.303E+02   0.166E+02 0.314E+01 0.277E+01   0.367E-01 0.993E-01 0.694E-01
   0.103E+03 -.176E+03 0.319E+02   -.117E+03 0.188E+03 -.369E+02   0.103E+02 -.115E+02 0.627E+01   0.256E+00 0.731E-02 -.692E-01
   -.231E+03 -.178E+02 -.111E+03   0.254E+03 0.157E+02 0.121E+03   -.196E+02 0.540E+01 -.977E+01   -.150E+00 -.140E+00 -.586E-01
   0.127E+03 -.808E+02 0.192E+03   -.135E+03 0.852E+02 -.203E+03   0.849E+01 -.505E+01 0.978E+01   0.203E+00 0.148E+00 -.181E+00
   -.250E+02 0.140E+03 0.305E+02   0.253E+02 -.155E+03 -.290E+02   0.123E+00 0.170E+02 -.144E+01   -.662E-02 0.184E+00 0.492E-01
   -.648E+02 -.268E+03 -.453E+02   0.669E+02 0.295E+03 0.562E+02   -.467E+01 -.184E+02 -.974E+01   -.139E+00 0.104E+00 0.235E-01
   0.110E+03 0.822E+02 0.117E+03   -.119E+03 -.931E+02 -.126E+03   0.109E+02 0.109E+02 0.742E+01   -.864E-01 -.401E-01 0.119E+00
   0.120E+03 -.970E+02 0.330E+02   -.133E+03 0.109E+03 -.350E+02   0.762E+01 -.103E+02 0.369E+01   -.165E+00 0.471E-01 0.151E+00
   -.140E+03 0.100E+03 -.143E+03   0.150E+03 -.109E+03 0.156E+03   -.119E+02 0.942E+01 -.150E+02   0.725E-01 -.769E-01 0.829E-01
   0.445E+02 -.943E+02 0.240E+02   -.499E+02 0.100E+03 -.276E+02   0.631E+01 -.622E+01 0.405E+01   0.150E-01 -.765E-01 -.983E-01
   0.315E+02 0.882E+02 0.107E+03   -.334E+02 -.936E+02 -.122E+03   0.225E+01 0.653E+01 0.126E+02   0.395E-01 -.152E-01 -.174E+00
   -.118E+03 -.182E+03 -.183E+03   0.129E+03 0.199E+03 0.192E+03   -.125E+02 -.154E+02 -.851E+01   -.428E-01 -.836E-01 -.505E-01
   0.640E+02 0.101E+03 -.782E+02   -.720E+02 -.111E+03 0.835E+02   0.910E+01 0.948E+01 -.519E+01   0.377E-01 0.756E-01 -.336E-02
   -.632E+02 -.182E+03 -.414E+02   0.670E+02 0.195E+03 0.412E+02   -.442E+01 -.137E+02 0.429E+00   -.420E-01 0.231E-01 0.137E+00
   -.993E+02 0.454E+02 -.153E+03   0.107E+03 -.530E+02 0.161E+03   -.903E+01 0.888E+01 -.927E+01   0.840E-01 -.753E-01 0.575E-01
   0.741E+02 -.145E+03 -.296E+02   -.775E+02 0.155E+03 0.325E+02   0.395E+01 -.849E+01 -.164E+01   -.593E-01 -.828E-01 -.974E-01
   -.128E+02 0.627E+02 0.236E+02   0.125E+02 -.705E+02 -.326E+02   0.347E+00 0.882E+01 0.908E+01   -.678E-02 0.188E-01 -.539E-01
   -.189E+03 -.112E+03 -.213E+03   0.208E+03 0.117E+03 0.228E+03   -.172E+02 -.727E+01 -.142E+02   0.467E-01 -.136E+00 -.986E-01
   0.155E+03 -.772E+02 0.145E+02   -.167E+03 0.816E+02 -.118E+02   0.103E+02 -.190E+01 -.134E+01   -.252E-01 -.493E-01 0.210E+00
   0.124E+03 -.146E+03 -.631E+02   -.133E+03 0.160E+03 0.646E+02   0.693E+01 -.141E+02 -.703E-01   -.423E-01 0.699E-01 -.297E-01
   -.181E+03 0.514E+02 -.138E+03   0.195E+03 -.565E+02 0.147E+03   -.155E+02 0.643E+01 -.103E+02   -.458E-01 0.944E-01 -.802E-02
 -----------------------------------------------------------------------------------------------
   0.596E+02 0.769E+02 0.272E+02   -.625E-12 0.284E-12 0.117E-11   -.593E+02 -.775E+02 -.265E+02   -.266E+00 0.538E+00 -.745E+00
 
 
 POSITION                                       TOTAL-FORCE (eV/Angst)
 -----------------------------------------------------------------------------------
      7.01789      5.15381      2.42531         0.289962     -1.427857      0.490218
      5.41954      2.22383      2.53280         0.866338      0.748891     -1.021656
     -2.86852      3.49029     10.08143         0.481851     -3.499975     -1.411689
      2.46695      0.37428      0.02293         0.428375     -0.305254     -0.355981
      2.47691      2.13178      2.51690        -1.342688     -0.263512      0.463052
      0.62060      5.22562      2.45003         5.215193     -2.303781      4.114274
      8.73561      0.47866      0.22989        -0.229899      0.847900      0.330807
      6.85409      3.53451      0.11425        -0.672760    -14.239887     -6.515241
      3.79818      5.02892      7.36473        -0.633682     -0.075993      5.320516
      2.24014      2.20348      7.60412        -0.379026      0.284301      0.366305
      0.67393      3.36429      5.06867         0.151260     -0.452002     -0.023751
     -0.95233      0.43172      4.85730         0.667134     -0.657887      1.219986
     -0.93126      2.37814      7.54369        -1.337287     -2.250359     -0.147275
     -2.62129      5.15459      7.51767         1.738069     -0.027600     -0.133555
      5.35171      0.71738      5.01186        -0.279565     -3.894502     -0.584034
      3.75866      3.29488      5.03614         0.920233     -0.364164      0.235321
      7.12539     10.56893      2.56226         0.109362      0.141534     -0.286151
      5.51693      8.07133      2.80639        -1.378215     -3.239582     -1.835387
     -2.83103      8.89912     10.25666         1.149044      0.416814     -0.246044
      2.39539      6.04120      0.01367         0.686673     -0.606599     -0.157421
      2.18389      7.80326      2.30722        -0.206646     -0.351860      3.137216
      0.88719     10.60296      2.39904         0.514953      0.276673      5.483225
      8.72657      6.07414      0.20316         1.761086     -7.769815     -2.626715
      0.30148      8.86698     10.25942         0.183386     -1.336164     -0.441147
      3.64778     10.75955      7.69638         1.814595     -2.051462     -0.941585
      2.08060      7.69805      7.36641         0.537603      1.305898      1.102620
      0.58718      9.07081      4.96776         0.322828     -2.927260      0.362649
     -1.04551      6.17611      4.84696         0.527801     -1.941915      0.614537
     -1.13513      7.92754      7.60072         2.981880     -2.437648     -1.055054
     -2.65060     10.79730      7.53601         1.027413      0.889401      2.408340
      5.44806      6.17678      5.15332        -0.003222     -0.133835     -0.412506
      3.95535      8.72096      5.01947        -2.610355      2.171703     -0.202877
      7.08120      4.82976      0.69892         3.342894     12.864501      4.905658
      0.73022      5.26677      0.87255         0.384892      1.071422     -6.172259
      3.84945      4.84741      0.67599        -1.524357      3.236178      0.434099
      5.64292      0.58433      3.19499         0.718754     -0.825305      0.599949
      3.87957      2.97616      3.20781         0.439539     -0.101477      0.589467
      6.73146      3.33763      2.83555        -0.150357      0.977506      0.129709
      2.52984      2.17097      0.68204         0.461582     -0.419637     -0.675369
      5.44246      2.50967      0.61773        -0.425845      0.739882      0.188831
      8.57064      2.44737      0.62465        -1.191656     -1.934682     -1.174379
      1.03689      3.26749      3.31657         0.268700      0.525135     -0.211177
     -0.75777      0.21614      3.12872        -0.726297     -1.308205     -0.295142
      2.22074      0.51977      3.14308        -1.158814     -0.509935     -1.182793
      3.83141      5.01787      5.74668         1.209207     -0.314502     -4.096338
     -2.58894      5.42274      5.62744        -0.120772      0.795106     -0.012447
      0.36792      5.02167      5.39706        -1.316468     -0.065681     -0.502454
      2.38415      0.42963      8.11853        -0.551334      1.185962      1.067291
      0.49645      3.01829      8.22016         1.378208     -0.196367      0.846847
      3.62337      3.15346      8.11822        -0.451090      1.399685     -0.843144
     -0.71971      2.02796      5.76535         0.490426     -0.032831     -0.399485
      2.16424      2.53705      5.74803         0.263767      0.461027      0.468922
      5.43295      2.24521      5.50317        -1.571733      2.750519      0.374028
     -2.37586      3.39743      8.03755         0.261585      0.055410      1.072578
     -4.20552      0.23671      8.13504        -0.521462     -1.346635      0.946154
     -1.09741      0.55810      8.04505        -1.680586      0.690451     -0.821790
      7.25539     10.53182      0.62871         1.162697      0.499615      0.823509
      0.70512     10.85463      0.84316        -0.583239      2.399815     -5.495434
      3.83609     10.71525      0.47010        -1.175359     -0.968285     -0.966180
      5.69129      6.00190      3.06848        -0.566339      2.048384      1.677838
      3.95094      8.59346      2.96731        -2.516443     -0.065502      1.148723
      6.89649      8.80750      3.07285         3.307497      3.243156      0.274875
      2.50133      7.87820      0.64749         0.572021     -0.518305     -1.954281
      5.39497      7.90671      0.54767         0.395513      1.741760      0.083235
      8.46020      7.51229      0.55469        -2.647734      8.247376      1.234842
      0.67591      8.95532      3.19236         1.293978     -0.042005     -0.770845
     -0.67157      5.85610      3.11623        -5.021610      1.547461      1.891273
      2.17231      6.20438      3.19681        -1.368301      0.666029     -1.510606
      3.97494     10.54287      5.66376         0.956863     -0.116044      0.338200
     -2.49310     10.98694      5.87874         0.406867      1.173324     -2.327709
      0.56907     10.66721      5.27760        -1.629281      2.440647      0.199445
      2.29032      6.10981      8.16547         1.115623     -0.534246      0.157983
      0.54843      8.65181      8.12596        -0.587526     -1.170821      0.397953
      3.59025      8.88127      8.18286        -1.173163      1.251035     -1.281130
     -0.73832      7.71432      5.50501         0.520458      1.638070      1.247490
      2.16900      8.07750      5.57636         0.021180      0.979142      0.072606
      5.27579      7.92359      5.58788         1.529106     -2.105132      0.212504
     -2.26040      8.87336      8.32954        -2.147434      2.497091      1.555363
     -4.04905      5.90608      8.14461        -2.035385     -0.464897      1.363840
     -1.17014      6.07067      8.04220        -0.960465      1.390596     -0.861247
 -----------------------------------------------------------------------------------
    total drift:                               -0.001965     -0.004717      0.009696


--------------------------------------------------------------------------------------------------------



  FREE ENERGIE OF THE ION-ELECTRON SYSTEM (eV)
  ---------------------------------------------------
  free  energy   TOTEN  =      -458.5236417004 eV

  energy  without entropy=     -458.4177409878  energy(sigma->0) =     -458.47069134
 


--------------------------------------------------------------------------------------------------------


    POTLOK:  cpu time    0.4727: real time    0.4806


--------------------------------------------------------------------------------------------------------


     LOOP+:  cpu time26578.8654: real time26643.4193
    4ORBIT:  cpu time    0.0000: real time    0.0000

volume of typ            1:    17.9 %

volume of typ            2:     6.9 %
 
total charge     
 
# of ion       s       p       d       tot
------------------------------------------
    1        0.275   0.307   7.897   8.479
    2        0.282   0.338   7.826   8.446
    3        0.261   0.275   7.865   8.401
    4        0.226   0.213   7.830   8.269
    5        0.284   0.338   7.808   8.430
    6        0.347   0.429   7.913   8.689
    7        0.184   0.144   7.860   8.188
    8        0.337   0.405   7.977   8.719
    9        0.262   0.274   7.882   8.417
   10        0.264   0.291   7.826   8.381
   11        0.282   0.326   7.835   8.443
   12        0.254   0.267   7.847   8.368
   13        0.294   0.345   7.820   8.459
   14        0.293   0.347   7.810   8.451
   15        0.281   0.284   7.877   8.441
   16        0.240   0.253   7.844   8.337
   17        0.208   0.190   7.877   8.275
   18        0.318   0.384   7.895   8.597
   19        0.243   0.255   7.836   8.334
   20        0.195   0.176   7.896   8.266
   21        0.267   0.285   7.874   8.426
   22        0.296   0.338   7.859   8.493
   23        0.294   0.311   7.963   8.567
   24        0.224   0.213   7.828   8.264
   25        0.251   0.253   7.798   8.302
   26        0.258   0.274   7.792   8.324
   27        0.296   0.347   7.859   8.502
   28        0.283   0.332   7.853   8.467
   29        0.276   0.303   7.858   8.438
   30        0.264   0.275   7.833   8.372
   31        0.228   0.225   7.875   8.328
   32        0.270   0.295   7.858   8.423
   33        1.284   2.836   0.025   4.145
   34        1.270   2.774   0.012   4.057
   35        1.286   2.711   0.010   4.007
   36        1.268   2.729   0.007   4.004
   37        1.271   2.756   0.010   4.036
   38        1.284   2.701   0.007   3.991
   39        1.265   2.728   0.006   3.999
   40        1.276   2.709   0.006   3.991
   41        1.293   2.612   0.002   3.907
   42        1.279   2.695   0.006   3.979
   43        1.280   2.691   0.006   3.978
   44        1.287   2.672   0.006   3.964
   45        1.270   2.768   0.012   4.050
   46        1.270   2.728   0.007   4.005
   47        1.286   2.695   0.007   3.988
   48        1.269   2.736   0.008   4.012
   49        1.279   2.709   0.007   3.995
   50        1.285   2.674   0.006   3.965
   51        1.273   2.719   0.007   3.999
   52        1.270   2.736   0.007   4.014
   53        1.288   2.708   0.010   4.006
   54        1.268   2.725   0.006   4.000
   55        1.278   2.673   0.004   3.955
   56        1.291   2.637   0.004   3.932
   57        1.265   2.722   0.006   3.993
   58        1.275   2.751   0.011   4.038
   59        1.282   2.680   0.006   3.968
   60        1.278   2.709   0.007   3.995
   61        1.280   2.730   0.009   4.019
   62        1.280   2.752   0.012   4.044
   63        1.263   2.772   0.011   4.046
   64        1.284   2.666   0.005   3.954
   65        1.288   2.747   0.015   4.050
   66        1.272   2.729   0.008   4.009
   67        1.278   2.780   0.014   4.072
   68        1.290   2.656   0.005   3.951
   69        1.276   2.668   0.003   3.947
   70        1.280   2.708   0.008   3.996
   71        1.290   2.701   0.010   4.000
   72        1.274   2.694   0.005   3.973
   73        1.278   2.680   0.005   3.963
   74        1.289   2.624   0.003   3.916
   75        1.273   2.729   0.008   4.009
   76        1.271   2.717   0.006   3.995
   77        1.282   2.733   0.011   4.026
   78        1.272   2.742   0.009   4.024
   79        1.277   2.701   0.006   3.984
   80        1.286   2.679   0.006   3.971
--------------------------------------------------
tot          69.89  139.48  251.85  461.22
 
magnetization (x)
 
# of ion       s       p       d       tot
------------------------------------------
    1       -0.001  -0.005  -0.342  -0.348
    2        0.001   0.010   0.717   0.728
    3        0.016   0.027   1.264   1.308
    4        0.007   0.015   1.258   1.280
    5        0.001   0.020   1.171   1.191
    6        0.001   0.017   0.503   0.521
    7        0.006   0.008   1.298   1.311
    8       -0.007  -0.002   0.167   0.158
    9        0.004   0.018   0.950   0.973
   10        0.004   0.016   1.001   1.021
   11        0.001   0.005   0.424   0.430
   12       -0.000   0.000   0.048   0.048
   13        0.000  -0.004  -0.046  -0.050
   14        0.001   0.021   1.064   1.086
   15        0.008   0.015   0.861   0.884
   16       -0.001  -0.008  -0.906  -0.914
   17       -0.001  -0.008  -1.007  -1.016
   18        0.003   0.001   0.365   0.368
   19        0.003   0.012   0.713   0.727
   20        0.001   0.013   1.011   1.025
   21        0.004   0.015   0.656   0.676
   22       -0.010  -0.019  -0.966  -0.995
   23        0.021   0.018   0.856   0.895
   24        0.002   0.017   1.247   1.267
   25        0.005   0.022   1.402   1.429
   26        0.003   0.020   1.325   1.349
   27       -0.001   0.002   0.221   0.222
   28        0.000  -0.004  -0.388  -0.392
   29       -0.002  -0.003  -0.117  -0.122
   30        0.003   0.017   1.057   1.077
   31        0.004   0.011   0.899   0.914
   32        0.004   0.012   0.792   0.808
   33        0.002  -0.021   0.000  -0.018
   34        0.007   0.156   0.000   0.164
   35        0.010   0.480   0.000   0.491
   36        0.004   0.066   0.000   0.070
   37        0.004   0.100   0.000   0.104
   38        0.004   0.127   0.000   0.131
   39        0.013   0.313   0.000   0.327
   40        0.007   0.174   0.000   0.181
   41        0.011   0.552  -0.000   0.563
   42        0.006   0.179   0.000   0.185
   43       -0.006  -0.183   0.000  -0.189
   44        0.006   0.297   0.000   0.303
   45        0.003   0.076   0.000   0.080
   46        0.006   0.132   0.000   0.138
   47        0.002   0.094   0.000   0.095
   48        0.010   0.287   0.000   0.298
   49        0.003   0.072  -0.000   0.075
   50        0.011   0.454   0.000   0.464
   51        0.002   0.040   0.000   0.042
   52        0.002  -0.008   0.000  -0.006
   53        0.003   0.180   0.000   0.183
   54        0.006   0.109   0.000   0.115
   55        0.012   0.376   0.000   0.388
   56        0.007   0.282  -0.000   0.288
   57        0.003   0.122   0.000   0.126
   58        0.000  -0.065  -0.001  -0.066
   59        0.010   0.422   0.000   0.432
   60        0.003   0.068  -0.000   0.071
   61        0.006   0.188   0.000   0.194
   62       -0.003  -0.125   0.000  -0.128
   63        0.006   0.107   0.000   0.113
   64        0.010   0.353   0.000   0.363
   65        0.009   0.406   0.000   0.416
   66        0.001  -0.045   0.000  -0.044
   67        0.000  -0.016   0.000  -0.015
   68        0.008   0.362   0.000   0.370
   69        0.010   0.246   0.000   0.256
   70        0.007   0.265   0.000   0.272
   71        0.003   0.112   0.000   0.115
   72        0.010   0.304   0.000   0.315
   73        0.007   0.232   0.000   0.239
   74        0.014   0.619   0.000   0.633
   75       -0.001  -0.065  -0.000  -0.067
   76        0.007   0.177   0.000   0.185
   77        0.007   0.301   0.000   0.309
   78        0.004   0.037   0.000   0.041
   79        0.010   0.333   0.000   0.343
   80        0.006   0.225   0.000   0.230
--------------------------------------------------
tot           0.35    9.18   17.50   27.03
 

 total amount of memory used by VASP MPI-rank0   631876. kBytes
=======================================================================

   base      :      30000. kBytes
   nonlr-proj:      48958. kBytes
   fftplans  :      11488. kBytes
   grid      :      65714. kBytes
   one-center:       2488. kBytes
   wavefun   :     473228. kBytes
 
  
  
 General timing and accounting informations for this job:
 ========================================================
  
                  Total CPU time used (sec):    26797.152
                            User time (sec):    26762.670
                          System time (sec):       34.482
                         Elapsed time (sec):    26867.099
  
                   Maximum memory used (kb):      742796.
                   Average memory used (kb):           0.
  
                          Minor page faults:        45889
                          Major page faults:           22
                 Voluntary context switches:         1203
