 vasp.5.4.4.18Apr17-6-g9f103f2a35 (build May 12 2020 04:58:55) complex          
  
 MD_VERSION_INFO: Compiled 2020-05-12T11:58:55-UTC in devlin.sd.materialsdesign.
 com:/home/medea2/data/build/wwolf/vasp-gpu5.4.4/13047/x86_64/src/src/build/std 
 from svn 13047
 
 This VASP executable licensed from Materials Design, Inc.
 
 executed on                        Lin64 date 2023.03.25  16:15:19
 running on   16 total cores
 distrk:  each k-point on   16 cores,    1 groups
 distr:  one band on NCORES_PER_BAND=   1 cores,   16 groups


--------------------------------------------------------------------------------------------------------


 INCAR:
 POTCAR:    PAW_PBE Ni 02Aug2007                  
 POTCAR:    PAW_PBE O 08Apr2002                   

 ----------------------------------------------------------------------------- 
|                                                                             |
|           W    W    AA    RRRRR   N    N  II  N    N   GGGG   !!!           |
|           W    W   A  A   R    R  NN   N  II  NN   N  G    G  !!!           |
|           W    W  A    A  R    R  N N  N  II  N N  N  G       !!!           |
|           W WW W  AAAAAA  RRRRR   N  N N  II  N  N N  G  GGG   !            |
|           WW  WW  A    A  R   R   N   NN  II  N   NN  G    G                |
|           W    W  A    A  R    R  N    N  II  N    N   GGGG   !!!           |
|                                                                             |
|      For optimal performance we recommend to set                            |
|        NCORE= 4 - approx SQRT( number of cores)                             |
|      NCORE specifies how many cores store one orbital (NPAR=cpu/NCORE).     |
|      This setting can  greatly improve the performance of VASP for DFT.     |
|      The default,   NCORE=1            might be grossly inefficient         |
|      on modern multi-core architectures or massively parallel machines.     |
|      Do your own testing !!!!                                               |
|      Unfortunately you need to use the default for GW and RPA calculations. |
|      (for HF NCORE is supported but not extensively tested yet)             |
|                                                                             |
 ----------------------------------------------------------------------------- 

 POTCAR:    PAW_PBE Ni 02Aug2007                  
  local pseudopotential read in
  partial core-charges read in
  partial kinetic energy density read in
  atomic valenz-charges read in
  non local Contribution for L=           2  read in
    real space projection operators read in
  non local Contribution for L=           2  read in
    real space projection operators read in
  non local Contribution for L=           0  read in
    real space projection operators read in
  non local Contribution for L=           0  read in
    real space projection operators read in
  non local Contribution for L=           1  read in
    real space projection operators read in
  non local Contribution for L=           1  read in
    real space projection operators read in
    PAW grid and wavefunctions read in
 
   number of l-projection  operators is LMAX  =           6
   number of lm-projection operators is LMMAX =          18
 
 POTCAR:    PAW_PBE O 08Apr2002                   
  local pseudopotential read in
  partial core-charges read in
  partial kinetic energy density read in
  kinetic energy density of atom read in
  atomic valenz-charges read in
  non local Contribution for L=           0  read in
    real space projection operators read in
  non local Contribution for L=           0  read in
    real space projection operators read in
  non local Contribution for L=           1  read in
    real space projection operators read in
  non local Contribution for L=           1  read in
    real space projection operators read in
    PAW grid and wavefunctions read in
 
   number of l-projection  operators is LMAX  =           4
   number of lm-projection operators is LMMAX =           8
 
 Optimization of the real space projectors (new method)

 maximal supplied QI-value         = 16.25
 optimisation between [QCUT,QGAM] = [ 11.38, 22.75] = [ 36.24,144.96] Ry 
 Optimized for a Real-space Cutoff    1.47 Angstroem

   l    n(q)    QCUT    max X(q) W(low)/X(q) W(high)/X(q)  e(spline) 
   2      9    11.376    60.317    0.17E-03    0.16E-04    0.16E-06
   2      9    11.376    55.921    0.17E-03    0.16E-04    0.17E-06
   0     10    11.376    51.690    0.45E-04    0.60E-04    0.21E-06
   0     10    11.376    30.015    0.37E-04    0.55E-04    0.19E-06
   1     10    11.376    18.849    0.83E-04    0.11E-03    0.92E-07
   1     10    11.376    14.624    0.69E-04    0.92E-04    0.82E-07
 Optimization of the real space projectors (new method)

 maximal supplied QI-value         = 24.76
 optimisation between [QCUT,QGAM] = [ 11.39, 22.77] = [ 36.31,145.25] Ry 
 Optimized for a Real-space Cutoff    1.10 Angstroem

   l    n(q)    QCUT    max X(q) W(low)/X(q) W(high)/X(q)  e(spline) 
   0      7    11.387    20.381    0.22E-03    0.48E-03    0.18E-06
   0      7    11.387    15.268    0.22E-03    0.52E-03    0.19E-06
   1      7    11.387     5.964    0.22E-03    0.73E-03    0.24E-06
   1      7    11.387     5.382    0.19E-03    0.60E-03    0.21E-06

 ----------------------------------------------------------------------------- 
|                                                                             |
|  ADVICE TO THIS USER RUNNING 'VASP/VAMP'   (HEAR YOUR MASTER'S VOICE ...):  |
|                                                                             |
|      You enforced a specific xc-type in the INCAR file,                     |
|      a different type was found on the POTCAR file                          |
|          I HOPE YOU KNOW, WHAT YOU ARE  DOING                               |
|                                                                             |
 ----------------------------------------------------------------------------- 

  PAW_PBE Ni 02Aug2007                  :
 energy of atom  1       EATOM=-1077.6739
 kinetic energy error for atom=    0.0030 (will be added to EATOM!!)
  PAW_PBE O 08Apr2002                   :
 energy of atom  2       EATOM= -432.3788
 kinetic energy error for atom=    0.0224 (will be added to EATOM!!)
 
 
 POSCAR: Ni2O3_Cc_scale_1_025_disp_0_05_round_1  
  positions in direct lattice
  No initial velocities read in
 exchange correlation table for  LEXCH =       14
   RHO(1)=    0.500       N(1)  =     2000
   RHO(2)=  100.500       N(2)  =     4000
 


--------------------------------------------------------------------------------------------------------


 ion  position               nearest neighbor table
   1  0.895  0.439  0.242-  38 1.72  33 1.86  60 1.90  67 2.16   8 2.98  23 3.06
   2  0.726  0.198  0.241-  36 1.75  40 1.83  37 1.89  38 1.96  15 2.96
   3  0.399  0.291  0.992-  35 1.87  40 1.92  39 2.00  54 2.10
   4  0.256  0.044  0.014-  39 1.87  58 1.95  59 2.05  55 2.20   5 2.94
   5  0.405  0.199  0.242-  39 1.79  44 1.85  37 1.86  42 1.88   4 2.94
   6  0.256  0.453  0.254-  68 1.75  67 1.84  34 1.89  42 1.89  11 3.06  28 3.07  21 3.07
   7  0.886  0.048  0.994-  41 1.81  57 2.07  48 2.08  58 2.25
   8  0.739  0.291  0.004-  41 1.82  33 1.87  40 1.93  49 2.24   1 2.98
   9  0.889  0.441  0.736-  50 1.79  72 1.84  45 1.93  79 2.13  16 3.06
  10  0.723  0.205  0.731-  49 1.75  52 1.84  48 1.84  50 1.96
  11  0.384  0.284  0.482-  51 1.71  42 1.88  47 1.90  52 1.94  12 3.05   6 3.06
  12  0.261  0.045  0.503-  51 1.82  71 1.95  43 2.00  70 2.06  13 2.92  11 3.05
  13  0.399  0.197  0.731-  56 1.78  54 1.86  51 1.87  49 1.95  12 2.92
  14  0.257  0.450  0.736-  80 1.76  54 1.84  79 1.89  46 1.89
  15  0.880  0.054  0.480-  53 1.76  36 1.90  69 2.10  70 2.29   2 2.96  16 3.02
  16  0.737  0.284  0.495-  53 1.80  52 1.90  45 1.94  37 1.95  15 3.02   9 3.06
  17  0.886  0.931  0.244-  62 1.86  57 1.89  36 2.07  43 2.24
  18  0.735  0.687  0.249-  60 1.80  62 1.87  61 1.88  64 1.91  31 2.98
  19  0.391  0.770  0.993-  63 1.78  59 1.88  64 1.94  78 2.16
  20  0.237  0.531  0.001-  34 1.78  63 1.89  35 1.91  79 2.18
  21  0.411  0.688  0.252-  61 1.74  68 1.79  66 1.82  63 2.00  32 3.01   6 3.07
  22  0.250  0.938  0.246-  58 1.91  66 1.94  44 1.94  43 2.05
  23  0.884  0.536  0.006-  65 1.73  33 1.76  72 2.22  34 2.26  24 3.04   1 3.06
  24  0.732  0.770  0.002-  65 1.84  64 1.85  57 1.96  73 2.15  23 3.04
  25  0.892  0.926  0.741-  74 1.74  69 2.04  48 2.08  55 2.23  26 3.07
  26  0.739  0.691  0.741-  74 1.75  72 1.87  76 1.88  73 1.91  25 3.07
  27  0.388  0.779  0.489-  75 1.79  71 1.82  66 1.87  76 2.04  29 3.07
  28  0.248  0.526  0.490-  47 1.75  67 1.81  46 1.94  75 1.97   6 3.07
  29  0.410  0.692  0.735-  73 1.75  78 1.82  75 1.82  80 1.93  27 3.07
  30  0.249  0.935  0.735-  78 1.88  70 1.96  56 1.99  55 2.15
  31  0.881  0.535  0.484-  77 1.81  45 1.86  60 1.88  46 2.14  18 2.98
  32  0.725  0.772  0.490-  77 1.85  69 1.86  76 1.88  61 1.93  21 3.01
  33  0.790  0.445  0.063-  23 1.76   1 1.86   8 1.87
  34  0.135  0.467  0.071-  20 1.78   6 1.89  23 2.26
  35  0.433  0.443  0.058-   3 1.87  20 1.91
  36  0.776  0.054  0.297-   2 1.75  15 1.90  17 2.07
  37  0.609  0.269  0.307-   5 1.86   2 1.89  16 1.95
  38  0.919  0.297  0.295-   1 1.72   2 1.96
  39  0.295  0.200  0.068-   5 1.79   4 1.87   3 2.00
  40  0.612  0.222  0.066-   2 1.83   3 1.92   8 1.93
  41  0.914  0.195  0.058-   7 1.81   8 1.82
  42  0.306  0.295  0.305-  11 1.88   5 1.88   6 1.89
  43  0.122  0.025  0.310-  12 2.00  22 2.05  17 2.24
  44  0.431  0.045  0.296-   5 1.85  22 1.94
  45  0.782  0.446  0.550-  31 1.86   9 1.93  16 1.94
  46  0.118  0.463  0.553-  14 1.89  28 1.94  31 2.14
  47  0.423  0.444  0.533-  28 1.75  11 1.90
  48  0.793  0.056  0.796-  10 1.84  25 2.08   7 2.08
  49  0.610  0.270  0.788-  10 1.75  13 1.95   8 2.24
  50  0.926  0.291  0.786-   9 1.79  10 1.96
  51  0.308  0.198  0.552-  11 1.71  12 1.82  13 1.87
  52  0.605  0.225  0.554-  10 1.84  16 1.90  11 1.94
  53  0.915  0.201  0.532-  15 1.76  16 1.80
  54  0.305  0.298  0.793-  14 1.84  13 1.86   3 2.10
  55  0.117  0.031  0.801-  30 2.15   4 2.20  25 2.23
  56  0.429  0.047  0.779-  13 1.78  30 1.99
  57  0.785  0.933  0.062-  17 1.89  24 1.96   7 2.07
  58  0.124  0.955  0.061-  22 1.91   4 1.95   7 2.25
  59  0.436  0.927  0.046-  19 1.88   4 2.05
  60  0.795  0.538  0.305-  18 1.80  31 1.88   1 1.90
  61  0.603  0.747  0.305-  21 1.74  18 1.88  32 1.93
  62  0.922  0.775  0.299-  17 1.86  18 1.87
  63  0.296  0.688  0.059-  19 1.78  20 1.89  21 2.00
  64  0.611  0.710  0.065-  24 1.85  18 1.91  19 1.94
  65  0.916  0.682  0.049-  23 1.73  24 1.84
  66  0.316  0.780  0.313-  21 1.82  27 1.87  22 1.94
  67  0.135  0.512  0.315-  28 1.81   6 1.84   1 2.16
  68  0.431  0.535  0.293-   6 1.75  21 1.79
  69  0.783  0.927  0.544-  32 1.86  25 2.04  15 2.10
  70  0.115  0.951  0.545-  30 1.96  12 2.06  15 2.29
  71  0.430  0.932  0.537-  27 1.82  12 1.95
  72  0.789  0.535  0.795-   9 1.84  26 1.87  23 2.22
  73  0.603  0.753  0.795-  29 1.75  26 1.91  24 2.15
  74  0.908  0.778  0.777-  25 1.74  26 1.75
  75  0.305  0.687  0.559-  27 1.79  29 1.82  28 1.97
  76  0.612  0.704  0.559-  26 1.88  32 1.88  27 2.04
  77  0.911  0.686  0.538-  31 1.81  32 1.85
  78  0.298  0.778  0.788-  29 1.82  30 1.88  19 2.16
  79  0.124  0.509  0.792-  14 1.89   9 2.13  20 2.18
  80  0.437  0.532  0.793-  14 1.76  29 1.93
 
  LATTYP: Found a simple monoclinic cell.
 ALAT       =    16.3463459659
 B/A-ratio  =     0.6987547874
 C/A-ratio  =     1.5833429409
 COS(beta)  =    -0.9717709890
  
  Lattice vectors:
  
 A1 = ( -12.7040962200,   0.0000000000, -10.2863485100)
 A2 = (   0.0000000000, -11.4220875000,   0.0000000000)
 A3 = (  15.7046301900,   0.0000000000,  20.5726970200)


Analysis of symmetry for initial positions (statically):
=====================================================================
 Subroutine PRICEL returns:
 Original cell was already a primitive cell.
 

 Routine SETGRP: Setting up the symmetry group for a 
 simple monoclinic supercell.


 Subroutine GETGRP returns: Found  1 space group operations
 (whereof  1 operations were pure point group operations)
 out of a pool of  4 trial point group operations.


The static configuration has the point symmetry C_1 .


Analysis of symmetry for dynamics (positions and initial velocities):
=====================================================================
 Subroutine PRICEL returns:
 Original cell was already a primitive cell.
 

 Routine SETGRP: Setting up the symmetry group for a 
 simple monoclinic supercell.


 Subroutine GETGRP returns: Found  1 space group operations
 (whereof  1 operations were pure point group operations)
 out of a pool of  4 trial point group operations.


The dynamic configuration has the point symmetry C_1 .


Analysis of structural, dynamic, and magnetic symmetry:
=====================================================================
 Subroutine PRICEL returns:
 Original cell was already a primitive cell.
 

 Routine SETGRP: Setting up the symmetry group for a 
 simple monoclinic supercell.


 Subroutine GETGRP returns: Found  1 space group operations
 (whereof  1 operations were pure point group operations)
 out of a pool of  4 trial point group operations.


The magnetic configuration has the point symmetry C_1 .


 Subroutine INISYM returns: Found  1 space group operations
 (whereof  1 operations are pure point group operations),
 and found     1 'primitive' translations

 
 
 KPOINTS: Automatic mesh                          

Automatic generation of k-mesh.
Space group operators:
 irot       det(A)        alpha          n_x          n_y          n_z        tau_x        tau_y        tau_z
    1     1.000000     0.000000     1.000000     0.000000     0.000000     0.000000     0.000000     0.000000
 
 Subroutine IBZKPT returns following result:
 ===========================================
 
 Found     19 irreducible k-points:
 
 Following reciprocal coordinates:
            Coordinates               Weight
  0.000000  0.000000  0.000000      1.000000
  0.250000  0.000000  0.000000      2.000000
  0.500000  0.000000  0.000000      1.000000
  0.000000  0.333333  0.000000      2.000000
  0.250000  0.333333  0.000000      2.000000
  0.500000  0.333333  0.000000      2.000000
 -0.250000  0.333333 -0.000000      2.000000
  0.000000  0.000000  0.333333      2.000000
  0.250000  0.000000  0.333333      2.000000
  0.500000  0.000000  0.333333      2.000000
 -0.250000  0.000000  0.333333      2.000000
  0.000000  0.333333  0.333333      2.000000
  0.250000  0.333333  0.333333      2.000000
  0.500000  0.333333  0.333333      2.000000
 -0.250000  0.333333  0.333333      2.000000
  0.000000 -0.333333  0.333333      2.000000
  0.250000 -0.333333  0.333333      2.000000
  0.500000 -0.333333  0.333333      2.000000
 -0.250000 -0.333333  0.333333      2.000000
 
 Following cartesian coordinates:
            Coordinates               Weight
  0.000000  0.000000  0.000000      1.000000
  0.025764  0.000000  0.016789      2.000000
  0.051527  0.000000  0.033578      1.000000
  0.000000  0.029183  0.000000      2.000000
  0.025764  0.029183  0.016789      2.000000
  0.051527  0.029183  0.033578      2.000000
 -0.025764  0.029183 -0.016789      2.000000
  0.000000  0.000000  0.032405      2.000000
  0.025764  0.000000  0.049194      2.000000
  0.051527  0.000000  0.065983      2.000000
 -0.025764  0.000000  0.015617      2.000000
  0.000000  0.029183  0.032405      2.000000
  0.025764  0.029183  0.049194      2.000000
  0.051527  0.029183  0.065983      2.000000
 -0.025764  0.029183  0.015617      2.000000
  0.000000 -0.029183  0.032405      2.000000
  0.025764 -0.029183  0.049194      2.000000
  0.051527 -0.029183  0.065983      2.000000
 -0.025764 -0.029183  0.015617      2.000000
 


--------------------------------------------------------------------------------------------------------




 Dimension of arrays:
   k-points           NKPTS =     19   k-points in BZ     NKDIM =     19   number of bands    NBANDS=    416
   number of dos      NEDOS =    301   number of ions     NIONS =     80
   non local maximal  LDIM  =      6   non local SUM 2l+1 LMDIM =     18
   total plane-waves  NPLWV = 544320
   max r-space proj   IRMAX =   6459   max aug-charges    IRDMAX=  15674
   dimension x,y,z NGX =    72 NGY =   84 NGZ =   90
   dimension x,y,z NGXF=   144 NGYF=  168 NGZF=  180
   support grid    NGXF=   144 NGYF=  168 NGZF=  180
   ions per type =              32  48
   NGX,Y,Z   is equivalent  to a cutoff of  12.34, 12.23, 12.19 a.u.
   NGXF,Y,Z  is equivalent  to a cutoff of  24.67, 24.45, 24.37 a.u.

 SYSTEM =  unknown system                          
 POSCAR =  Ni2O3_Cc_scale_1_025_disp_0_05_round_1  

 Startparameter for this run:
   NWRITE =      1    write-flag & timer
   PREC   = accura    normal or accurate (medium, high low for compatibility)
   ISTART =      0    job   : 0-new  1-cont  2-samecut
   ICHARG =      2    charge: 1-file 2-atom 10-const
   ISPIN  =      2    spin polarized calculation?
   LNONCOLLINEAR =      F non collinear calculations
   LSORBIT =      F    spin-orbit coupling
   INIWAV =      1    electr: 0-lowe 1-rand  2-diag
   LASPH  =      F    aspherical Exc in radial PAW
   METAGGA=      F    non-selfconsistent MetaGGA calc.

 Electronic Relaxation 1
   ENCUT  =  500.0 eV  36.75 Ry    6.06 a.u.  17.69 20.83 22.38*2*pi/ulx,y,z
   ENINI  =  500.0     initial cutoff
   ENAUG  =  605.4 eV  augmentation charge cutoff
   NELM   =     80;   NELMIN=  2; NELMDL= -5     # of ELM steps 
   EDIFF  = 0.1E-04   stopping-criterion for ELM
   LREAL  =      T    real-space projection
   NLSPLINE    = F    spline interpolate recip. space projectors
   LCOMPAT=      F    compatible to vasp.4.4
   GGA_COMPAT  = T    GGA compatible to vasp.4.4-vasp.4.6
   LMAXPAW     = -100 max onsite density
   LMAXMIX     =    2 max onsite mixed and CHGCAR
   VOSKOWN=      1    Vosko Wilk Nusair interpolation
   ROPT   =   -0.00025  -0.00025
 Ionic relaxation
   EDIFFG = 0.1E-03   stopping-criterion for IOM
   NSW    =      0    number of steps for IOM
   NBLOCK =      1;   KBLOCK =      1    inner block; outer block 
   IBRION =     -1    ionic relax: 0-MD 1-quasi-New 2-CG
   NFREE  =      0    steps in history (QN), initial steepest desc. (CG)
   ISIF   =      2    stress and relaxation
   IWAVPR =     10    prediction:  0-non 1-charg 2-wave 3-comb
   ISYM   =      2    0-nonsym 1-usesym 2-fastsym
   LCORR  =      T    Harris-Foulkes like correction to forces

   POTIM  = 0.5000    time-step for ionic-motion
   TEIN   =    0.0    initial temperature
   TEBEG  =    0.0;   TEEND  =   0.0 temperature during run
   SMASS  =  -3.00    Nose mass-parameter (am)
   estimated Nose-frequenzy (Omega)   =  0.10E-29 period in steps =****** mass=  -0.215E-26a.u.
   SCALEE = 1.0000    scale energy and forces
   NPACO  =    256;   APACO  = 16.0  distance and # of slots for P.C.
   PSTRESS=    0.0 pullay stress

  Mass of Ions in am
   POMASS =  58.69 16.00
  Ionic Valenz
   ZVAL   =  10.00  6.00
  Atomic Wigner-Seitz radii
   RWIGS  =   1.15  0.73
  virtual crystal weights 
   VCA    =   1.00  1.00
   NELECT =     608.0000    total number of electrons
   NUPDOWN=      -1.0000    fix difference up-down

 DOS related values:
   EMIN   =  10.00;   EMAX   =-10.00  energy-range for DOS
   EFERMI =   0.00
   ISMEAR =     0;   SIGMA  =   0.05  broadening in eV -4-tet -1-fermi 0-gaus

 Electronic relaxation 2 (details)
   IALGO  =     38    algorithm
   LDIAG  =      T    sub-space diagonalisation (order eigenvalues)
   LSUBROT=      F    optimize rotation matrix (better conditioning)
   TURBO    =      0    0=normal 1=particle mesh
   IRESTART =      0    0=no restart 2=restart with 2 vectors
   NREBOOT  =      0    no. of reboots
   NMIN     =      0    reboot dimension
   EREF     =   0.00    reference energy to select bands
   IMIX   =      4    mixing-type and parameters
     AMIX     =   0.40;   BMIX     =  1.00
     AMIX_MAG =   1.60;   BMIX_MAG =  1.00
     AMIN     =   0.10
     WC   =   100.;   INIMIX=   1;  MIXPRE=   1;  MAXMIX= -45

 Intra band minimization:
   WEIMIN = 0.0000     energy-eigenvalue tresh-hold
   EBREAK =  0.60E-08  absolut break condition
   DEPER  =   0.30     relativ break condition  

   TIME   =   0.40     timestep for ELM

  volume/ion in A,a.u.               =      14.25        96.17
  Fermi-wavevector in a.u.,A,eV,Ry     =   1.327588  2.508778 23.980138  1.762490
  Thomas-Fermi vector in A             =   2.456889
 
 Write flags
   LWAVE        =      F    write WAVECAR
   LDOWNSAMPLE  =      F    k-point downsampling of WAVECAR
   LCHARG       =      T    write CHGCAR
   LVTOT        =      F    write LOCPOT, total local potential
   LVHAR        =      F    write LOCPOT, Hartree potential only
   LELF         =      F    write electronic localiz. function (ELF)
   LORBIT       =      0    0 simple, 1 ext, 2 COOP (PROOUT), +10 PAW based schemes


 Dipole corrections
   LMONO  =      F    monopole corrections only (constant potential shift)
   LDIPOL =      F    correct potential (dipole corrections)
   IDIPOL =      0    1-x, 2-y, 3-z, 4-all directions 
   EPSILON=  1.0000000 bulk dielectric constant

 Exchange correlation treatment:
   GGA     =    PS    GGA type
   LEXCH   =    14    internal setting for exchange type
   VOSKOWN=      1    Vosko Wilk Nusair interpolation
   LHFCALC =     F    Hartree Fock is set to
   LHFONE  =     F    Hartree Fock one center treatment
   AEXX    =    0.0000 exact exchange contribution

 Linear response parameters
   LEPSILON=     F    determine dielectric tensor
   LRPA    =     F    only Hartree local field effects (RPA)
   LNABLA  =     F    use nabla operator in PAW spheres
   LVEL    =     F    velocity operator in full k-point grid
   LINTERFAST=   F  fast interpolation
   KINTER  =     0    interpolate to denser k-point grid
   CSHIFT  =0.1000    complex shift for real part using Kramers Kronig
   OMEGAMAX=  -1.0    maximum frequency
   DEG_THRESHOLD= 0.2000000E-02 threshold for treating states as degnerate
   RTIME   =   -0.100 relaxation time in fs
  (WPLASMAI=    0.000 imaginary part of plasma frequency in eV, 0.658/RTIME)
   DFIELD  = 0.0000000 0.0000000 0.0000000 field for delta impulse in time
 
 Orbital magnetization related:
   ORBITALMAG=     F  switch on orbital magnetization
   LCHIMAG   =     F  perturbation theory with respect to B field
   DQ        =  0.001000  dq finite difference perturbation B field
   LLRAUG    =     F  two centre corrections for induced B field



--------------------------------------------------------------------------------------------------------


 Static calculation
 charge density and potential will be updated during run
 spin polarized calculation
 Variant of blocked Davidson
 Davidson routine will perform the subspace rotation
 perform sub-space diagonalisation
    after iterative eigenvector-optimisation
 modified Broyden-mixing scheme, WC =      100.0
 initial mixing is a Kerker type mixing with AMIX =  0.4000 and BMIX =      1.0000
 Hartree-type preconditioning will be used
 using additional bands          112
 real space projection scheme for non local part
 use partial core corrections
 calculate Harris-corrections to forces 
   (improved forces if not selfconsistent)
 use gradient corrections 
 use of overlap-Matrix (Vanderbilt PP)
 Gauss-broadening in eV      SIGMA  =   0.05


--------------------------------------------------------------------------------------------------------


  energy-cutoff  :      500.00
  volume of cell :     1140.09
      direct lattice vectors                 reciprocal lattice vectors
     9.703562250  0.000000000  0.000000000     0.103054937  0.000000000  0.067155041
     0.000000000 11.422087500  0.000000000     0.000000000  0.087549671  0.000000000
    -6.703028280  0.000000000 10.286348510     0.000000000  0.000000000  0.097216228

  length of vectors
     9.703562250 11.422087500 12.277603748     0.123004552  0.087549671  0.097216228


 
 k-points in units of 2pi/SCALE and weight: Automatic mesh                          
   0.00000000  0.00000000  0.00000000       0.028
   0.02576373  0.00000000  0.01678876       0.056
   0.05152747  0.00000000  0.03357752       0.028
   0.00000000  0.02918322  0.00000000       0.056
   0.02576373  0.02918322  0.01678876       0.056
   0.05152747  0.02918322  0.03357752       0.056
  -0.02576373  0.02918322 -0.01678876       0.056
   0.00000000  0.00000000  0.03240541       0.056
   0.02576373  0.00000000  0.04919417       0.056
   0.05152747  0.00000000  0.06598293       0.056
  -0.02576373  0.00000000  0.01561665       0.056
   0.00000000  0.02918322  0.03240541       0.056
   0.02576373  0.02918322  0.04919417       0.056
   0.05152747  0.02918322  0.06598293       0.056
  -0.02576373  0.02918322  0.01561665       0.056
   0.00000000 -0.02918322  0.03240541       0.056
   0.02576373 -0.02918322  0.04919417       0.056
   0.05152747 -0.02918322  0.06598293       0.056
  -0.02576373 -0.02918322  0.01561665       0.056
 
 k-points in reciprocal lattice and weights: Automatic mesh                          
   0.00000000  0.00000000  0.00000000       0.028
   0.25000000  0.00000000  0.00000000       0.056
   0.50000000  0.00000000  0.00000000       0.028
   0.00000000  0.33333333  0.00000000       0.056
   0.25000000  0.33333333  0.00000000       0.056
   0.50000000  0.33333333  0.00000000       0.056
  -0.25000000  0.33333333 -0.00000000       0.056
   0.00000000  0.00000000  0.33333333       0.056
   0.25000000  0.00000000  0.33333333       0.056
   0.50000000  0.00000000  0.33333333       0.056
  -0.25000000  0.00000000  0.33333333       0.056
   0.00000000  0.33333333  0.33333333       0.056
   0.25000000  0.33333333  0.33333333       0.056
   0.50000000  0.33333333  0.33333333       0.056
  -0.25000000  0.33333333  0.33333333       0.056
   0.00000000 -0.33333333  0.33333333       0.056
   0.25000000 -0.33333333  0.33333333       0.056
   0.50000000 -0.33333333  0.33333333       0.056
  -0.25000000 -0.33333333  0.33333333       0.056
 
 position of ions in fractional coordinates (direct lattice) 
   0.89517247  0.43885358  0.24240408
   0.72624913  0.19838569  0.24139693
   0.39902772  0.29077744  0.99213338
   0.25585556  0.04380073  0.01367120
   0.40491942  0.19877726  0.24160261
   0.25631312  0.45333795  0.25353171
   0.88574936  0.04783497  0.99354043
   0.73887301  0.29082891  0.00417998
   0.88859485  0.44118692  0.73591264
   0.72289606  0.20491480  0.73099806
   0.38441850  0.28412084  0.48222115
   0.26065415  0.04513784  0.50311362
   0.39892902  0.19686084  0.73102973
   0.25652444  0.44997292  0.73633833
   0.87951898  0.05425411  0.47991981
   0.73718530  0.28401349  0.49549343
   0.88624078  0.93061055  0.24427667
   0.73486604  0.68693904  0.24911975
   0.39079885  0.77011710  0.99304748
   0.23713837  0.53113071  0.00064229
   0.41108722  0.68763638  0.25222317
   0.24997549  0.93802312  0.24552836
   0.88382519  0.53602371  0.00554901
   0.73247702  0.77011759  0.00241337
   0.89246165  0.92629090  0.74116331
   0.73941352  0.69114280  0.74079322
   0.38768306  0.77882741  0.48913440
   0.24756402  0.52610528  0.49032220
   0.40952531  0.69237469  0.73511479
   0.24861886  0.93525077  0.73515873
   0.88086108  0.53474745  0.48394392
   0.72545730  0.77193134  0.49000385
   0.78998593  0.44543260  0.06275106
   0.13540309  0.46715179  0.07059445
   0.43265141  0.44277306  0.05828597
   0.77551797  0.05391389  0.29650746
   0.60869821  0.26887180  0.30660261
   0.91925236  0.29674335  0.29540005
   0.29486891  0.19976299  0.06777029
   0.61210239  0.22160190  0.06577890
   0.91409938  0.19487757  0.05835591
   0.30556580  0.29460684  0.30454416
   0.12218143  0.02484071  0.30998246
   0.43084118  0.04494801  0.29641665
   0.78219507  0.44607251  0.54994113
   0.11835265  0.46256006  0.55311869
   0.42273094  0.44431081  0.53317614
   0.79257620  0.05630076  0.79595774
   0.61021331  0.26992595  0.78817864
   0.92594844  0.29064718  0.78588650
   0.30794130  0.19828900  0.55156319
   0.60504090  0.22525168  0.55381060
   0.91547472  0.20093155  0.53245460
   0.30539395  0.29764258  0.79261101
   0.11673193  0.03142712  0.80051280
   0.42943231  0.04734091  0.77879112
   0.78498839  0.93296476  0.06191295
   0.12427492  0.95475999  0.06114999
   0.43596610  0.92731142  0.04617361
   0.79538726  0.53830050  0.30488987
   0.60272650  0.74738507  0.30460859
   0.92224545  0.77501036  0.29886437
   0.29637750  0.68766547  0.05858334
   0.61147300  0.70985473  0.06476250
   0.91611383  0.68219223  0.04926234
   0.31571652  0.78035247  0.31341091
   0.13497312  0.51247693  0.31542393
   0.43062994  0.53525407  0.29277709
   0.78338103  0.92660230  0.54424342
   0.11488134  0.95053018  0.54522051
   0.42982284  0.93183324  0.53673357
   0.78861066  0.53489409  0.79529622
   0.60334988  0.75341018  0.79468559
   0.90771392  0.77787884  0.77697209
   0.30471689  0.68724767  0.55857399
   0.61224596  0.70381235  0.55882091
   0.91120866  0.68564348  0.53798719
   0.29780767  0.77790647  0.78789708
   0.12355167  0.50886442  0.79233177
   0.43705766  0.53162520  0.79255445
 
 position of ions in cartesian coordinates  (Angst):
   7.06152038  5.01262399  2.49345285
   5.42911319  2.26597871  2.48309295
  -2.77830778  3.32128536 10.20542972
   2.39107191  0.50029577  0.14062673
   2.30969167  2.27045126  2.48520865
   0.78772009  5.17806573  2.60791553
   1.93519445  0.54637521 10.21990312
   7.14168172  3.32187326  0.04299673
   3.68969220  5.03927560  7.56985389
   2.11476625  2.34055478  7.51930081
   0.49788684  3.24525310  4.96029481
  -0.84311105  0.51556836  5.17520204
  -1.02908037  2.24856174  7.51962657
  -2.44649578  5.13963006  7.57423268
   5.31755111  0.61969519  4.93662242
   3.83201697  3.24402693  5.09681811
   6.96229915 10.62951513  2.51271496
   5.46096164  7.84627782  2.56253257
  -2.86428437  8.79634490 10.21483247
   2.29678165  6.06662144  0.00660682
   2.29835139  7.85424290  2.59445543
   0.77986919 10.71418215  2.52559028
   8.53905758  6.12250972  0.05707905
   7.09145947  8.79635050  0.02482476
   3.69201855 10.58017571  7.62386411
   2.20938722  7.89429354  7.62005723
   0.48322499  8.89583482  5.03140691
  -0.88439069  6.00922054  5.04362503
  -0.95364089  7.90836429  7.56164692
  -2.51530117 10.68251613  7.56209891
   5.30360054  6.10793216  4.97801582
   3.75501041  8.81706731  5.04035037
   7.24505552  5.08777013  0.64547927
   0.84069572  5.33584862  0.72615912
   3.80756738  5.05739263  0.59954980
   5.53778901  0.61580917  3.04997907
   3.85137501  3.07107723  3.15382130
   6.93994761  3.38942851  3.03858786
   2.40701265  2.28171035  0.69710882
   5.49865582  2.53115629  0.67662469
   8.47885892  2.22590866  0.60026923
   0.92370864  3.36502510  3.13264737
  -0.89222608  0.28373276  3.18858762
   2.19380502  0.51340010  3.04904497
   3.90380761  5.09507924  5.65688612
  -2.55912791  5.28340148  5.68957161
   0.52810125  5.07495695  5.48443559
   2.35548525  0.64307221  8.18749871
   0.63805913  3.08311782  8.10748018
   3.71717889  3.31979752  8.08390243
  -0.70901609  2.26487431  5.67357120
   2.15884392  2.57284440  5.69668884
   5.31430769  2.29505775  5.47701358
  -2.34948481  3.39969959  8.15307308
  -4.23314439  0.35896331  8.23435365
  -1.05323575  0.54073202  8.01091688
   7.20217945 10.65640512  0.63685818
   0.79601931 10.90535215  0.62901011
   3.92092118 10.59183218  0.47495784
   5.67440437  6.14851541  3.13620346
   3.80679412  8.53669767  3.13331012
   6.94576981  8.85223615  3.07422307
   2.48323174  7.85457517  0.60260865
   5.49936145  8.10802284  0.66616965
   8.55936072  7.79205934  0.50672960
   0.96277271  8.91325419  3.22385385
  -0.80457545  5.85355634  3.24456047
   2.21615132  6.11371882  3.01160718
   3.95350755 10.58373255  5.59827749
  -2.53987026 10.85703889  5.60832818
   0.57307239 10.64348080  5.52102856
   2.32143958  6.10960710  8.18069409
   0.52784314  8.60551700  8.17441293
   3.59999264  8.88500017  7.99220570
  -0.78729794  7.84980302  5.74568673
   2.19517442  8.03900625  5.74822663
   5.23582661  7.83147982  5.53392373
  -2.39150114  8.88531577  8.10458395
  -4.11213094  5.81229393  8.15020072
  -1.07149868  6.07226955  8.15249129
 


--------------------------------------------------------------------------------------------------------


 k-point  1 :   0.0000 0.0000 0.0000  plane waves:   28967
 k-point  2 :   0.2500 0.0000 0.0000  plane waves:   28963
 k-point  3 :   0.5000 0.0000 0.0000  plane waves:   28914
 k-point  4 :   0.0000 0.3333 0.0000  plane waves:   28968
 k-point  5 :   0.2500 0.3333 0.0000  plane waves:   28953
 k-point  6 :   0.5000 0.3333 0.0000  plane waves:   28954
 k-point  7 :  -0.2500 0.3333-0.0000  plane waves:   28953
 k-point  8 :   0.0000 0.0000 0.3333  plane waves:   28916
 k-point  9 :   0.2500 0.0000 0.3333  plane waves:   28899
 k-point 10 :   0.5000 0.0000 0.3333  plane waves:   28925
 k-point 11 :  -0.2500 0.0000 0.3333  plane waves:   28940
 k-point 12 :   0.0000 0.3333 0.3333  plane waves:   28962
 k-point 13 :   0.2500 0.3333 0.3333  plane waves:   28924
 k-point 14 :   0.5000 0.3333 0.3333  plane waves:   28959
 k-point 15 :  -0.2500 0.3333 0.3333  plane waves:   28972
 k-point 16 :   0.0000-0.3333 0.3333  plane waves:   28962
 k-point 17 :   0.2500-0.3333 0.3333  plane waves:   28924
 k-point 18 :   0.5000-0.3333 0.3333  plane waves:   28959
 k-point 19 :  -0.2500-0.3333 0.3333  plane waves:   28972

 maximum and minimum number of plane-waves per node :     28972    28899

 maximum number of plane-waves:     28972
 maximum index in each direction: 
   IXMAX=   17   IYMAX=   21   IZMAX=   22
   IXMIN=  -18   IYMIN=  -21   IZMIN=  -22

 The following grids will avoid any aliasing or wrap around errors in the Hartre
 e energy
  - symmetry arguments have not been applied
  - exchange correlation energies might require even more grid points
  - we recommend to set PREC=Normal or Accurate and rely on VASP defaults
 NGX is ok and might be reduce to    72
 WARNING: aliasing errors must be expected set NGY to    90 to avoid them
 NGZ is ok and might be reduce to    90

 serial   3D FFT for wavefunctions
 parallel 3D FFT for charge:
    minimum data exchange during FFTs selected (reduces bandwidth)


 total amount of memory used by VASP MPI-rank0   631873. kBytes
=======================================================================

   base      :      30000. kBytes
   nonlr-proj:      48955. kBytes
   fftplans  :      11488. kBytes
   grid      :      65714. kBytes
   one-center:       2488. kBytes
   wavefun   :     473228. kBytes
 
     INWAV:  cpu time    0.0000: real time    0.0000
 Broyden mixing: mesh for mixing (old mesh)
   NGX = 35   NGY = 41   NGZ = 45
  (NGX  =144   NGY  =168   NGZ  =180)
  gives a total of  64575 points

 initial charge density was supplied:
 charge density of overlapping atoms calculated
 number of electron     608.0000000 magnetization      80.0000000
 keeping initial charge density in first step


--------------------------------------------------------------------------------------------------------


 Maximum index for non-local projection operator         6229
 Maximum index for augmentation-charges         1027 (set IRDMAX)


--------------------------------------------------------------------------------------------------------


 First call to EWALD:  gamma=   0.170
 Maximum number of real-space cells 3x 3x 3
 Maximum number of reciprocal cells 3x 3x 3

    FEWALD:  cpu time    0.0039: real time    0.0040


--------------------------------------- Iteration      1(   1)  ---------------------------------------


    POTLOK:  cpu time    0.3698: real time    0.3718
    SETDIJ:  cpu time    0.0309: real time    0.0310
     EDDAV:  cpu time  172.5851: real time  172.9940
    --------------------------------------------
      LOOP:  cpu time  172.9889: real time  173.4000

 eigenvalue-minimisations  : 31616
 total energy-change (2. order) : 0.7106832E+04  (-0.2572485E+05)
 number of electron     608.0000000 magnetization      80.0000000
 augmentation part      608.0000000 magnetization      80.0000000

 Free energy of the ion-electron system (eV)
  ---------------------------------------------------
  alpha Z        PSCENC =      1463.15073082
  Ewald energy   TEWEN  =    -34395.55539413
  -Hartree energ DENC   =    -20898.09112939
  -exchange      EXHF   =         0.00000000
  -V(xc)+E(xc)   XCENC  =      2358.45612565
  PAW double counting   =     47387.14975297   -49597.44882166
  entropy T*S    EENTRO =        -0.02132274
  eigenvalues    EBANDS =      5651.97851474
  atomic energy  EATOM  =     55137.21312455
  Solvation  Ediel_sol  =         0.00000000
  ---------------------------------------------------
  free energy    TOTEN  =      7106.83158081 eV

  energy without entropy =     7106.85290355  energy(sigma->0) =     7106.84224218


--------------------------------------------------------------------------------------------------------




--------------------------------------- Iteration      1(   2)  ---------------------------------------


     EDDAV:  cpu time  171.3449: real time  171.7511
    --------------------------------------------
      LOOP:  cpu time  171.3450: real time  171.7511

 eigenvalue-minimisations  : 31632
 total energy-change (2. order) :-0.6080260E+04  (-0.5529925E+04)
 number of electron     608.0000000 magnetization      80.0000000
 augmentation part      608.0000000 magnetization      80.0000000

 Free energy of the ion-electron system (eV)
  ---------------------------------------------------
  alpha Z        PSCENC =      1463.15073082
  Ewald energy   TEWEN  =    -34395.55539413
  -Hartree energ DENC   =    -20898.09112939
  -exchange      EXHF   =         0.00000000
  -V(xc)+E(xc)   XCENC  =      2358.45612565
  PAW double counting   =     47387.14975297   -49597.44882166
  entropy T*S    EENTRO =        -0.05254969
  eigenvalues    EBANDS =      -428.25066178
  atomic energy  EATOM  =     55137.21312455
  Solvation  Ediel_sol  =         0.00000000
  ---------------------------------------------------
  free energy    TOTEN  =      1026.57117734 eV

  energy without entropy =     1026.62372703  energy(sigma->0) =     1026.59745219


--------------------------------------------------------------------------------------------------------




--------------------------------------- Iteration      1(   3)  ---------------------------------------


     EDDAV:  cpu time  177.7831: real time  178.2045
    --------------------------------------------
      LOOP:  cpu time  177.7831: real time  178.2044

 eigenvalue-minimisations  : 32880
 total energy-change (2. order) :-0.1505806E+04  (-0.1343116E+04)
 number of electron     608.0000000 magnetization      80.0000000
 augmentation part      608.0000000 magnetization      80.0000000

 Free energy of the ion-electron system (eV)
  ---------------------------------------------------
  alpha Z        PSCENC =      1463.15073082
  Ewald energy   TEWEN  =    -34395.55539413
  -Hartree energ DENC   =    -20898.09112939
  -exchange      EXHF   =         0.00000000
  -V(xc)+E(xc)   XCENC  =      2358.45612565
  PAW double counting   =     47387.14975297   -49597.44882166
  entropy T*S    EENTRO =        -0.11971672
  eigenvalues    EBANDS =     -1933.98936689
  atomic energy  EATOM  =     55137.21312455
  Solvation  Ediel_sol  =         0.00000000
  ---------------------------------------------------
  free energy    TOTEN  =      -479.23469480 eV

  energy without entropy =     -479.11497808  energy(sigma->0) =     -479.17483644


--------------------------------------------------------------------------------------------------------




--------------------------------------- Iteration      1(   4)  ---------------------------------------


     EDDAV:  cpu time  189.5741: real time  190.0232
    --------------------------------------------
      LOOP:  cpu time  189.5741: real time  190.0232

 eigenvalue-minimisations  : 35856
 total energy-change (2. order) :-0.1791697E+03  (-0.1732300E+03)
 number of electron     608.0000000 magnetization      80.0000000
 augmentation part      608.0000000 magnetization      80.0000000

 Free energy of the ion-electron system (eV)
  ---------------------------------------------------
  alpha Z        PSCENC =      1463.15073082
  Ewald energy   TEWEN  =    -34395.55539413
  -Hartree energ DENC   =    -20898.09112939
  -exchange      EXHF   =         0.00000000
  -V(xc)+E(xc)   XCENC  =      2358.45612565
  PAW double counting   =     47387.14975297   -49597.44882166
  entropy T*S    EENTRO =        -0.13639566
  eigenvalues    EBANDS =     -2113.14240213
  atomic energy  EATOM  =     55137.21312455
  Solvation  Ediel_sol  =         0.00000000
  ---------------------------------------------------
  free energy    TOTEN  =      -658.40440898 eV

  energy without entropy =     -658.26801332  energy(sigma->0) =     -658.33621115


--------------------------------------------------------------------------------------------------------




--------------------------------------- Iteration      1(   5)  ---------------------------------------


     EDDAV:  cpu time  185.7133: real time  186.1535
    CHARGE:  cpu time    9.0814: real time    9.1030
    MIXING:  cpu time    0.0070: real time    0.0071
    --------------------------------------------
      LOOP:  cpu time  194.7986: real time  195.2604

 eigenvalue-minimisations  : 34992
 total energy-change (2. order) :-0.5681039E+01  (-0.5635361E+01)
 number of electron     607.9999997 magnetization      85.9667907
 augmentation part      200.2571681 magnetization      60.5142596

 Broyden mixing:
  rms(total) = 0.12969E+02    rms(broyden)= 0.12967E+02
  rms(prec ) = 0.15375E+02
  weight for this iteration     100.00

 Free energy of the ion-electron system (eV)
  ---------------------------------------------------
  alpha Z        PSCENC =      1463.15073082
  Ewald energy   TEWEN  =    -34395.55539413
  -Hartree energ DENC   =    -20898.09112939
  -exchange      EXHF   =         0.00000000
  -V(xc)+E(xc)   XCENC  =      2358.45612565
  PAW double counting   =     47387.14975297   -49597.44882166
  entropy T*S    EENTRO =        -0.13727341
  eigenvalues    EBANDS =     -2118.82256295
  atomic energy  EATOM  =     55137.21312455
  Solvation  Ediel_sol  =         0.00000000
  ---------------------------------------------------
  free energy    TOTEN  =      -664.08544755 eV

  energy without entropy =     -663.94817414  energy(sigma->0) =     -664.01681085


--------------------------------------------------------------------------------------------------------




--------------------------------------- Iteration      1(   6)  ---------------------------------------


    POTLOK:  cpu time    0.3648: real time    0.3657
    SETDIJ:  cpu time    0.0322: real time    0.0322
     EDDAV:  cpu time  235.0457: real time  235.6026
    CHARGE:  cpu time    8.8648: real time    8.8859
    MIXING:  cpu time    0.0076: real time    0.0076
    --------------------------------------------
      LOOP:  cpu time  244.3151: real time  244.8940

 eigenvalue-minimisations  : 47280
 total energy-change (2. order) :-0.8139270E+02  (-0.1463632E+03)
 number of electron     607.9999976 magnetization      78.0452608
 augmentation part      262.7533681 magnetization      72.3768305

 Broyden mixing:
  rms(total) = 0.25085E+02    rms(broyden)= 0.25083E+02
  rms(prec ) = 0.27464E+02
  weight for this iteration     100.00

 eigenvalues of (default mixing * dielectric matrix)
  average eigenvalue GAMMA=   0.2310
  0.2310

 Free energy of the ion-electron system (eV)
  ---------------------------------------------------
  alpha Z        PSCENC =      1463.15073082
  Ewald energy   TEWEN  =    -34395.55539413
  -Hartree energ DENC   =    -20031.81576201
  -exchange      EXHF   =         0.00000000
  -V(xc)+E(xc)   XCENC  =      2378.25067272
  PAW double counting   =     50345.24192323   -52243.28660285
  entropy T*S    EENTRO =        -0.09002228
  eigenvalues    EBANDS =     -3398.58681814
  atomic energy  EATOM  =     55137.21312455
  Solvation  Ediel_sol  =         0.00000000
  ---------------------------------------------------
  free energy    TOTEN  =      -745.47814810 eV

  energy without entropy =     -745.38812582  energy(sigma->0) =     -745.43313696


--------------------------------------------------------------------------------------------------------




--------------------------------------- Iteration      1(   7)  ---------------------------------------


    POTLOK:  cpu time    0.3515: real time    0.3524
    SETDIJ:  cpu time    0.0327: real time    0.0327
     EDDAV:  cpu time  221.9429: real time  222.4688
    CHARGE:  cpu time    8.8367: real time    8.8576
    MIXING:  cpu time    0.0074: real time    0.0074
    --------------------------------------------
      LOOP:  cpu time  231.1712: real time  231.7190

 eigenvalue-minimisations  : 44032
 total energy-change (2. order) : 0.2461650E+03  (-0.4195031E+02)
 number of electron     607.9999980 magnetization      72.3905345
 augmentation part      235.0991937 magnetization      56.1595951

 Broyden mixing:
  rms(total) = 0.96339E+01    rms(broyden)= 0.96313E+01
  rms(prec ) = 0.11235E+02
  weight for this iteration     100.00

 eigenvalues of (default mixing * dielectric matrix)
  average eigenvalue GAMMA=   0.5033
  0.5033  0.5033

 Free energy of the ion-electron system (eV)
  ---------------------------------------------------
  alpha Z        PSCENC =      1463.15073082
  Ewald energy   TEWEN  =    -34395.55539413
  -Hartree energ DENC   =    -20403.12383731
  -exchange      EXHF   =         0.00000000
  -V(xc)+E(xc)   XCENC  =      2354.02295666
  PAW double counting   =     52167.83958101   -54289.54852448
  entropy T*S    EENTRO =        -0.09843234
  eigenvalues    EBANDS =     -2533.21335345
  atomic energy  EATOM  =     55137.21312455
  Solvation  Ediel_sol  =         0.00000000
  ---------------------------------------------------
  free energy    TOTEN  =      -499.31314867 eV

  energy without entropy =     -499.21471633  energy(sigma->0) =     -499.26393250


--------------------------------------------------------------------------------------------------------




--------------------------------------- Iteration      1(   8)  ---------------------------------------


    POTLOK:  cpu time    0.3517: real time    0.3525
    SETDIJ:  cpu time    0.0325: real time    0.0326
     EDDAV:  cpu time  245.0490: real time  245.6296
    CHARGE:  cpu time    8.7688: real time    8.8209
    MIXING:  cpu time    0.0077: real time    0.0077
    --------------------------------------------
      LOOP:  cpu time  254.2097: real time  254.8435

 eigenvalue-minimisations  : 49776
 total energy-change (2. order) :-0.8964100E+02  (-0.1935167E+02)
 number of electron     607.9999987 magnetization      67.7692610
 augmentation part      228.4029111 magnetization      56.9615523

 Broyden mixing:
  rms(total) = 0.16200E+02    rms(broyden)= 0.16199E+02
  rms(prec ) = 0.21311E+02
  weight for this iteration     100.00

 eigenvalues of (default mixing * dielectric matrix)
  average eigenvalue GAMMA=   0.4193
  0.5676  0.5676  0.1227

 Free energy of the ion-electron system (eV)
  ---------------------------------------------------
  alpha Z        PSCENC =      1463.15073082
  Ewald energy   TEWEN  =    -34395.55539413
  -Hartree energ DENC   =    -20333.16019354
  -exchange      EXHF   =         0.00000000
  -V(xc)+E(xc)   XCENC  =      2341.83332746
  PAW double counting   =     53281.87332765   -55464.63144092
  entropy T*S    EENTRO =        -0.07860499
  eigenvalues    EBANDS =     -2619.59902772
  atomic energy  EATOM  =     55137.21312455
  Solvation  Ediel_sol  =         0.00000000
  ---------------------------------------------------
  free energy    TOTEN  =      -588.95415081 eV

  energy without entropy =     -588.87554582  energy(sigma->0) =     -588.91484832


--------------------------------------------------------------------------------------------------------




--------------------------------------- Iteration      1(   9)  ---------------------------------------


    POTLOK:  cpu time    0.3511: real time    0.3519
    SETDIJ:  cpu time    0.0326: real time    0.0327
     EDDAV:  cpu time  221.5482: real time  222.0731
    CHARGE:  cpu time    8.7270: real time    8.7478
    MIXING:  cpu time    0.0078: real time    0.0078
    --------------------------------------------
      LOOP:  cpu time  230.6667: real time  231.2133

 eigenvalue-minimisations  : 43952
 total energy-change (2. order) : 0.4874457E+02  (-0.1793790E+02)
 number of electron     607.9999983 magnetization      63.1877185
 augmentation part      229.6121680 magnetization      50.1272759

 Broyden mixing:
  rms(total) = 0.10657E+02    rms(broyden)= 0.10656E+02
  rms(prec ) = 0.13902E+02
  weight for this iteration     100.00

 eigenvalues of (default mixing * dielectric matrix)
  average eigenvalue GAMMA=   0.4009
  0.6356  0.6356  0.1662  0.1662

 Free energy of the ion-electron system (eV)
  ---------------------------------------------------
  alpha Z        PSCENC =      1463.15073082
  Ewald energy   TEWEN  =    -34395.55539413
  -Hartree energ DENC   =    -20348.57170330
  -exchange      EXHF   =         0.00000000
  -V(xc)+E(xc)   XCENC  =      2336.94588208
  PAW double counting   =     54177.31113848   -56396.72590264
  entropy T*S    EENTRO =        -0.08741927
  eigenvalues    EBANDS =     -2513.89004234
  atomic energy  EATOM  =     55137.21312455
  Solvation  Ediel_sol  =         0.00000000
  ---------------------------------------------------
  free energy    TOTEN  =      -540.20958575 eV

  energy without entropy =     -540.12216648  energy(sigma->0) =     -540.16587612


--------------------------------------------------------------------------------------------------------




--------------------------------------- Iteration      1(  10)  ---------------------------------------


    POTLOK:  cpu time    0.3560: real time    0.3569
    SETDIJ:  cpu time    0.0322: real time    0.0323
     EDDAV:  cpu time  207.1569: real time  207.6478
    CHARGE:  cpu time    8.8093: real time    8.8302
    MIXING:  cpu time    0.0090: real time    0.0091
    --------------------------------------------
      LOOP:  cpu time  216.3636: real time  216.8762

 eigenvalue-minimisations  : 40304
 total energy-change (2. order) : 0.2253063E+02  (-0.1035130E+02)
 number of electron     607.9999993 magnetization      59.1386207
 augmentation part      223.9672603 magnetization      45.4014026

 Broyden mixing:
  rms(total) = 0.10735E+02    rms(broyden)= 0.10733E+02
  rms(prec ) = 0.14041E+02
  weight for this iteration     100.00

 eigenvalues of (default mixing * dielectric matrix)
  average eigenvalue GAMMA=   0.3878
  0.7020  0.7020  0.2162  0.2162  0.1027

 Free energy of the ion-electron system (eV)
  ---------------------------------------------------
  alpha Z        PSCENC =      1463.15073082
  Ewald energy   TEWEN  =    -34395.55539413
  -Hartree energ DENC   =    -20349.34301419
  -exchange      EXHF   =         0.00000000
  -V(xc)+E(xc)   XCENC  =      2335.27027911
  PAW double counting   =     54982.99236326   -57224.02553577
  entropy T*S    EENTRO =        -0.10127601
  eigenvalues    EBANDS =     -2467.28023564
  atomic energy  EATOM  =     55137.21312455
  Solvation  Ediel_sol  =         0.00000000
  ---------------------------------------------------
  free energy    TOTEN  =      -517.67895800 eV

  energy without entropy =     -517.57768200  energy(sigma->0) =     -517.62832000


--------------------------------------------------------------------------------------------------------




--------------------------------------- Iteration      1(  11)  ---------------------------------------


    POTLOK:  cpu time    0.3563: real time    0.3571
    SETDIJ:  cpu time    0.0321: real time    0.0322
     EDDAV:  cpu time  219.4787: real time  219.9985
    CHARGE:  cpu time    8.7913: real time    8.8122
    MIXING:  cpu time    0.0089: real time    0.0089
    --------------------------------------------
      LOOP:  cpu time  228.6673: real time  229.2089

 eigenvalue-minimisations  : 43440
 total energy-change (2. order) : 0.2285687E+02  (-0.8090608E+01)
 number of electron     607.9999986 magnetization      56.4479588
 augmentation part      223.1326598 magnetization      41.8775613

 Broyden mixing:
  rms(total) = 0.97493E+01    rms(broyden)= 0.97486E+01
  rms(prec ) = 0.13109E+02
  weight for this iteration     100.00

 eigenvalues of (default mixing * dielectric matrix)
  average eigenvalue GAMMA=   0.3846
  0.9547  0.5880  0.2798  0.2798  0.1027  0.1027

 Free energy of the ion-electron system (eV)
  ---------------------------------------------------
  alpha Z        PSCENC =      1463.15073082
  Ewald energy   TEWEN  =    -34395.55539413
  -Hartree energ DENC   =    -20343.50702970
  -exchange      EXHF   =         0.00000000
  -V(xc)+E(xc)   XCENC  =      2334.35072685
  PAW double counting   =     55661.59306140   -57916.70674637
  entropy T*S    EENTRO =        -0.11335837
  eigenvalues    EBANDS =     -2435.24720658
  atomic energy  EATOM  =     55137.21312455
  Solvation  Ediel_sol  =         0.00000000
  ---------------------------------------------------
  free energy    TOTEN  =      -494.82209153 eV

  energy without entropy =     -494.70873316  energy(sigma->0) =     -494.76541234


--------------------------------------------------------------------------------------------------------




--------------------------------------- Iteration      1(  12)  ---------------------------------------


    POTLOK:  cpu time    0.3351: real time    0.3359
    SETDIJ:  cpu time    0.0317: real time    0.0317
     EDDAV:  cpu time  218.4540: real time  218.9715
    CHARGE:  cpu time    8.8240: real time    8.8449
    MIXING:  cpu time    0.0088: real time    0.0089
    --------------------------------------------
      LOOP:  cpu time  227.6537: real time  228.1929

 eigenvalue-minimisations  : 43360
 total energy-change (2. order) : 0.1158620E+02  (-0.4384870E+01)
 number of electron     607.9999995 magnetization      54.1611833
 augmentation part      224.0495053 magnetization      38.6191306

 Broyden mixing:
  rms(total) = 0.84216E+01    rms(broyden)= 0.84210E+01
  rms(prec ) = 0.11559E+02
  weight for this iteration     100.00

 eigenvalues of (default mixing * dielectric matrix)
  average eigenvalue GAMMA=   0.3884
  1.1566  0.5149  0.3651  0.3651  0.1142  0.1142  0.0888

 Free energy of the ion-electron system (eV)
  ---------------------------------------------------
  alpha Z        PSCENC =      1463.15073082
  Ewald energy   TEWEN  =    -34395.55539413
  -Hartree energ DENC   =    -20340.67620962
  -exchange      EXHF   =         0.00000000
  -V(xc)+E(xc)   XCENC  =      2334.07445077
  PAW double counting   =     56060.58310848   -58321.95581516
  entropy T*S    EENTRO =        -0.11885316
  eigenvalues    EBANDS =     -2419.95103766
  atomic energy  EATOM  =     55137.21312455
  Solvation  Ediel_sol  =         0.00000000
  ---------------------------------------------------
  free energy    TOTEN  =      -483.23589511 eV

  energy without entropy =     -483.11704195  energy(sigma->0) =     -483.17646853


--------------------------------------------------------------------------------------------------------




--------------------------------------- Iteration      1(  13)  ---------------------------------------


    POTLOK:  cpu time    0.3576: real time    0.3585
    SETDIJ:  cpu time    0.0327: real time    0.0328
     EDDAV:  cpu time  210.9645: real time  211.4643
    CHARGE:  cpu time    8.8378: real time    8.8588
    MIXING:  cpu time    0.0097: real time    0.0097
    --------------------------------------------
      LOOP:  cpu time  220.2023: real time  220.7241

 eigenvalue-minimisations  : 41344
 total energy-change (2. order) : 0.6824941E+01  (-0.4484771E+01)
 number of electron     607.9999988 magnetization      51.7298164
 augmentation part      224.9712642 magnetization      35.7530702

 Broyden mixing:
  rms(total) = 0.68388E+01    rms(broyden)= 0.68383E+01
  rms(prec ) = 0.90037E+01
  weight for this iteration     100.00

 eigenvalues of (default mixing * dielectric matrix)
  average eigenvalue GAMMA=   0.3805
  1.2954  0.4866  0.4086  0.4086  0.1574  0.1108  0.1108  0.0657

 Free energy of the ion-electron system (eV)
  ---------------------------------------------------
  alpha Z        PSCENC =      1463.15073082
  Ewald energy   TEWEN  =    -34395.55539413
  -Hartree energ DENC   =    -20349.06036553
  -exchange      EXHF   =         0.00000000
  -V(xc)+E(xc)   XCENC  =      2334.24481710
  PAW double counting   =     56402.23306691   -58670.70414100
  entropy T*S    EENTRO =        -0.11249041
  eigenvalues    EBANDS =     -2397.82030253
  atomic energy  EATOM  =     55137.21312455
  Solvation  Ediel_sol  =         0.00000000
  ---------------------------------------------------
  free energy    TOTEN  =      -476.41095423 eV

  energy without entropy =     -476.29846382  energy(sigma->0) =     -476.35470902


--------------------------------------------------------------------------------------------------------




--------------------------------------- Iteration      1(  14)  ---------------------------------------


    POTLOK:  cpu time    0.3605: real time    0.3614
    SETDIJ:  cpu time    0.0318: real time    0.0319
     EDDAV:  cpu time  209.2424: real time  209.7381
    CHARGE:  cpu time    8.8771: real time    8.8982
    MIXING:  cpu time    0.0100: real time    0.0100
    --------------------------------------------
      LOOP:  cpu time  218.5219: real time  219.0396

 eigenvalue-minimisations  : 40992
 total energy-change (2. order) : 0.5202420E+01  (-0.4012973E+01)
 number of electron     607.9999985 magnetization      49.9478944
 augmentation part      224.9033451 magnetization      33.0510270

 Broyden mixing:
  rms(total) = 0.54261E+01    rms(broyden)= 0.54256E+01
  rms(prec ) = 0.73628E+01
  weight for this iteration     100.00

 eigenvalues of (default mixing * dielectric matrix)
  average eigenvalue GAMMA=   0.3838
  1.4483  0.4711  0.4711  0.4409  0.2371  0.1149  0.1149  0.0780  0.0780

 Free energy of the ion-electron system (eV)
  ---------------------------------------------------
  alpha Z        PSCENC =      1463.15073082
  Ewald energy   TEWEN  =    -34395.55539413
  -Hartree energ DENC   =    -20357.30769829
  -exchange      EXHF   =         0.00000000
  -V(xc)+E(xc)   XCENC  =      2334.54874189
  PAW double counting   =     56743.54466051   -59019.43331256
  entropy T*S    EENTRO =        -0.11906291
  eigenvalues    EBANDS =     -2377.25032408
  atomic energy  EATOM  =     55137.21312455
  Solvation  Ediel_sol  =         0.00000000
  ---------------------------------------------------
  free energy    TOTEN  =      -471.20853419 eV

  energy without entropy =     -471.08947128  energy(sigma->0) =     -471.14900273


--------------------------------------------------------------------------------------------------------




--------------------------------------- Iteration      1(  15)  ---------------------------------------


    POTLOK:  cpu time    0.3530: real time    0.3538
    SETDIJ:  cpu time    0.0316: real time    0.0316
     EDDAV:  cpu time  203.1066: real time  203.5876
    CHARGE:  cpu time    8.8166: real time    8.8375
    MIXING:  cpu time    0.0107: real time    0.0108
    --------------------------------------------
      LOOP:  cpu time  212.3184: real time  212.8213

 eigenvalue-minimisations  : 39648
 total energy-change (2. order) : 0.2396721E+01  (-0.2205476E+01)
 number of electron     607.9999986 magnetization      48.1237990
 augmentation part      225.1967191 magnetization      31.9093129

 Broyden mixing:
  rms(total) = 0.39565E+01    rms(broyden)= 0.39559E+01
  rms(prec ) = 0.53925E+01
  weight for this iteration     100.00

 eigenvalues of (default mixing * dielectric matrix)
  average eigenvalue GAMMA=   0.3938
  1.6063  0.5428  0.5428  0.4278  0.3264  0.1170  0.1170  0.1078  0.0751  0.0751

 Free energy of the ion-electron system (eV)
  ---------------------------------------------------
  alpha Z        PSCENC =      1463.15073082
  Ewald energy   TEWEN  =    -34395.55539413
  -Hartree energ DENC   =    -20367.42542495
  -exchange      EXHF   =         0.00000000
  -V(xc)+E(xc)   XCENC  =      2334.68224175
  PAW double counting   =     57007.63702848   -59289.75563492
  entropy T*S    EENTRO =        -0.11682568
  eigenvalues    EBANDS =     -2358.64165891
  atomic energy  EATOM  =     55137.21312455
  Solvation  Ediel_sol  =         0.00000000
  ---------------------------------------------------
  free energy    TOTEN  =      -468.81181300 eV

  energy without entropy =     -468.69498732  energy(sigma->0) =     -468.75340016


--------------------------------------------------------------------------------------------------------




--------------------------------------- Iteration      1(  16)  ---------------------------------------


    POTLOK:  cpu time    0.3482: real time    0.3490
    SETDIJ:  cpu time    0.0314: real time    0.0315
     EDDAV:  cpu time  207.4993: real time  207.9910
    CHARGE:  cpu time    8.7831: real time    8.8039
    MIXING:  cpu time    0.0099: real time    0.0099
    --------------------------------------------
      LOOP:  cpu time  216.6719: real time  217.1853

 eigenvalue-minimisations  : 40672
 total energy-change (2. order) : 0.1181018E+01  (-0.1376966E+01)
 number of electron     607.9999989 magnetization      46.9088141
 augmentation part      224.7218083 magnetization      30.3722558

 Broyden mixing:
  rms(total) = 0.35425E+01    rms(broyden)= 0.35420E+01
  rms(prec ) = 0.47719E+01
  weight for this iteration     100.00

 eigenvalues of (default mixing * dielectric matrix)
  average eigenvalue GAMMA=   0.3884
  1.7154  0.5877  0.5877  0.3607  0.3607  0.2028  0.1126  0.1126  0.0791  0.0791
  0.0743

 Free energy of the ion-electron system (eV)
  ---------------------------------------------------
  alpha Z        PSCENC =      1463.15073082
  Ewald energy   TEWEN  =    -34395.55539413
  -Hartree energ DENC   =    -20376.62631676
  -exchange      EXHF   =         0.00000000
  -V(xc)+E(xc)   XCENC  =      2334.69585729
  PAW double counting   =     57257.39109119   -59545.79077435
  entropy T*S    EENTRO =        -0.12901476
  eigenvalues    EBANDS =     -2341.98009898
  atomic energy  EATOM  =     55137.21312455
  Solvation  Ediel_sol  =         0.00000000
  ---------------------------------------------------
  free energy    TOTEN  =      -467.63079513 eV

  energy without entropy =     -467.50178037  energy(sigma->0) =     -467.56628775


--------------------------------------------------------------------------------------------------------




--------------------------------------- Iteration      1(  17)  ---------------------------------------


    POTLOK:  cpu time    0.3618: real time    0.3626
    SETDIJ:  cpu time    0.0315: real time    0.0316
     EDDAV:  cpu time  198.9819: real time  199.4533
    CHARGE:  cpu time    8.7879: real time    8.8087
    MIXING:  cpu time    0.0108: real time    0.0109
    --------------------------------------------
      LOOP:  cpu time  208.1739: real time  208.6671

 eigenvalue-minimisations  : 38368
 total energy-change (2. order) : 0.6834019E+00  (-0.1024369E+01)
 number of electron     607.9999990 magnetization      45.6957556
 augmentation part      224.5574736 magnetization      29.4590388

 Broyden mixing:
  rms(total) = 0.28943E+01    rms(broyden)= 0.28938E+01
  rms(prec ) = 0.38434E+01
  weight for this iteration     100.00

 eigenvalues of (default mixing * dielectric matrix)
  average eigenvalue GAMMA=   0.3923
  1.8108  0.6291  0.6291  0.3920  0.3920  0.3047  0.1155  0.1155  0.0790  0.0790
  0.0817  0.0786

 Free energy of the ion-electron system (eV)
  ---------------------------------------------------
  alpha Z        PSCENC =      1463.15073082
  Ewald energy   TEWEN  =    -34395.55539413
  -Hartree energ DENC   =    -20383.33949469
  -exchange      EXHF   =         0.00000000
  -V(xc)+E(xc)   XCENC  =      2334.68551919
  PAW double counting   =     57429.86519841   -59722.43143364
  entropy T*S    EENTRO =        -0.11923153
  eigenvalues    EBANDS =     -2330.41641223
  atomic energy  EATOM  =     55137.21312455
  Solvation  Ediel_sol  =         0.00000000
  ---------------------------------------------------
  free energy    TOTEN  =      -466.94739325 eV

  energy without entropy =     -466.82816172  energy(sigma->0) =     -466.88777749


--------------------------------------------------------------------------------------------------------




--------------------------------------- Iteration      1(  18)  ---------------------------------------


    POTLOK:  cpu time    0.3596: real time    0.3605
    SETDIJ:  cpu time    0.0324: real time    0.0325
     EDDAV:  cpu time  218.3339: real time  218.8511
    CHARGE:  cpu time    8.8099: real time    8.8309
    MIXING:  cpu time    0.0120: real time    0.0120
    --------------------------------------------
      LOOP:  cpu time  227.5479: real time  228.0870

 eigenvalue-minimisations  : 43200
 total energy-change (2. order) : 0.1044200E+01  (-0.4068842E+00)
 number of electron     607.9999988 magnetization      45.2467972
 augmentation part      224.5722470 magnetization      29.3602606

 Broyden mixing:
  rms(total) = 0.16011E+01    rms(broyden)= 0.16008E+01
  rms(prec ) = 0.20238E+01
  weight for this iteration     100.00

 eigenvalues of (default mixing * dielectric matrix)
  average eigenvalue GAMMA=   0.3783
  1.8162  0.6398  0.6398  0.4032  0.4032  0.3039  0.1571  0.1148  0.1148  0.0947
  0.0782  0.0782  0.0738

 Free energy of the ion-electron system (eV)
  ---------------------------------------------------
  alpha Z        PSCENC =      1463.15073082
  Ewald energy   TEWEN  =    -34395.55539413
  -Hartree energ DENC   =    -20386.45526076
  -exchange      EXHF   =         0.00000000
  -V(xc)+E(xc)   XCENC  =      2334.53463116
  PAW double counting   =     57589.76769671   -59885.13539499
  entropy T*S    EENTRO =        -0.12890755
  eigenvalues    EBANDS =     -2323.29441872
  atomic energy  EATOM  =     55137.21312455
  Solvation  Ediel_sol  =         0.00000000
  ---------------------------------------------------
  free energy    TOTEN  =      -465.90319291 eV

  energy without entropy =     -465.77428536  energy(sigma->0) =     -465.83873913


--------------------------------------------------------------------------------------------------------




--------------------------------------- Iteration      1(  19)  ---------------------------------------


    POTLOK:  cpu time    0.3523: real time    0.3531
    SETDIJ:  cpu time    0.0322: real time    0.0323
     EDDAV:  cpu time  219.6615: real time  220.1819
    CHARGE:  cpu time    8.8402: real time    8.8612
    MIXING:  cpu time    0.0102: real time    0.0102
    --------------------------------------------
      LOOP:  cpu time  228.8964: real time  229.4387

 eigenvalue-minimisations  : 43552
 total energy-change (2. order) :-0.1840269E+00  (-0.2171275E+00)
 number of electron     607.9999989 magnetization      44.7203301
 augmentation part      224.4716015 magnetization      28.9049526

 Broyden mixing:
  rms(total) = 0.14987E+01    rms(broyden)= 0.14986E+01
  rms(prec ) = 0.19229E+01
  weight for this iteration     100.00

 eigenvalues of (default mixing * dielectric matrix)
  average eigenvalue GAMMA=   0.3760
  1.8154  0.6585  0.6585  0.4400  0.4400  0.3040  0.3040  0.1124  0.1124  0.1116
  0.0794  0.0794  0.0744  0.0744

 Free energy of the ion-electron system (eV)
  ---------------------------------------------------
  alpha Z        PSCENC =      1463.15073082
  Ewald energy   TEWEN  =    -34395.55539413
  -Hartree energ DENC   =    -20387.54989366
  -exchange      EXHF   =         0.00000000
  -V(xc)+E(xc)   XCENC  =      2334.45276653
  PAW double counting   =     57636.14746521   -59931.82141352
  entropy T*S    EENTRO =        -0.12870469
  eigenvalues    EBANDS =     -2321.99590090
  atomic energy  EATOM  =     55137.21312455
  Solvation  Ediel_sol  =         0.00000000
  ---------------------------------------------------
  free energy    TOTEN  =      -466.08721979 eV

  energy without entropy =     -465.95851511  energy(sigma->0) =     -466.02286745


--------------------------------------------------------------------------------------------------------




--------------------------------------- Iteration      1(  20)  ---------------------------------------


    POTLOK:  cpu time    0.3347: real time    0.3355
    SETDIJ:  cpu time    0.0318: real time    0.0318
     EDDAV:  cpu time  215.1075: real time  215.6173
    CHARGE:  cpu time    8.8229: real time    8.8438
    MIXING:  cpu time    0.0123: real time    0.0124
    --------------------------------------------
      LOOP:  cpu time  224.3092: real time  224.8408

 eigenvalue-minimisations  : 42416
 total energy-change (2. order) :-0.1001323E+00  (-0.1587082E+00)
 number of electron     607.9999988 magnetization      44.2482695
 augmentation part      224.3627720 magnetization      28.4906115

 Broyden mixing:
  rms(total) = 0.11918E+01    rms(broyden)= 0.11917E+01
  rms(prec ) = 0.14826E+01
  weight for this iteration     100.00

 eigenvalues of (default mixing * dielectric matrix)
  average eigenvalue GAMMA=   0.3773
  1.8317  0.6898  0.6898  0.4795  0.4795  0.3170  0.3170  0.2323  0.1148  0.1148
  0.0886  0.0786  0.0786  0.0734  0.0734

 Free energy of the ion-electron system (eV)
  ---------------------------------------------------
  alpha Z        PSCENC =      1463.15073082
  Ewald energy   TEWEN  =    -34395.55539413
  -Hartree energ DENC   =    -20387.85580387
  -exchange      EXHF   =         0.00000000
  -V(xc)+E(xc)   XCENC  =      2334.33491191
  PAW double counting   =     57678.44384678   -59973.74701599
  entropy T*S    EENTRO =        -0.13043399
  eigenvalues    EBANDS =     -2322.04131814
  atomic energy  EATOM  =     55137.21312455
  Solvation  Ediel_sol  =         0.00000000
  ---------------------------------------------------
  free energy    TOTEN  =      -466.18735205 eV

  energy without entropy =     -466.05691806  energy(sigma->0) =     -466.12213506


--------------------------------------------------------------------------------------------------------




--------------------------------------- Iteration      1(  21)  ---------------------------------------


    POTLOK:  cpu time    0.3620: real time    0.3628
    SETDIJ:  cpu time    0.0314: real time    0.0315
     EDDAV:  cpu time  212.4734: real time  212.9769
    CHARGE:  cpu time    8.8318: real time    8.8527
    MIXING:  cpu time    0.0126: real time    0.0126
    --------------------------------------------
      LOOP:  cpu time  221.7112: real time  222.2366

 eigenvalue-minimisations  : 41856
 total energy-change (2. order) :-0.3605762E+00  (-0.1280533E+00)
 number of electron     607.9999989 magnetization      43.4897802
 augmentation part      224.2954598 magnetization      27.9474800

 Broyden mixing:
  rms(total) = 0.13144E+01    rms(broyden)= 0.13142E+01
  rms(prec ) = 0.16319E+01
  weight for this iteration     100.00

 eigenvalues of (default mixing * dielectric matrix)
  average eigenvalue GAMMA=   0.3870
  1.8643  0.7695  0.7695  0.5361  0.5361  0.3595  0.3595  0.2830  0.1151  0.1151
  0.0915  0.0915  0.0786  0.0786  0.0748  0.0700

 Free energy of the ion-electron system (eV)
  ---------------------------------------------------
  alpha Z        PSCENC =      1463.15073082
  Ewald energy   TEWEN  =    -34395.55539413
  -Hartree energ DENC   =    -20388.11465487
  -exchange      EXHF   =         0.00000000
  -V(xc)+E(xc)   XCENC  =      2334.28905391
  PAW double counting   =     57716.01088078   -60010.87731954
  entropy T*S    EENTRO =        -0.12551623
  eigenvalues    EBANDS =     -2322.53883355
  atomic energy  EATOM  =     55137.21312455
  Solvation  Ediel_sol  =         0.00000000
  ---------------------------------------------------
  free energy    TOTEN  =      -466.54792827 eV

  energy without entropy =     -466.42241203  energy(sigma->0) =     -466.48517015


--------------------------------------------------------------------------------------------------------




--------------------------------------- Iteration      1(  22)  ---------------------------------------


    POTLOK:  cpu time    0.3575: real time    0.3583
    SETDIJ:  cpu time    0.0327: real time    0.0328
     EDDAV:  cpu time  210.0317: real time  210.5293
    CHARGE:  cpu time    8.7772: real time    8.7980
    MIXING:  cpu time    0.0132: real time    0.0132
    --------------------------------------------
      LOOP:  cpu time  219.2123: real time  219.7317

 eigenvalue-minimisations  : 41168
 total energy-change (2. order) :-0.8295298E-01  (-0.8968249E-01)
 number of electron     607.9999988 magnetization      43.0852866
 augmentation part      224.4015683 magnetization      27.5702875

 Broyden mixing:
  rms(total) = 0.97642E+00    rms(broyden)= 0.97630E+00
  rms(prec ) = 0.11884E+01
  weight for this iteration     100.00

 eigenvalues of (default mixing * dielectric matrix)
  average eigenvalue GAMMA=   0.3892
  1.8775  0.8567  0.8567  0.5539  0.5539  0.3741  0.3741  0.2911  0.1637  0.1143
  0.1143  0.1036  0.0789  0.0789  0.0813  0.0715  0.0715

 Free energy of the ion-electron system (eV)
  ---------------------------------------------------
  alpha Z        PSCENC =      1463.15073082
  Ewald energy   TEWEN  =    -34395.55539413
  -Hartree energ DENC   =    -20386.87876824
  -exchange      EXHF   =         0.00000000
  -V(xc)+E(xc)   XCENC  =      2334.22603860
  PAW double counting   =     57771.26732485   -60064.93710666
  entropy T*S    EENTRO =        -0.12973518
  eigenvalues    EBANDS =     -2324.98709586
  atomic energy  EATOM  =     55137.21312455
  Solvation  Ediel_sol  =         0.00000000
  ---------------------------------------------------
  free energy    TOTEN  =      -466.63088125 eV

  energy without entropy =     -466.50114607  energy(sigma->0) =     -466.56601366


--------------------------------------------------------------------------------------------------------




--------------------------------------- Iteration      1(  23)  ---------------------------------------


    POTLOK:  cpu time    0.3540: real time    0.3548
    SETDIJ:  cpu time    0.0317: real time    0.0318
     EDDAV:  cpu time  210.3365: real time  210.8348
    CHARGE:  cpu time    8.8064: real time    8.8273
    MIXING:  cpu time    0.0138: real time    0.0138
    --------------------------------------------
      LOOP:  cpu time  219.5424: real time  220.0625

 eigenvalue-minimisations  : 41344
 total energy-change (2. order) :-0.1797627E+00  (-0.8027623E-01)
 number of electron     607.9999989 magnetization      42.2348456
 augmentation part      224.4504807 magnetization      26.7202209

 Broyden mixing:
  rms(total) = 0.10420E+01    rms(broyden)= 0.10419E+01
  rms(prec ) = 0.13194E+01
  weight for this iteration     100.00

 eigenvalues of (default mixing * dielectric matrix)
  average eigenvalue GAMMA=   0.4002
  1.8871  1.0151  1.0151  0.5678  0.5678  0.3956  0.3956  0.2752  0.2752  0.1142
  0.1142  0.1136  0.0787  0.0787  0.0829  0.0829  0.0753  0.0690

 Free energy of the ion-electron system (eV)
  ---------------------------------------------------
  alpha Z        PSCENC =      1463.15073082
  Ewald energy   TEWEN  =    -34395.55539413
  -Hartree energ DENC   =    -20386.40294889
  -exchange      EXHF   =         0.00000000
  -V(xc)+E(xc)   XCENC  =      2334.21888651
  PAW double counting   =     57801.92914874   -60095.07374086
  entropy T*S    EENTRO =        -0.12487670
  eigenvalues    EBANDS =     -2326.16557401
  atomic energy  EATOM  =     55137.21312455
  Solvation  Ediel_sol  =         0.00000000
  ---------------------------------------------------
  free energy    TOTEN  =      -466.81064398 eV

  energy without entropy =     -466.68576727  energy(sigma->0) =     -466.74820563


--------------------------------------------------------------------------------------------------------




--------------------------------------- Iteration      1(  24)  ---------------------------------------


    POTLOK:  cpu time    0.3574: real time    0.3582
    SETDIJ:  cpu time    0.0322: real time    0.0323
     EDDAV:  cpu time  216.4379: real time  216.9509
    CHARGE:  cpu time    8.7989: real time    8.8198
    MIXING:  cpu time    0.0132: real time    0.0132
    --------------------------------------------
      LOOP:  cpu time  225.6396: real time  226.1744

 eigenvalue-minimisations  : 42816
 total energy-change (2. order) :-0.1308062E+00  (-0.6846877E-01)
 number of electron     607.9999988 magnetization      41.9421671
 augmentation part      224.4626952 magnetization      26.5646876

 Broyden mixing:
  rms(total) = 0.91221E+00    rms(broyden)= 0.91209E+00
  rms(prec ) = 0.11332E+01
  weight for this iteration     100.00

 eigenvalues of (default mixing * dielectric matrix)
  average eigenvalue GAMMA=   0.3994
  1.8944  1.0846  1.0846  0.5731  0.5731  0.3972  0.3972  0.2731  0.2731  0.2398
  0.1148  0.1148  0.0960  0.0960  0.0788  0.0788  0.0773  0.0732  0.0697

 Free energy of the ion-electron system (eV)
  ---------------------------------------------------
  alpha Z        PSCENC =      1463.15073082
  Ewald energy   TEWEN  =    -34395.55539413
  -Hartree energ DENC   =    -20385.29846212
  -exchange      EXHF   =         0.00000000
  -V(xc)+E(xc)   XCENC  =      2334.34492276
  PAW double counting   =     57864.97190639   -60157.13691822
  entropy T*S    EENTRO =        -0.12280299
  eigenvalues    EBANDS =     -2328.50855723
  atomic energy  EATOM  =     55137.21312455
  Solvation  Ediel_sol  =         0.00000000
  ---------------------------------------------------
  free energy    TOTEN  =      -466.94145016 eV

  energy without entropy =     -466.81864717  energy(sigma->0) =     -466.88004866


--------------------------------------------------------------------------------------------------------




--------------------------------------- Iteration      1(  25)  ---------------------------------------


    POTLOK:  cpu time    0.3591: real time    0.3599
    SETDIJ:  cpu time    0.0313: real time    0.0314
     EDDAV:  cpu time  219.7536: real time  220.2743
    CHARGE:  cpu time    8.8368: real time    8.8577
    MIXING:  cpu time    0.0137: real time    0.0138
    --------------------------------------------
      LOOP:  cpu time  228.9946: real time  229.5371

 eigenvalue-minimisations  : 43632
 total energy-change (2. order) :-0.1012546E+00  (-0.5689806E-01)
 number of electron     607.9999989 magnetization      41.4150440
 augmentation part      224.4982934 magnetization      26.1785916

 Broyden mixing:
  rms(total) = 0.93904E+00    rms(broyden)= 0.93895E+00
  rms(prec ) = 0.11861E+01
  weight for this iteration     100.00

 eigenvalues of (default mixing * dielectric matrix)
  average eigenvalue GAMMA=   0.4179
  1.9104  1.2440  1.2440  0.6033  0.6033  0.4489  0.4489  0.3434  0.3434  0.2670
  0.1148  0.1148  0.1040  0.1040  0.0788  0.0788  0.0834  0.0783  0.0752  0.0690

 Free energy of the ion-electron system (eV)
  ---------------------------------------------------
  alpha Z        PSCENC =      1463.15073082
[...]
   0.142E+03 0.114E+03 0.457E+01   -.153E+03 -.120E+03 -.508E+01   0.104E+02 0.604E+01 0.135E+01   0.295E+00 -.233E+00 0.692E-01
   0.129E+02 -.102E+03 0.179E+02   -.139E+02 0.113E+03 -.219E+02   0.113E+01 -.126E+02 0.486E+01   -.165E+00 0.244E+00 -.174E+00
   -.774E+02 0.141E+03 -.166E+03   0.871E+02 -.152E+03 0.176E+03   -.113E+02 0.100E+02 -.106E+02   0.110E+00 0.852E+00 -.155E+00
   0.414E+02 -.971E+02 0.117E+03   -.484E+02 0.103E+03 -.124E+03   0.778E+01 -.672E+01 0.702E+01   0.175E+00 0.396E+00 -.189E+00
   0.641E+02 0.120E+03 0.128E+03   -.681E+02 -.130E+03 -.136E+03   0.424E+01 0.116E+02 0.939E+01   -.270E+00 0.195E+00 -.227E+00
   -.933E+02 -.124E+03 -.448E+02   0.103E+03 0.131E+03 0.523E+02   -.120E+02 -.792E+01 -.859E+01   0.110E+00 0.401E+00 -.378E-01
   0.535E+02 0.820E+02 0.651E+02   -.610E+02 -.896E+02 -.700E+02   0.808E+01 0.756E+01 0.539E+01   0.171E+00 -.489E+00 -.754E-01
   -.508E+02 -.195E+03 0.361E+02   0.552E+02 0.207E+03 -.393E+02   -.337E+01 -.121E+02 0.403E+01   0.132E+00 0.198E+00 0.114E+00
   -.176E+03 0.150E+02 -.134E+03   0.189E+03 -.218E+02 0.145E+03   -.142E+02 0.790E+01 -.112E+02   0.276E+00 0.594E-01 0.454E-01
   0.162E+03 -.104E+03 0.107E+03   -.175E+03 0.109E+03 -.107E+03   0.125E+02 -.531E+01 0.125E+01   -.298E+00 -.444E+00 -.343E+00
   0.157E+02 0.774E+02 0.706E+02   -.176E+02 -.870E+02 -.739E+02   0.110E+01 0.103E+02 0.341E+01   0.208E+00 -.189E+00 -.140E+00
   -.188E+03 -.162E+03 -.107E+03   0.201E+03 0.174E+03 0.117E+03   -.148E+02 -.110E+02 -.113E+02   0.147E+00 -.848E+00 -.195E+00
   0.142E+03 -.146E+02 0.110E+03   -.150E+03 0.118E+02 -.115E+03   0.834E+01 0.351E+01 0.464E+01   -.408E+00 0.969E-01 0.231E+00
   0.792E+02 -.125E+03 0.104E+03   -.849E+02 0.134E+03 -.113E+03   0.467E+01 -.980E+01 0.888E+01   0.348E+00 -.383E+00 -.440E+00
   -.156E+03 0.820E+02 -.103E+03   0.172E+03 -.887E+02 0.113E+03   -.162E+02 0.833E+01 -.992E+01   -.549E+00 -.888E+00 -.185E+00
   0.246E+02 -.130E+03 0.238E+02   -.295E+02 0.138E+03 -.281E+02   0.566E+01 -.839E+01 0.471E+01   -.848E-02 0.410E+00 0.357E+00
   0.665E+02 0.102E+03 0.579E+02   -.701E+02 -.112E+03 -.664E+02   0.367E+01 0.117E+02 0.948E+01   0.110E+00 0.461E+00 -.670E-01
   -.120E+03 -.116E+03 -.125E+03   0.131E+03 0.123E+03 0.133E+03   -.131E+02 -.802E+01 -.893E+01   -.112E+00 0.283E+00 0.631E-01
   0.828E+02 0.680E+02 -.386E+02   -.935E+02 -.737E+02 0.390E+02   0.115E+02 0.629E+01 -.210E+00   -.233E+00 0.500E-01 0.610E+00
   -.507E+02 -.202E+03 -.668E+02   0.551E+02 0.215E+03 0.684E+02   -.377E+01 -.142E+02 -.352E+00   0.489E+00 0.120E+00 0.803E-01
   -.196E+03 0.333E+02 -.186E+03   0.211E+03 -.419E+02 0.195E+03   -.155E+02 0.883E+01 -.913E+01   -.122E+00 0.331E+00 0.246E-01
   0.164E+03 -.666E+02 0.840E+02   -.176E+03 0.681E+02 -.893E+02   0.119E+02 -.260E+01 0.539E+01   0.124E+00 0.216E-01 -.340E+00
   0.201E+02 0.916E+02 0.209E+02   -.232E+02 -.102E+03 -.269E+02   0.282E+01 0.115E+02 0.595E+01   -.177E+00 0.273E-01 0.231E+00
   -.186E+03 -.129E+03 -.179E+03   0.199E+03 0.138E+03 0.190E+03   -.140E+02 -.898E+01 -.117E+02   0.939E-01 -.404E-01 0.204E+00
   0.173E+03 0.897E+01 0.885E+01   -.185E+03 -.146E+02 -.898E+01   0.118E+02 0.658E+01 0.104E+01   -.244E+00 0.938E-01 -.670E-02
   0.525E+02 -.112E+03 -.155E+02   -.566E+02 0.121E+03 0.128E+02   0.322E+01 -.102E+02 0.322E+01   0.290E+00 -.290E+00 0.216E+00
   -.136E+03 0.443E+02 -.160E+03   0.151E+03 -.470E+02 0.172E+03   -.152E+02 0.458E+01 -.123E+02   -.131E+00 -.716E+00 0.120E+00
 -----------------------------------------------------------------------------------------------
   0.409E+02 0.430E+01 0.321E+02   -.853E-13 0.220E-12 0.881E-12   -.403E+02 -.291E+01 -.315E+02   -.570E+00 -.137E+01 -.579E+00
 
 
 POSITION                                       TOTAL-FORCE (eV/Angst)
 -----------------------------------------------------------------------------------
      7.06152      5.01262      2.49345         0.093249      0.585069      0.409671
      5.42911      2.26598      2.48309         0.821376      1.357646      0.072432
     -2.77831      3.32129     10.20543        -0.049993      0.677436      0.120124
      2.39107      0.50030      0.14063         0.475508     -1.555207     -1.021684
      2.30969      2.27045      2.48521        -0.423721     -0.436399      1.163998
      0.78772      5.17807      2.60792         0.388787     -0.178642     -0.674212
      1.93519      0.54638     10.21990         0.310178     -0.289053      0.004278
      7.14168      3.32187      0.04300         0.204163     -0.625200     -0.197033
      3.68969      5.03928      7.56985         0.677949      0.017318      0.207267
      2.11477      2.34055      7.51930         1.813864     -0.330455      0.266646
      0.49789      3.24525      4.96029         1.824001      1.741447     -0.627639
     -0.84311      0.51557      5.17520        -0.206894     -2.270881     -0.852096
     -1.02908      2.24856      7.51963         0.362849     -0.137400      0.944251
     -2.44650      5.13963      7.57423        -0.580161      0.252030     -0.047967
      5.31755      0.61970      4.93662         0.216500     -1.390488      0.223435
      3.83202      3.24403      5.09682         0.062958      0.161557     -0.093636
      6.96230     10.62952      2.51271         0.356190      0.126416      0.293545
      5.46096      7.84628      2.56253         0.694073      1.091856     -0.229307
     -2.86428      8.79634     10.21483         1.074139      1.766332      0.043511
      2.29678      6.06662      0.00661         1.426115     -0.507861     -0.614027
      2.29835      7.85424      2.59446        -1.010279     -0.941395     -0.966267
      0.77987     10.71418      2.52559         0.082599      1.053543      0.225769
      8.53906      6.12251      0.05708         1.140778     -0.010773     -0.775583
      7.09146      8.79635      0.02482         0.965991      0.258398      0.061822
      3.69202     10.58018      7.62386         0.633679      1.657139     -0.485152
      2.20939      7.89429      7.62006        -0.282838     -0.479176     -0.318821
      0.48322      8.89583      5.03141         1.107704      0.749064     -0.067451
     -0.88439      6.00922      5.04363        -0.189607      0.015820      0.444155
     -0.95364      7.90836      7.56165        -0.994994     -1.128224      0.484436
     -2.51530     10.68252      7.56210        -0.138297      1.112033     -0.223828
      5.30360      6.10793      4.97802         0.608425      0.121501      0.408560
      3.75501      8.81707      5.04035         0.720740      0.054010      0.204551
      7.24506      5.08777      0.64548         0.230242     -0.647923      0.201638
      0.84070      5.33585      0.72616        -0.870348      0.562438      0.412517
      3.80757      5.05739      0.59955        -1.263012     -0.719558     -1.344702
      5.53779      0.61581      3.04998         0.954353     -1.104489      0.954389
      3.85138      3.07108      3.15382         0.269016     -0.768611      0.671366
      6.93995      3.38943      3.03859        -1.402376     -0.500268     -0.638784
      2.40701      2.28171      0.69711         1.196410     -0.597587     -1.162952
      5.49866      2.53116      0.67662         0.054300      1.110161     -0.460349
      8.47886      2.22591      0.60027        -0.722296     -0.785769     -1.046810
      0.92371      3.36503      3.13265         0.249418      0.427224      0.453064
     -0.89223      0.28373      3.18859         0.037075     -1.385093      0.396285
      2.19381      0.51340      3.04904        -1.169237      0.270380     -0.781486
      3.90381      5.09508      5.65689         0.696216     -0.586917      0.307748
     -2.55913      5.28340      5.68957        -0.036619      1.228157      0.237782
      0.52810      5.07496      5.48444        -0.840973     -1.226681     -0.658100
      2.35549      0.64307      8.18750         0.616029     -0.623302      0.880124
      0.63806      3.08312      8.10748        -1.425155     -0.409269      1.003965
      3.71718      3.31980      8.08390        -1.256499      0.577314     -0.848751
     -0.70902      2.26487      5.67357        -0.804741     -0.807631      0.560530
      2.15884      2.57284      5.69669        -0.078208      0.781968     -0.087013
      5.31431      2.29506      5.47701        -0.767721     -0.376482     -0.309544
     -2.34948      3.39970      8.15307         0.412939     -0.015578      0.914225
     -4.23314      0.35896      8.23435         0.003312     -1.976851      0.676320
     -1.05324      0.54073      8.01092        -1.510906     -0.032057     -0.877170
      7.20218     10.65641      0.63686         0.939787     -0.318102     -0.034378
      0.79602     10.90535      0.62901        -0.056897      1.579833      0.446078
      3.92092     10.59183      0.47496        -1.874815     -0.654181     -1.130864
      5.67440      6.14852      3.13620         0.741444     -0.584398      0.405376
      3.80679      8.53670      3.13331         1.209464      0.134122      0.931894
      6.94577      8.85224      3.07422        -1.045393      1.100960     -0.836959
      2.48323      7.85458      0.60261         0.146112     -0.878655      0.534623
      5.49936      8.10802      0.66617        -0.580386      0.424621     -0.037762
      8.55936      7.79206      0.50673        -1.236299      0.175402     -0.762445
      0.96277      8.91325      3.22385         0.071398      0.807918     -0.065712
     -0.80458      5.85356      3.24456        -0.721491     -0.755451     -0.089256
      2.21615      6.11372      3.01161        -0.707437      0.732288     -0.340938
      3.95351     10.58373      5.59828         0.681016      0.270878      0.765301
     -2.53987     10.85704      5.60833         0.196562      1.729697      0.890994
      0.57307     10.64348      5.52103        -1.310829     -0.065023     -0.589707
      2.32144      6.10961      8.18069         0.550649      0.668894      0.849085
      0.52784      8.60552      8.17441         1.193820     -0.364667      1.285998
      3.59999      8.88500      7.99221        -0.466505      0.608097     -0.009927
     -0.78730      7.84980      5.74569        -0.007545     -1.080316     -0.240407
      2.19517      8.03901      5.74823        -0.430718      0.962087      0.175369
      5.23583      7.83148      5.53392        -0.950214     -0.693162     -0.747826
     -2.39150      8.88532      8.10458         0.173487      0.999325      0.905737
     -4.11213      5.81229      8.15020        -0.577466     -0.882003      0.776066
     -1.07150      6.07227      8.15249        -0.693996      1.170796     -0.918381
 -----------------------------------------------------------------------------------
    total drift:                               -0.004841      0.023543      0.004103


--------------------------------------------------------------------------------------------------------



  FREE ENERGIE OF THE ION-ELECTRON SYSTEM (eV)
  ---------------------------------------------------
  free  energy   TOTEN  =      -467.6298244447 eV

  energy  without entropy=     -467.5223292619  energy(sigma->0) =     -467.57607685
 


--------------------------------------------------------------------------------------------------------


    POTLOK:  cpu time    0.2905: real time    0.2912


--------------------------------------------------------------------------------------------------------


     LOOP+:  cpu time17921.7779: real time17964.7267
    4ORBIT:  cpu time    0.0000: real time    0.0000

volume of typ            1:    17.9 %

volume of typ            2:     6.9 %
 
total charge     
 
# of ion       s       p       d       tot
------------------------------------------
    1        0.262   0.284   7.850   8.395
    2        0.272   0.311   7.810   8.392
    3        0.223   0.219   7.818   8.260
    4        0.223   0.203   7.805   8.231
    5        0.273   0.318   7.805   8.395
    6        0.272   0.313   7.813   8.398
    7        0.210   0.187   7.820   8.218
    8        0.233   0.237   7.864   8.335
    9        0.255   0.268   7.816   8.339
   10        0.278   0.318   7.809   8.405
   11        0.271   0.311   7.838   8.420
   12        0.234   0.233   7.797   8.264
   13        0.265   0.297   7.799   8.362
   14        0.279   0.320   7.790   8.388
   15        0.232   0.223   7.836   8.290
   16        0.250   0.270   7.827   8.347
   17        0.221   0.204   7.821   8.247
   18        0.261   0.293   7.831   8.386
   19        0.245   0.252   7.830   8.327
   20        0.246   0.255   7.822   8.324
   21        0.281   0.333   7.845   8.460
   22        0.231   0.225   7.797   8.253
   23        0.253   0.256   7.866   8.375
   24        0.238   0.242   7.828   8.308
   25        0.227   0.216   7.815   8.258
   26        0.271   0.308   7.815   8.394
   27        0.264   0.292   7.816   8.371
   28        0.270   0.300   7.834   8.404
   29        0.283   0.333   7.835   8.450
   30        0.227   0.208   7.793   8.228
   31        0.250   0.261   7.836   8.347
   32        0.259   0.286   7.805   8.350
   33        1.265   2.759   0.010   4.034
   34        1.277   2.704   0.007   3.987
   35        1.286   2.662   0.005   3.953
   36        1.268   2.735   0.007   4.011
   37        1.273   2.722   0.007   4.002
   38        1.285   2.688   0.007   3.980
   39        1.266   2.744   0.008   4.017
   40        1.268   2.732   0.007   4.007
   41        1.281   2.693   0.007   3.980
   42        1.267   2.736   0.007   4.010
   43        1.281   2.656   0.003   3.940
   44        1.283   2.671   0.005   3.959
   45        1.267   2.729   0.006   4.003
   46        1.278   2.688   0.005   3.971
   47        1.286   2.689   0.007   3.982
   48        1.268   2.703   0.004   3.975
   49        1.277   2.708   0.007   3.991
   50        1.287   2.668   0.005   3.961
   51        1.262   2.786   0.011   4.059
   52        1.271   2.730   0.007   4.009
   53        1.280   2.709   0.008   3.997
   54        1.268   2.721   0.006   3.995
   55        1.288   2.614   0.002   3.904
   56        1.284   2.672   0.005   3.962
   57        1.266   2.709   0.005   3.979
   58        1.275   2.684   0.004   3.964
   59        1.287   2.643   0.004   3.933
   60        1.265   2.751   0.008   4.024
   61        1.269   2.758   0.009   4.036
   62        1.283   2.677   0.005   3.965
   63        1.268   2.736   0.007   4.011
   64        1.268   2.731   0.007   4.005
   65        1.282   2.705   0.008   3.995
   66        1.263   2.751   0.007   4.021
   67        1.275   2.717   0.007   3.999
   68        1.283   2.707   0.008   3.999
   69        1.270   2.696   0.004   3.970
   70        1.282   2.655   0.003   3.940
   71        1.285   2.670   0.005   3.960
   72        1.272   2.709   0.006   3.986
   73        1.274   2.726   0.007   4.007
   74        1.280   2.725   0.009   4.014
   75        1.266   2.754   0.008   4.028
   76        1.275   2.712   0.006   3.993
   77        1.286   2.683   0.006   3.975
   78        1.269   2.718   0.006   3.994
   79        1.280   2.666   0.004   3.950
   80        1.286   2.681   0.006   3.973
--------------------------------------------------
tot          69.28  138.46  250.59  458.33
 
magnetization (x)
 
# of ion       s       p       d       tot
------------------------------------------
    1        0.003   0.014   0.868   0.885
    2       -0.001  -0.014  -0.990  -1.005
    3        0.002   0.022   1.286   1.310
    4       -0.002  -0.016  -1.278  -1.297
    5        0.000   0.026   1.160   1.187
    6        0.001   0.014   0.591   0.606
    7        0.007   0.020   1.418   1.445
    8        0.004   0.017   0.971   0.992
    9        0.002   0.022   1.209   1.234
   10        0.000   0.022   1.105   1.128
   11       -0.001  -0.011  -0.898  -0.910
   12       -0.001   0.020   1.404   1.423
   13        0.002   0.015   1.045   1.062
   14        0.000   0.013   0.838   0.852
   15        0.007   0.016   1.197   1.220
   16        0.004   0.019   1.038   1.061
   17        0.002   0.021   1.421   1.443
   18        0.002   0.023   1.141   1.165
   19        0.003   0.013   1.046   1.062
   20        0.000   0.016   1.077   1.094
   21       -0.001  -0.012  -0.961  -0.973
   22       -0.002   0.023   1.431   1.452
   23        0.004   0.004   0.233   0.241
   24        0.004   0.019   1.224   1.248
   25        0.005   0.011   1.151   1.167
   26        0.001  -0.010  -0.864  -0.873
   27        0.005   0.022   1.174   1.201
   28        0.001   0.015   0.732   0.748
   29       -0.000   0.022   0.925   0.947
   30       -0.001  -0.018  -1.277  -1.296
   31        0.004   0.020   0.994   1.017
   32        0.000   0.024   1.294   1.319
   33        0.006   0.088   0.000   0.094
   34        0.006   0.178   0.000   0.184
   35        0.012   0.531   0.000   0.543
   36        0.003   0.007  -0.000   0.009
   37        0.004   0.099   0.000   0.103
   38        0.003   0.156   0.000   0.158
   39        0.004   0.052   0.000   0.057
   40        0.003   0.065   0.000   0.068
   41        0.012   0.485   0.000   0.497
   42        0.004   0.064   0.000   0.068
   43        0.014   0.526   0.000   0.540
   44        0.013   0.532   0.000   0.545
   45        0.010   0.231   0.000   0.242
   46        0.009   0.243   0.000   0.252
   47        0.000  -0.003   0.000  -0.003
   48        0.011   0.292   0.000   0.303
   49        0.010   0.315   0.000   0.324
   50        0.012   0.510   0.000   0.521
   51        0.005   0.039   0.000   0.044
   52        0.003   0.078   0.000   0.081
   53        0.010   0.430   0.000   0.440
   54        0.009   0.197   0.000   0.206
   55       -0.007  -0.290  -0.000  -0.296
   56        0.004   0.187   0.000   0.191
   57        0.014   0.367   0.000   0.381
   58        0.004   0.141   0.000   0.145
   59        0.005   0.192   0.000   0.197
   60        0.010   0.191   0.000   0.201
   61        0.004   0.085   0.000   0.089
   62        0.011   0.512   0.000   0.524
   63        0.002   0.062   0.000   0.065
   64        0.012   0.313   0.000   0.325
   65        0.007   0.281  -0.000   0.288
   66        0.004   0.039   0.000   0.043
   67        0.007   0.219   0.000   0.226
   68       -0.004  -0.172   0.000  -0.176
   69        0.012   0.337   0.000   0.349
   70        0.003   0.131  -0.000   0.134
   71        0.013   0.547   0.000   0.560
   72        0.002   0.005   0.000   0.008
   73        0.005   0.112   0.000   0.117
   74        0.001   0.079   0.000   0.080
   75        0.009   0.206   0.000   0.215
   76        0.004   0.135   0.000   0.140
   77        0.011   0.475   0.000   0.487
   78        0.002   0.047   0.000   0.049
   79        0.009   0.315   0.000   0.324
   80        0.008   0.351   0.000   0.359
--------------------------------------------------
tot           0.37   10.37   21.71   32.46
 

 total amount of memory used by VASP MPI-rank0   631873. kBytes
=======================================================================

   base      :      30000. kBytes
   nonlr-proj:      48955. kBytes
   fftplans  :      11488. kBytes
   grid      :      65714. kBytes
   one-center:       2488. kBytes
   wavefun   :     473228. kBytes
 
  
  
 General timing and accounting informations for this job:
 ========================================================
  
                  Total CPU time used (sec):    18047.193
                            User time (sec):    18031.873
                          System time (sec):       15.321
                         Elapsed time (sec):    18096.089
  
                   Maximum memory used (kb):      743268.
                   Average memory used (kb):           0.
  
                          Minor page faults:        44565
                          Major page faults:           19
                 Voluntary context switches:         1194
