 vasp.5.4.4.18Apr17-6-g9f103f2a35 (build May 12 2020 04:58:55) complex          
  
 MD_VERSION_INFO: Compiled 2020-05-12T11:58:55-UTC in devlin.sd.materialsdesign.
 com:/home/medea2/data/build/wwolf/vasp-gpu5.4.4/13047/x86_64/src/src/build/std 
 from svn 13047
 
 This VASP executable licensed from Materials Design, Inc.
 
 executed on                        Lin64 date 2023.03.25  16:34:55
 running on   16 total cores
 distrk:  each k-point on   16 cores,    1 groups
 distr:  one band on NCORES_PER_BAND=   1 cores,   16 groups


--------------------------------------------------------------------------------------------------------


 INCAR:
 POTCAR:    PAW_PBE Ni 02Aug2007                  
 POTCAR:    PAW_PBE O 08Apr2002                   

 ----------------------------------------------------------------------------- 
|                                                                             |
|           W    W    AA    RRRRR   N    N  II  N    N   GGGG   !!!           |
|           W    W   A  A   R    R  NN   N  II  NN   N  G    G  !!!           |
|           W    W  A    A  R    R  N N  N  II  N N  N  G       !!!           |
|           W WW W  AAAAAA  RRRRR   N  N N  II  N  N N  G  GGG   !            |
|           WW  WW  A    A  R   R   N   NN  II  N   NN  G    G                |
|           W    W  A    A  R    R  N    N  II  N    N   GGGG   !!!           |
|                                                                             |
|      For optimal performance we recommend to set                            |
|        NCORE= 4 - approx SQRT( number of cores)                             |
|      NCORE specifies how many cores store one orbital (NPAR=cpu/NCORE).     |
|      This setting can  greatly improve the performance of VASP for DFT.     |
|      The default,   NCORE=1            might be grossly inefficient         |
|      on modern multi-core architectures or massively parallel machines.     |
|      Do your own testing !!!!                                               |
|      Unfortunately you need to use the default for GW and RPA calculations. |
|      (for HF NCORE is supported but not extensively tested yet)             |
|                                                                             |
 ----------------------------------------------------------------------------- 

 POTCAR:    PAW_PBE Ni 02Aug2007                  
  local pseudopotential read in
  partial core-charges read in
  partial kinetic energy density read in
  atomic valenz-charges read in
  non local Contribution for L=           2  read in
    real space projection operators read in
  non local Contribution for L=           2  read in
    real space projection operators read in
  non local Contribution for L=           0  read in
    real space projection operators read in
  non local Contribution for L=           0  read in
    real space projection operators read in
  non local Contribution for L=           1  read in
    real space projection operators read in
  non local Contribution for L=           1  read in
    real space projection operators read in
    PAW grid and wavefunctions read in
 
   number of l-projection  operators is LMAX  =           6
   number of lm-projection operators is LMMAX =          18
 
 POTCAR:    PAW_PBE O 08Apr2002                   
  local pseudopotential read in
  partial core-charges read in
  partial kinetic energy density read in
  kinetic energy density of atom read in
  atomic valenz-charges read in
  non local Contribution for L=           0  read in
    real space projection operators read in
  non local Contribution for L=           0  read in
    real space projection operators read in
  non local Contribution for L=           1  read in
    real space projection operators read in
  non local Contribution for L=           1  read in
    real space projection operators read in
    PAW grid and wavefunctions read in
 
   number of l-projection  operators is LMAX  =           4
   number of lm-projection operators is LMMAX =           8
 
 Optimization of the real space projectors (new method)

 maximal supplied QI-value         = 16.25
 optimisation between [QCUT,QGAM] = [ 11.38, 22.75] = [ 36.24,144.96] Ry 
 Optimized for a Real-space Cutoff    1.47 Angstroem

   l    n(q)    QCUT    max X(q) W(low)/X(q) W(high)/X(q)  e(spline) 
   2      9    11.376    60.317    0.17E-03    0.16E-04    0.16E-06
   2      9    11.376    55.921    0.17E-03    0.16E-04    0.17E-06
   0     10    11.376    51.690    0.45E-04    0.60E-04    0.21E-06
   0     10    11.376    30.015    0.37E-04    0.55E-04    0.19E-06
   1     10    11.376    18.849    0.83E-04    0.11E-03    0.92E-07
   1     10    11.376    14.624    0.69E-04    0.92E-04    0.82E-07
 Optimization of the real space projectors (new method)

 maximal supplied QI-value         = 24.76
 optimisation between [QCUT,QGAM] = [ 11.39, 22.77] = [ 36.31,145.25] Ry 
 Optimized for a Real-space Cutoff    1.10 Angstroem

   l    n(q)    QCUT    max X(q) W(low)/X(q) W(high)/X(q)  e(spline) 
   0      7    11.387    20.381    0.22E-03    0.48E-03    0.18E-06
   0      7    11.387    15.268    0.22E-03    0.52E-03    0.19E-06
   1      7    11.387     5.964    0.22E-03    0.73E-03    0.24E-06
   1      7    11.387     5.382    0.19E-03    0.60E-03    0.21E-06

 ----------------------------------------------------------------------------- 
|                                                                             |
|  ADVICE TO THIS USER RUNNING 'VASP/VAMP'   (HEAR YOUR MASTER'S VOICE ...):  |
|                                                                             |
|      You enforced a specific xc-type in the INCAR file,                     |
|      a different type was found on the POTCAR file                          |
|          I HOPE YOU KNOW, WHAT YOU ARE  DOING                               |
|                                                                             |
 ----------------------------------------------------------------------------- 

  PAW_PBE Ni 02Aug2007                  :
 energy of atom  1       EATOM=-1077.6739
 kinetic energy error for atom=    0.0030 (will be added to EATOM!!)
  PAW_PBE O 08Apr2002                   :
 energy of atom  2       EATOM= -432.3788
 kinetic energy error for atom=    0.0224 (will be added to EATOM!!)
 
 
 POSCAR: Ni2O3_Cc_scale_1_000_disp_0_20_round_2  
  positions in direct lattice
  No initial velocities read in
 exchange correlation table for  LEXCH =       14
   RHO(1)=    0.500       N(1)  =     2000
   RHO(2)=  100.500       N(2)  =     4000
 


--------------------------------------------------------------------------------------------------------


 ion  position               nearest neighbor table
   1  0.915  0.454  0.235-  33 1.76  67 1.78  38 1.94  60 2.00   8 2.74   6 2.92   2 2.98  18 3.07
                            23 3.07
   2  0.760  0.221  0.234-  40 1.72  38 1.75  36 2.16   8 2.85   1 2.98  17 3.01
   3  0.386  0.276  0.974-  54 1.31  39 1.70  40 1.93  35 2.26  13 2.81   4 2.93  14 2.98   5 3.08

   4  0.301  0.036  0.018-  59 1.40  39 1.98  55 2.03  58 2.25  30 2.73   5 2.86   3 2.93
   5  0.404  0.204  0.229-  37 1.64  39 1.69  42 2.03  44 2.04   4 2.86  22 3.05   3 3.08
   6  0.249  0.466  0.277-  67 1.65  42 1.84  68 2.04  11 2.39  34 2.40  21 2.87   1 2.92  28 2.98

   7  0.870  0.030  0.996-  57 1.66  41 1.89  48 1.98  58 2.13  24 2.57  17 2.80  10 2.91
   8  0.788  0.302  0.021-  33 1.53  41 1.71  40 1.99  49 2.33   1 2.74   2 2.85  23 2.88  10 3.01

   9  0.927  0.439  0.764-  45 1.58  50 1.97  79 2.09  72 2.21  16 2.66  20 2.95  23 2.99  14 3.03

  10  0.766  0.199  0.779-  48 1.92  50 2.12  49 2.12  52 2.39   7 2.91   8 3.01
  11  0.411  0.354  0.479-  47 1.34  42 1.71  52 2.29   6 2.39  28 2.82
  12  0.273  0.050  0.531-  51 1.42  71 1.74  70 1.89  43 2.12  56 2.51  13 3.02
  13  0.409  0.232  0.753-  49 1.47  51 1.97  56 2.00  54 2.12   3 2.81  14 2.97  12 3.02
  14  0.239  0.456  0.754-  79 1.71  80 1.79  54 1.96  46 2.08  20 2.94  13 2.97   3 2.98  29 3.00
                             9 3.03
  15  0.907  0.037  0.496-  70 1.65  69 1.82  53 1.95  36 2.07  25 2.84  32 2.90
  16  0.803  0.308  0.543-  53 1.48  45 1.55  52 2.09  37 2.28   9 2.66  31 2.95
  17  0.916  0.982  0.243-  36 1.38  43 1.68  57 1.81  62 2.21   7 2.80  22 2.99   2 3.01
  18  0.767  0.672  0.292-  60 1.56  61 1.83  62 2.06  64 2.21  31 2.59  21 2.97   1 3.07
  19  0.452  0.788  0.002-  64 1.70  78 1.91  59 2.06  63 2.13  29 2.72
  20  0.231  0.566  0.973-  63 1.50  79 1.57  34 1.79  35 2.31  14 2.94   9 2.95
  21  0.435  0.663  0.263-  68 1.08  61 1.98  63 2.05   6 2.87  18 2.97
  22  0.246  0.982  0.266-  43 1.67  44 1.68  58 1.86  66 2.19  17 2.99   5 3.05
  23  0.882  0.533  0.976-  72 1.63  65 1.81  33 1.86  34 2.16   8 2.88   9 2.99   1 3.07
  24  0.782  0.811  0.993-  65 1.72  57 1.87  73 1.88  64 2.41   7 2.57  26 3.06
  25  0.913  0.960  0.725-  55 1.70  69 1.80  48 1.82  74 2.09  32 2.56  15 2.84  30 3.04
  26  0.735  0.710  0.737-  76 1.48  72 1.78  74 1.95  73 2.02  27 2.69  32 2.96  24 3.06
  27  0.449  0.790  0.518-  76 1.61  66 1.71  75 1.94  71 2.28  26 2.69  32 2.87
  28  0.257  0.554  0.516-  46 1.71  75 1.78  67 1.91  47 1.97  11 2.82   6 2.98  29 3.01
  29  0.382  0.699  0.765-  78 1.75  80 1.85  73 2.05  75 2.14  19 2.72  14 3.00  28 3.01
  30  0.266  0.985  0.781-  56 1.59  78 1.86  55 2.04  70 2.31   4 2.73  25 3.04
  31  0.903  0.550  0.511-  77 1.76  60 1.88  46 2.01  45 2.14  18 2.59  16 2.95
  32  0.752  0.822  0.521-  69 1.34  77 2.01  61 2.11  76 2.33  25 2.56  27 2.87  15 2.90  26 2.96

  33  0.812  0.434  0.062-   8 1.53   1 1.76  23 1.86
  34  0.137  0.480  0.043-  20 1.79  23 2.16   6 2.40
  35  0.480  0.460  0.066-   3 2.26  20 2.31
  36  0.841  0.039  0.301-  17 1.38  15 2.07   2 2.16
  37  0.582  0.275  0.329-   5 1.64  16 2.28
  38  0.952  0.299  0.320-   2 1.75   1 1.94
  39  0.317  0.209  0.063-   5 1.69   3 1.70   4 1.98
  40  0.624  0.246  0.065-   2 1.72   3 1.93   8 1.99
  41  0.929  0.192  0.049-   8 1.71   7 1.89
  42  0.315  0.308  0.317-  11 1.71   6 1.84   5 2.03
  43  0.128  0.993  0.330-  22 1.67  17 1.68  12 2.12
  44  0.435  0.046  0.325-  22 1.68   5 2.04
  45  0.822  0.433  0.607-  16 1.55   9 1.58  31 2.14
  46  0.124  0.485  0.551-  28 1.71  31 2.01  14 2.08
  47  0.450  0.453  0.553-  11 1.34  28 1.97
  48  0.838  0.035  0.818-  25 1.82  10 1.92   7 1.98
  49  0.575  0.281  0.796-  13 1.47  10 2.12   8 2.33
  50  0.001  0.275  0.834-   9 1.97  10 2.12
  51  0.295  0.172  0.569-  12 1.42  13 1.97
  52  0.614  0.210  0.542-  16 2.09  11 2.29  10 2.39
  53  0.894  0.196  0.558-  16 1.48  15 1.95
  54  0.288  0.301  0.846-   3 1.31  14 1.96  13 2.12
  55  0.097  0.033  0.828-  25 1.70   4 2.03  30 2.04
  56  0.412  0.054  0.779-  30 1.59  13 2.00  12 2.51
  57  0.781  0.960  0.065-   7 1.66  17 1.81  24 1.87
  58  0.126  0.979  0.080-  22 1.86   7 2.13   4 2.25
  59  0.439  0.963  0.051-   4 1.40  19 2.06
  60  0.826  0.539  0.330-  18 1.56  31 1.88   1 2.00
  61  0.633  0.767  0.321-  18 1.83  21 1.98  32 2.11
  62  0.942  0.795  0.312-  18 2.06  17 2.21
  63  0.325  0.672  0.061-  20 1.50  21 2.05  19 2.13
  64  0.634  0.707  0.076-  19 1.70  18 2.21  24 2.41
  65  0.910  0.692  0.016-  24 1.72  23 1.81
  66  0.303  0.801  0.350-  27 1.71  22 2.19
  67  0.135  0.485  0.342-   6 1.65   1 1.78  28 1.91
  68  0.435  0.570  0.289-  21 1.08   6 2.04
  69  0.800  0.937  0.548-  32 1.34  25 1.80  15 1.82
  70  0.100  0.992  0.550-  15 1.65  12 1.89  30 2.31
  71  0.441  0.994  0.525-  12 1.74  27 2.28
  72  0.800  0.569  0.820-  23 1.63  26 1.78   9 2.21
  73  0.608  0.772  0.817-  24 1.88  26 2.02  29 2.05
  74  0.952  0.783  0.796-  26 1.95  25 2.09
  75  0.304  0.708  0.560-  28 1.78  27 1.94  29 2.14
  76  0.613  0.704  0.592-  26 1.48  27 1.61  32 2.33
  77  0.930  0.704  0.552-  31 1.76  32 2.01
  78  0.318  0.824  0.815-  29 1.75  30 1.86  19 1.91
  79  0.148  0.532  0.823-  20 1.57  14 1.71   9 2.09
  80  0.430  0.541  0.820-  14 1.79  29 1.85
 
  LATTYP: Found a simple monoclinic cell.
 ALAT       =    15.9476545966
 B/A-ratio  =     0.6987547876
 C/A-ratio  =     1.5833429409
 COS(beta)  =    -0.9717709890
  
  Lattice vectors:
  
 A1 = ( -12.3942402100,   0.0000000000, -10.0354619600)
 A2 = (   0.0000000000, -11.1435000000,   0.0000000000)
 A3 = (  15.3215904200,   0.0000000000,  20.0709239200)


Analysis of symmetry for initial positions (statically):
=====================================================================
 Subroutine PRICEL returns:
 Original cell was already a primitive cell.
 

 Routine SETGRP: Setting up the symmetry group for a 
 simple monoclinic supercell.


 Subroutine GETGRP returns: Found  1 space group operations
 (whereof  1 operations were pure point group operations)
 out of a pool of  4 trial point group operations.


The static configuration has the point symmetry C_1 .


Analysis of symmetry for dynamics (positions and initial velocities):
=====================================================================
 Subroutine PRICEL returns:
 Original cell was already a primitive cell.
 

 Routine SETGRP: Setting up the symmetry group for a 
 simple monoclinic supercell.


 Subroutine GETGRP returns: Found  1 space group operations
 (whereof  1 operations were pure point group operations)
 out of a pool of  4 trial point group operations.


The dynamic configuration has the point symmetry C_1 .


Analysis of structural, dynamic, and magnetic symmetry:
=====================================================================
 Subroutine PRICEL returns:
 Original cell was already a primitive cell.
 

 Routine SETGRP: Setting up the symmetry group for a 
 simple monoclinic supercell.


 Subroutine GETGRP returns: Found  1 space group operations
 (whereof  1 operations were pure point group operations)
 out of a pool of  4 trial point group operations.


The magnetic configuration has the point symmetry C_1 .


 Subroutine INISYM returns: Found  1 space group operations
 (whereof  1 operations are pure point group operations),
 and found     1 'primitive' translations

 
 
 KPOINTS: Automatic mesh                          

Automatic generation of k-mesh.
Space group operators:
 irot       det(A)        alpha          n_x          n_y          n_z        tau_x        tau_y        tau_z
    1     1.000000     0.000000     1.000000     0.000000     0.000000     0.000000     0.000000     0.000000
 
 Subroutine IBZKPT returns following result:
 ===========================================
 
 Found     19 irreducible k-points:
 
 Following reciprocal coordinates:
            Coordinates               Weight
  0.000000  0.000000  0.000000      1.000000
  0.250000  0.000000 -0.000000      2.000000
  0.500000  0.000000 -0.000000      1.000000
  0.000000  0.333333  0.000000      2.000000
  0.250000  0.333333 -0.000000      2.000000
  0.500000  0.333333 -0.000000      2.000000
 -0.250000  0.333333  0.000000      2.000000
  0.000000  0.000000  0.333333      2.000000
  0.250000  0.000000  0.333333      2.000000
  0.500000  0.000000  0.333333      2.000000
 -0.250000  0.000000  0.333333      2.000000
  0.000000  0.333333  0.333333      2.000000
  0.250000  0.333333  0.333333      2.000000
  0.500000  0.333333  0.333333      2.000000
 -0.250000  0.333333  0.333333      2.000000
  0.000000 -0.333333  0.333333      2.000000
  0.250000 -0.333333  0.333333      2.000000
  0.500000 -0.333333  0.333333      2.000000
 -0.250000 -0.333333  0.333333      2.000000
 
 Following cartesian coordinates:
            Coordinates               Weight
  0.000000  0.000000  0.000000      1.000000
  0.026408  0.000000  0.017208      2.000000
  0.052816  0.000000  0.034417      1.000000
  0.000000  0.029913  0.000000      2.000000
  0.026408  0.029913  0.017208      2.000000
  0.052816  0.029913  0.034417      2.000000
 -0.026408  0.029913 -0.017208      2.000000
  0.000000  0.000000  0.033216      2.000000
  0.026408  0.000000  0.050424      2.000000
  0.052816  0.000000  0.067633      2.000000
 -0.026408  0.000000  0.016007      2.000000
  0.000000  0.029913  0.033216      2.000000
  0.026408  0.029913  0.050424      2.000000
  0.052816  0.029913  0.067633      2.000000
 -0.026408  0.029913  0.016007      2.000000
  0.000000 -0.029913  0.033216      2.000000
  0.026408 -0.029913  0.050424      2.000000
  0.052816 -0.029913  0.067633      2.000000
 -0.026408 -0.029913  0.016007      2.000000
 


--------------------------------------------------------------------------------------------------------




 Dimension of arrays:
   k-points           NKPTS =     19   k-points in BZ     NKDIM =     19   number of bands    NBANDS=    416
   number of dos      NEDOS =    301   number of ions     NIONS =     80
   non local maximal  LDIM  =      6   non local SUM 2l+1 LMDIM =     18
   total plane-waves  NPLWV = 529200
   max r-space proj   IRMAX =   6761   max aug-charges    IRDMAX=  16401
   dimension x,y,z NGX =    70 NGY =   84 NGZ =   90
   dimension x,y,z NGXF=   140 NGYF=  168 NGZF=  180
   support grid    NGXF=   140 NGYF=  168 NGZF=  180
   ions per type =              32  48
   NGX,Y,Z   is equivalent  to a cutoff of  12.29, 12.53, 12.49 a.u.
   NGXF,Y,Z  is equivalent  to a cutoff of  24.59, 25.06, 24.98 a.u.

 SYSTEM =  unknown system                          
 POSCAR =  Ni2O3_Cc_scale_1_000_disp_0_20_round_2  

 Startparameter for this run:
   NWRITE =      1    write-flag & timer
   PREC   = accura    normal or accurate (medium, high low for compatibility)
   ISTART =      0    job   : 0-new  1-cont  2-samecut
   ICHARG =      2    charge: 1-file 2-atom 10-const
   ISPIN  =      2    spin polarized calculation?
   LNONCOLLINEAR =      F non collinear calculations
   LSORBIT =      F    spin-orbit coupling
   INIWAV =      1    electr: 0-lowe 1-rand  2-diag
   LASPH  =      F    aspherical Exc in radial PAW
   METAGGA=      F    non-selfconsistent MetaGGA calc.

 Electronic Relaxation 1
   ENCUT  =  500.0 eV  36.75 Ry    6.06 a.u.  17.26 20.32 21.84*2*pi/ulx,y,z
   ENINI  =  500.0     initial cutoff
   ENAUG  =  605.4 eV  augmentation charge cutoff
   NELM   =     80;   NELMIN=  2; NELMDL= -5     # of ELM steps 
   EDIFF  = 0.1E-04   stopping-criterion for ELM
   LREAL  =      T    real-space projection
   NLSPLINE    = F    spline interpolate recip. space projectors
   LCOMPAT=      F    compatible to vasp.4.4
   GGA_COMPAT  = T    GGA compatible to vasp.4.4-vasp.4.6
   LMAXPAW     = -100 max onsite density
   LMAXMIX     =    2 max onsite mixed and CHGCAR
   VOSKOWN=      1    Vosko Wilk Nusair interpolation
   ROPT   =   -0.00025  -0.00025
 Ionic relaxation
   EDIFFG = 0.1E-03   stopping-criterion for IOM
   NSW    =      0    number of steps for IOM
   NBLOCK =      1;   KBLOCK =      1    inner block; outer block 
   IBRION =     -1    ionic relax: 0-MD 1-quasi-New 2-CG
   NFREE  =      0    steps in history (QN), initial steepest desc. (CG)
   ISIF   =      2    stress and relaxation
   IWAVPR =     10    prediction:  0-non 1-charg 2-wave 3-comb
   ISYM   =      2    0-nonsym 1-usesym 2-fastsym
   LCORR  =      T    Harris-Foulkes like correction to forces

   POTIM  = 0.5000    time-step for ionic-motion
   TEIN   =    0.0    initial temperature
   TEBEG  =    0.0;   TEEND  =   0.0 temperature during run
   SMASS  =  -3.00    Nose mass-parameter (am)
   estimated Nose-frequenzy (Omega)   =  0.10E-29 period in steps =****** mass=  -0.205E-26a.u.
   SCALEE = 1.0000    scale energy and forces
   NPACO  =    256;   APACO  = 16.0  distance and # of slots for P.C.
   PSTRESS=    0.0 pullay stress

  Mass of Ions in am
   POMASS =  58.69 16.00
  Ionic Valenz
   ZVAL   =  10.00  6.00
  Atomic Wigner-Seitz radii
   RWIGS  =   1.15  0.73
  virtual crystal weights 
   VCA    =   1.00  1.00
   NELECT =     608.0000    total number of electrons
   NUPDOWN=      -1.0000    fix difference up-down

 DOS related values:
   EMIN   =  10.00;   EMAX   =-10.00  energy-range for DOS
   EFERMI =   0.00
   ISMEAR =     0;   SIGMA  =   0.05  broadening in eV -4-tet -1-fermi 0-gaus

 Electronic relaxation 2 (details)
   IALGO  =     38    algorithm
   LDIAG  =      T    sub-space diagonalisation (order eigenvalues)
   LSUBROT=      F    optimize rotation matrix (better conditioning)
   TURBO    =      0    0=normal 1=particle mesh
   IRESTART =      0    0=no restart 2=restart with 2 vectors
   NREBOOT  =      0    no. of reboots
   NMIN     =      0    reboot dimension
   EREF     =   0.00    reference energy to select bands
   IMIX   =      4    mixing-type and parameters
     AMIX     =   0.40;   BMIX     =  1.00
     AMIX_MAG =   1.60;   BMIX_MAG =  1.00
     AMIN     =   0.10
     WC   =   100.;   INIMIX=   1;  MIXPRE=   1;  MAXMIX= -45

 Intra band minimization:
   WEIMIN = 0.0000     energy-eigenvalue tresh-hold
   EBREAK =  0.60E-08  absolut break condition
   DEPER  =   0.30     relativ break condition  

   TIME   =   0.40     timestep for ELM

  volume/ion in A,a.u.               =      13.23        89.30
  Fermi-wavevector in a.u.,A,eV,Ry     =   1.360778  2.571497 25.194133  1.851717
  Thomas-Fermi vector in A             =   2.487411
 
 Write flags
   LWAVE        =      F    write WAVECAR
   LDOWNSAMPLE  =      F    k-point downsampling of WAVECAR
   LCHARG       =      T    write CHGCAR
   LVTOT        =      F    write LOCPOT, total local potential
   LVHAR        =      F    write LOCPOT, Hartree potential only
   LELF         =      F    write electronic localiz. function (ELF)
   LORBIT       =      0    0 simple, 1 ext, 2 COOP (PROOUT), +10 PAW based schemes


 Dipole corrections
   LMONO  =      F    monopole corrections only (constant potential shift)
   LDIPOL =      F    correct potential (dipole corrections)
   IDIPOL =      0    1-x, 2-y, 3-z, 4-all directions 
   EPSILON=  1.0000000 bulk dielectric constant

 Exchange correlation treatment:
   GGA     =    PS    GGA type
   LEXCH   =    14    internal setting for exchange type
   VOSKOWN=      1    Vosko Wilk Nusair interpolation
   LHFCALC =     F    Hartree Fock is set to
   LHFONE  =     F    Hartree Fock one center treatment
   AEXX    =    0.0000 exact exchange contribution

 Linear response parameters
   LEPSILON=     F    determine dielectric tensor
   LRPA    =     F    only Hartree local field effects (RPA)
   LNABLA  =     F    use nabla operator in PAW spheres
   LVEL    =     F    velocity operator in full k-point grid
   LINTERFAST=   F  fast interpolation
   KINTER  =     0    interpolate to denser k-point grid
   CSHIFT  =0.1000    complex shift for real part using Kramers Kronig
   OMEGAMAX=  -1.0    maximum frequency
   DEG_THRESHOLD= 0.2000000E-02 threshold for treating states as degnerate
   RTIME   =   -0.100 relaxation time in fs
  (WPLASMAI=    0.000 imaginary part of plasma frequency in eV, 0.658/RTIME)
   DFIELD  = 0.0000000 0.0000000 0.0000000 field for delta impulse in time
 
 Orbital magnetization related:
   ORBITALMAG=     F  switch on orbital magnetization
   LCHIMAG   =     F  perturbation theory with respect to B field
   DQ        =  0.001000  dq finite difference perturbation B field
   LLRAUG    =     F  two centre corrections for induced B field



--------------------------------------------------------------------------------------------------------


 Static calculation
 charge density and potential will be updated during run
 spin polarized calculation
 Variant of blocked Davidson
 Davidson routine will perform the subspace rotation
 perform sub-space diagonalisation
    after iterative eigenvector-optimisation
 modified Broyden-mixing scheme, WC =      100.0
 initial mixing is a Kerker type mixing with AMIX =  0.4000 and BMIX =      1.0000
 Hartree-type preconditioning will be used
 using additional bands          112
 real space projection scheme for non local part
 use partial core corrections
 calculate Harris-corrections to forces 
   (improved forces if not selfconsistent)
 use gradient corrections 
 use of overlap-Matrix (Vanderbilt PP)
 Gauss-broadening in eV      SIGMA  =   0.05


--------------------------------------------------------------------------------------------------------


  energy-cutoff  :      500.00
  volume of cell :     1058.68
      direct lattice vectors                 reciprocal lattice vectors
     9.466890000  0.000000000  0.000000000     0.105631311  0.000000000  0.068833917
     0.000000000 11.143500000  0.000000000     0.000000000  0.089738413  0.000000000
    -6.539539790  0.000000000 10.035461960     0.000000000  0.000000000  0.099646634

  length of vectors
     9.466890000 11.143500000 11.978150000     0.126079665  0.089738413  0.099646634


 
 k-points in units of 2pi/SCALE and weight: Automatic mesh                          
   0.00000000  0.00000000  0.00000000       0.028
   0.02640783  0.00000000  0.01720848       0.056
   0.05281566  0.00000000  0.03441696       0.028
   0.00000000  0.02991280  0.00000000       0.056
   0.02640783  0.02991280  0.01720848       0.056
   0.05281566  0.02991280  0.03441696       0.056
  -0.02640783  0.02991280 -0.01720848       0.056
   0.00000000  0.00000000  0.03321554       0.056
   0.02640783  0.00000000  0.05042402       0.056
   0.05281566  0.00000000  0.06763250       0.056
  -0.02640783  0.00000000  0.01600707       0.056
   0.00000000  0.02991280  0.03321554       0.056
   0.02640783  0.02991280  0.05042402       0.056
   0.05281566  0.02991280  0.06763250       0.056
  -0.02640783  0.02991280  0.01600707       0.056
   0.00000000 -0.02991280  0.03321554       0.056
   0.02640783 -0.02991280  0.05042402       0.056
   0.05281566 -0.02991280  0.06763250       0.056
  -0.02640783 -0.02991280  0.01600707       0.056
 
 k-points in reciprocal lattice and weights: Automatic mesh                          
   0.00000000  0.00000000  0.00000000       0.028
   0.25000000  0.00000000 -0.00000000       0.056
   0.50000000  0.00000000 -0.00000000       0.028
   0.00000000  0.33333333  0.00000000       0.056
   0.25000000  0.33333333 -0.00000000       0.056
   0.50000000  0.33333333 -0.00000000       0.056
  -0.25000000  0.33333333  0.00000000       0.056
   0.00000000  0.00000000  0.33333333       0.056
   0.25000000  0.00000000  0.33333333       0.056
   0.50000000  0.00000000  0.33333333       0.056
  -0.25000000  0.00000000  0.33333333       0.056
   0.00000000  0.33333333  0.33333333       0.056
   0.25000000  0.33333333  0.33333333       0.056
   0.50000000  0.33333333  0.33333333       0.056
  -0.25000000  0.33333333  0.33333333       0.056
   0.00000000 -0.33333333  0.33333333       0.056
   0.25000000 -0.33333333  0.33333333       0.056
   0.50000000 -0.33333333  0.33333333       0.056
  -0.25000000 -0.33333333  0.33333333       0.056
 
 position of ions in fractional coordinates (direct lattice) 
   0.91500565  0.45374328  0.23454257
   0.76016107  0.22074338  0.23365265
   0.38565336  0.27630523  0.97369049
   0.30125687  0.03561392  0.01795544
   0.40406344  0.20436302  0.22924474
   0.24879471  0.46607814  0.27709776
   0.87000980  0.02987128  0.99601745
   0.78785505  0.30150876  0.02078498
   0.92660376  0.43867747  0.76406275
   0.76605944  0.19948918  0.77940425
   0.41104362  0.35392829  0.47850507
   0.27308547  0.04970803  0.53106191
   0.40866585  0.23187264  0.75344428
   0.23936717  0.45576252  0.75425409
   0.90701954  0.03659680  0.49647194
   0.80256232  0.30837974  0.54312518
   0.91642614  0.98230952  0.24321690
   0.76717426  0.67198886  0.29188566
   0.45243398  0.78772003  0.00183551
   0.23099362  0.56626755  0.97331410
   0.43490806  0.66279206  0.26306613
   0.24639600  0.98160373  0.26554738
   0.88223065  0.53349539  0.97621729
   0.78178867  0.81097187  0.99253153
   0.91267972  0.95955570  0.72515816
   0.73504608  0.71037087  0.73710922
   0.44905970  0.78953470  0.51770504
   0.25734305  0.55355180  0.51593700
   0.38153773  0.69890753  0.76470731
   0.26553234  0.98547338  0.78068386
   0.90326652  0.55011482  0.51145850
   0.75209329  0.82219211  0.52095459
   0.81231772  0.43405466  0.06161430
   0.13655193  0.48035632  0.04281136
   0.47963470  0.45972485  0.06586600
   0.84133226  0.03901847  0.30078965
   0.58201808  0.27539760  0.32927107
   0.95210879  0.29873090  0.31999275
   0.31700428  0.20853762  0.06290856
   0.62436552  0.24592149  0.06531595
   0.92914202  0.19160308  0.04892661
   0.31492784  0.30804168  0.31695147
   0.12813738  0.99346245  0.32952853
   0.43514620  0.04559421  0.32510382
   0.82190627  0.43299529  0.60719360
   0.12434811  0.48515765  0.55089898
   0.44985146  0.45329980  0.55264350
   0.83761251  0.03503748  0.81815882
   0.57527209  0.28103853  0.79555937
   0.00076278  0.27456819  0.83397210
   0.29483272  0.17246765  0.56884423
   0.61419354  0.21023955  0.54204764
   0.89394019  0.19552850  0.55818606
   0.28833026  0.30120862  0.84628138
   0.09690169  0.03292743  0.82812698
   0.41151707  0.05429689  0.77935410
   0.78110862  0.96005309  0.06459294
   0.12552555  0.97931890  0.08044490
   0.43908746  0.96269534  0.05126544
   0.82577368  0.53912884  0.33014978
   0.63252967  0.76729318  0.32097370
   0.94203017  0.79507351  0.31181055
   0.32492805  0.67187801  0.06054237
   0.63435837  0.70714143  0.07590624
   0.91030100  0.69186492  0.01608790
   0.30328113  0.80052722  0.35006334
   0.13486530  0.48511929  0.34188082
   0.43469956  0.56952102  0.28881281
   0.79992948  0.93749199  0.54770341
   0.09974928  0.99178302  0.55037904
   0.44084580  0.99377226  0.52494265
   0.80012618  0.56927691  0.82035946
   0.60829608  0.77192634  0.81670626
   0.95209774  0.78304398  0.79618564
   0.30351999  0.70774245  0.56010888
   0.61260754  0.70380282  0.59172474
   0.93025033  0.70361069  0.55211638
   0.31806772  0.82354554  0.81538672
   0.14760917  0.53227943  0.82274270
   0.42973137  0.54076127  0.82024148
 
 position of ions in cartesian coordinates  (Angst):
   7.12845737  5.05628824  2.35374304
   5.66838043  2.45985386  2.34481228
  -2.71654977  3.07900733  9.77143387
   2.73454534  0.39686372  0.18019114
   2.32606904  2.27731931  2.30057687
   0.54322032  5.19374175  2.78080403
   1.72279133  0.33287061  9.99549523
   7.32261289  3.35986287  0.20858688
   3.77543711  4.88840239  7.66772266
   2.15525535  2.22300768  7.82168170
   0.76210179  3.94399990  4.80201943
  -0.88763039  0.55392143  5.32945160
  -1.05838420  2.58387276  7.56116141
  -2.66641197  5.07878964  7.56928823
   5.33995621  0.40781644  4.98232527
   4.04598048  3.43642963  5.45051208
   7.08517887 10.94636614  2.44079395
   5.35395644  7.48830786  2.92920744
   4.27113933  8.77795815  0.01842019
  -4.17823509  6.31020244  9.76765663
   2.39689534  7.38582332  2.63999014
   0.59604617 10.93850117  2.66489063
   1.96796871  5.94500588  9.79679148
   0.91040791  9.03706503  9.96051241
   3.89803787 10.69280894  7.27729713
   2.13824531  7.91601779  7.39723154
   0.86564607  8.79817993  5.19540924
  -0.93775219  6.16850448  5.17766614
  -1.38885816  7.78827606  7.67419112
  -2.59154771 10.98162261  7.83452318
   5.20642157  6.13020450  5.13272232
   3.71318118  9.16209778  5.22801997
   7.28719333  4.83688810  0.61832796
   1.01275551  5.35285065  0.42963177
   4.10991562  5.12294387  0.66099574
   5.99777407  0.43480232  3.01856309
   3.35661988  3.06889316  3.30438730
   6.92090386  3.32890778  3.21127507
   2.58965162  2.32383897  0.63131646
   5.48366344  2.74042612  0.65547573
   8.47612778  2.13512892  0.49100113
   0.90867047  3.43266246  3.18075442
  -0.94190245 11.07064881  3.30697103
   1.99345184  0.50807908  3.26256702
   3.81012954  4.82508301  6.09346828
  -2.42543592  5.40635427  5.52852576
   0.64466013  5.05134632  5.54603282
   2.57920334  0.39044016  8.21060172
   0.24344544  3.13175286  7.98380579
  -5.44657258  3.05965063  8.36929529
  -0.92883055  1.92189326  5.70861463
   2.26976057  2.34280443  5.43969847
   4.81255350  2.17887184  5.60165497
  -2.80469990  3.35651826  8.49282460
  -4.49821170  0.36692682  8.31063681
  -1.20083031  0.60505739  7.82117842
   6.97226128 10.69835161  0.64821999
   0.66226395 10.91304016  0.80730173
   3.82154030 10.72779552  0.51447237
   5.65848097  6.00778223  3.31320556
   3.88906852  8.55033155  3.22111936
   6.87899850  8.85990166  3.12916291
   2.68013887  7.48707260  0.60757065
   5.50900903  7.88003053  0.76175418
   8.51251197  7.70979674  0.16144951
   0.58187596  8.92067508  3.51304733
  -0.95898827  5.40592681  3.43093196
   2.22655005  6.34645749  2.89836997
   3.99111615 10.44694199  5.49645674
  -2.65491017 11.05193408  5.52330792
   0.74055535 11.07410118  5.26804200
   2.20993320  6.34373725  8.23268615
   0.41778899  8.60196117  8.19602460
   3.80671690  8.72585059  7.99009070
  -0.78946395  7.88672799  5.62095136
   1.92988071  7.84282672  5.93823112
   5.19599051  7.84068572  5.54074293
  -2.32114178  9.17717972  8.18278241
  -3.98295885  5.93145583  8.25660307
  -1.29578219  6.02597321  8.23150217
 


--------------------------------------------------------------------------------------------------------


 k-point  1 :   0.0000 0.0000 0.0000  plane waves:   26829
 k-point  2 :   0.2500 0.0000-0.0000  plane waves:   26875
 k-point  3 :   0.5000 0.0000-0.0000  plane waves:   26866
 k-point  4 :   0.0000 0.3333 0.0000  plane waves:   26844
 k-point  5 :   0.2500 0.3333-0.0000  plane waves:   26872
 k-point  6 :   0.5000 0.3333-0.0000  plane waves:   26876
 k-point  7 :  -0.2500 0.3333 0.0000  plane waves:   26872
 k-point  8 :   0.0000 0.0000 0.3333  plane waves:   26910
 k-point  9 :   0.2500 0.0000 0.3333  plane waves:   26885
 k-point 10 :   0.5000 0.0000 0.3333  plane waves:   26875
 k-point 11 :  -0.2500 0.0000 0.3333  plane waves:   26876
 k-point 12 :   0.0000 0.3333 0.3333  plane waves:   26878
 k-point 13 :   0.2500 0.3333 0.3333  plane waves:   26884
 k-point 14 :   0.5000 0.3333 0.3333  plane waves:   26880
 k-point 15 :  -0.2500 0.3333 0.3333  plane waves:   26861
 k-point 16 :   0.0000-0.3333 0.3333  plane waves:   26878
 k-point 17 :   0.2500-0.3333 0.3333  plane waves:   26884
 k-point 18 :   0.5000-0.3333 0.3333  plane waves:   26880
 k-point 19 :  -0.2500-0.3333 0.3333  plane waves:   26861

 maximum and minimum number of plane-waves per node :     26910    26829

 maximum number of plane-waves:     26910
 maximum index in each direction: 
   IXMAX=   17   IYMAX=   20   IZMAX=   21
   IXMIN=  -17   IYMIN=  -20   IZMIN=  -22

 The following grids will avoid any aliasing or wrap around errors in the Hartre
 e energy
  - symmetry arguments have not been applied
  - exchange correlation energies might require even more grid points
  - we recommend to set PREC=Normal or Accurate and rely on VASP defaults
 NGX is ok and might be reduce to    70
 NGY is ok and might be reduce to    84
 NGZ is ok and might be reduce to    90

 serial   3D FFT for wavefunctions
 parallel 3D FFT for charge:
    minimum data exchange during FFTs selected (reduces bandwidth)


 total amount of memory used by VASP MPI-rank0   600198. kBytes
=======================================================================

   base      :      30000. kBytes
   nonlr-proj:      51258. kBytes
   fftplans  :      11362. kBytes
   grid      :      64490. kBytes
   one-center:       2488. kBytes
   wavefun   :     440600. kBytes
 
     INWAV:  cpu time    0.0000: real time    0.0000
 Broyden mixing: mesh for mixing (old mesh)
   NGX = 35   NGY = 41   NGZ = 43
  (NGX  =140   NGY  =168   NGZ  =180)
  gives a total of  61705 points

 initial charge density was supplied:
 charge density of overlapping atoms calculated
 number of electron     608.0000000 magnetization      80.0000000
 keeping initial charge density in first step


--------------------------------------------------------------------------------------------------------


 Maximum index for non-local projection operator         6528
 Maximum index for augmentation-charges         1147 (set IRDMAX)


--------------------------------------------------------------------------------------------------------


 First call to EWALD:  gamma=   0.174
 Maximum number of real-space cells 3x 3x 3
 Maximum number of reciprocal cells 3x 3x 3

    FEWALD:  cpu time    0.0036: real time    0.0036


--------------------------------------- Iteration      1(   1)  ---------------------------------------


    POTLOK:  cpu time    0.3416: real time    0.6724
    SETDIJ:  cpu time    0.0293: real time    0.0565
     EDDAV:  cpu time  140.0830: real time  140.5289
    --------------------------------------------
      LOOP:  cpu time  140.4565: real time  141.2605

 eigenvalue-minimisations  : 31616
 total energy-change (2. order) : 0.7433270E+04  (-0.2585030E+05)
 number of electron     608.0000000 magnetization      80.0000000
 augmentation part      608.0000000 magnetization      80.0000000

 Free energy of the ion-electron system (eV)
  ---------------------------------------------------
  alpha Z        PSCENC =      1575.65330513
  Ewald energy   TEWEN  =    -34371.47305223
  -Hartree energ DENC   =    -21068.73390552
  -exchange      EXHF   =         0.00000000
  -V(xc)+E(xc)   XCENC  =      2377.91014770
  PAW double counting   =     47387.14975297   -49597.44882166
  entropy T*S    EENTRO =        -0.01532501
  eigenvalues    EBANDS =      5993.01467686
  atomic energy  EATOM  =     55137.21312455
  Solvation  Ediel_sol  =         0.00000000
  ---------------------------------------------------
  free energy    TOTEN  =      7433.26990279 eV

  energy without entropy =     7433.28522780  energy(sigma->0) =     7433.27756529


--------------------------------------------------------------------------------------------------------




--------------------------------------- Iteration      1(   2)  ---------------------------------------


     EDDAV:  cpu time  140.2256: real time  140.5574
    --------------------------------------------
      LOOP:  cpu time  140.2257: real time  140.5574

 eigenvalue-minimisations  : 31616
 total energy-change (2. order) :-0.6256810E+04  (-0.5669232E+04)
 number of electron     608.0000000 magnetization      80.0000000
 augmentation part      608.0000000 magnetization      80.0000000

 Free energy of the ion-electron system (eV)
  ---------------------------------------------------
  alpha Z        PSCENC =      1575.65330513
  Ewald energy   TEWEN  =    -34371.47305223
  -Hartree energ DENC   =    -21068.73390552
  -exchange      EXHF   =         0.00000000
  -V(xc)+E(xc)   XCENC  =      2377.91014770
  PAW double counting   =     47387.14975297   -49597.44882166
  entropy T*S    EENTRO =        -0.04130720
  eigenvalues    EBANDS =      -263.76944747
  atomic energy  EATOM  =     55137.21312455
  Solvation  Ediel_sol  =         0.00000000
  ---------------------------------------------------
  free energy    TOTEN  =      1176.45979626 eV

  energy without entropy =     1176.50110346  energy(sigma->0) =     1176.48044986


--------------------------------------------------------------------------------------------------------




--------------------------------------- Iteration      1(   3)  ---------------------------------------


     EDDAV:  cpu time  144.5762: real time  144.9182
    --------------------------------------------
      LOOP:  cpu time  144.5765: real time  144.9185

 eigenvalue-minimisations  : 32976
 total energy-change (2. order) :-0.1581366E+04  (-0.1413975E+04)
 number of electron     608.0000000 magnetization      80.0000000
 augmentation part      608.0000000 magnetization      80.0000000

 Free energy of the ion-electron system (eV)
  ---------------------------------------------------
  alpha Z        PSCENC =      1575.65330513
  Ewald energy   TEWEN  =    -34371.47305223
  -Hartree energ DENC   =    -21068.73390552
  -exchange      EXHF   =         0.00000000
  -V(xc)+E(xc)   XCENC  =      2377.91014770
  PAW double counting   =     47387.14975297   -49597.44882166
  entropy T*S    EENTRO =        -0.11391254
  eigenvalues    EBANDS =     -1845.06306514
  atomic energy  EATOM  =     55137.21312455
  Solvation  Ediel_sol  =         0.00000000
  ---------------------------------------------------
  free energy    TOTEN  =      -404.90642675 eV

  energy without entropy =     -404.79251421  energy(sigma->0) =     -404.84947048


--------------------------------------------------------------------------------------------------------




--------------------------------------- Iteration      1(   4)  ---------------------------------------


     EDDAV:  cpu time  153.5632: real time  153.9266
    --------------------------------------------
      LOOP:  cpu time  153.5633: real time  153.9267

 eigenvalue-minimisations  : 35616
 total energy-change (2. order) :-0.1921771E+03  (-0.1846840E+03)
 number of electron     608.0000000 magnetization      80.0000000
 augmentation part      608.0000000 magnetization      80.0000000

 Free energy of the ion-electron system (eV)
  ---------------------------------------------------
  alpha Z        PSCENC =      1575.65330513
  Ewald energy   TEWEN  =    -34371.47305223
  -Hartree energ DENC   =    -21068.73390552
  -exchange      EXHF   =         0.00000000
  -V(xc)+E(xc)   XCENC  =      2377.91014770
  PAW double counting   =     47387.14975297   -49597.44882166
  entropy T*S    EENTRO =        -0.12949588
  eigenvalues    EBANDS =     -2037.22462870
  atomic energy  EATOM  =     55137.21312455
  Solvation  Ediel_sol  =         0.00000000
  ---------------------------------------------------
  free energy    TOTEN  =      -597.08357364 eV

  energy without entropy =     -596.95407776  energy(sigma->0) =     -597.01882570


--------------------------------------------------------------------------------------------------------




--------------------------------------- Iteration      1(   5)  ---------------------------------------


     EDDAV:  cpu time  151.7251: real time  152.0842
    CHARGE:  cpu time    6.6783: real time    6.6941
    MIXING:  cpu time    0.0150: real time    0.1990
    --------------------------------------------
      LOOP:  cpu time  158.4154: real time  158.9744

 eigenvalue-minimisations  : 35120
 total energy-change (2. order) :-0.5746895E+01  (-0.5707888E+01)
 number of electron     608.0000028 magnetization      83.6962771
 augmentation part      198.2271398 magnetization      59.5358657

 Broyden mixing:
  rms(total) = 0.18952E+02    rms(broyden)= 0.18951E+02
  rms(prec ) = 0.20931E+02
  weight for this iteration     100.00

 Free energy of the ion-electron system (eV)
  ---------------------------------------------------
  alpha Z        PSCENC =      1575.65330513
  Ewald energy   TEWEN  =    -34371.47305223
  -Hartree energ DENC   =    -21068.73390552
  -exchange      EXHF   =         0.00000000
  -V(xc)+E(xc)   XCENC  =      2377.91014770
  PAW double counting   =     47387.14975297   -49597.44882166
  entropy T*S    EENTRO =        -0.12956711
  eigenvalues    EBANDS =     -2042.97145282
  atomic energy  EATOM  =     55137.21312455
  Solvation  Ediel_sol  =         0.00000000
  ---------------------------------------------------
  free energy    TOTEN  =      -602.83046900 eV

  energy without entropy =     -602.70090189  energy(sigma->0) =     -602.76568544


--------------------------------------------------------------------------------------------------------




--------------------------------------- Iteration      1(   6)  ---------------------------------------


    POTLOK:  cpu time    0.2950: real time    0.2957
    SETDIJ:  cpu time    0.0288: real time    0.0289
     EDDAV:  cpu time  191.4904: real time  191.9433
    CHARGE:  cpu time    6.6211: real time    6.6367
    MIXING:  cpu time    0.0064: real time    0.0064
    --------------------------------------------
      LOOP:  cpu time  198.4416: real time  198.9110

 eigenvalue-minimisations  : 47136
 total energy-change (2. order) :-0.1555964E+03  (-0.1389248E+03)
 number of electron     608.0000018 magnetization      75.0458002
 augmentation part      257.4432812 magnetization      68.5553697

 Broyden mixing:
  rms(total) = 0.27714E+02    rms(broyden)= 0.27713E+02
  rms(prec ) = 0.30926E+02
  weight for this iteration     100.00

 eigenvalues of (default mixing * dielectric matrix)
  average eigenvalue GAMMA=   0.2719
  0.2719

 Free energy of the ion-electron system (eV)
  ---------------------------------------------------
  alpha Z        PSCENC =      1575.65330513
  Ewald energy   TEWEN  =    -34371.47305223
  -Hartree energ DENC   =    -20164.49074598
  -exchange      EXHF   =         0.00000000
  -V(xc)+E(xc)   XCENC  =      2390.01587057
  PAW double counting   =     53229.32800473   -55150.31713612
  entropy T*S    EENTRO =        -0.06867539
  eigenvalues    EBANDS =     -3404.28761250
  atomic energy  EATOM  =     55137.21312455
  Solvation  Ediel_sol  =         0.00000000
  ---------------------------------------------------
  free energy    TOTEN  =      -758.42691724 eV

  energy without entropy =     -758.35824185  energy(sigma->0) =     -758.39257955


--------------------------------------------------------------------------------------------------------




--------------------------------------- Iteration      1(   7)  ---------------------------------------


    POTLOK:  cpu time    0.2986: real time    0.2993
    SETDIJ:  cpu time    0.0290: real time    0.0290
     EDDAV:  cpu time  166.4468: real time  166.8406
    CHARGE:  cpu time    6.7111: real time    6.7270
    MIXING:  cpu time    0.0062: real time    0.0062
    --------------------------------------------
      LOOP:  cpu time  173.4916: real time  173.9020

 eigenvalue-minimisations  : 39680
 total energy-change (2. order) : 0.2783962E+03  (-0.5511301E+02)
 number of electron     608.0000026 magnetization      66.7623354
 augmentation part      236.9852602 magnetization      54.8961925

 Broyden mixing:
  rms(total) = 0.14257E+02    rms(broyden)= 0.14255E+02
  rms(prec ) = 0.16279E+02
  weight for this iteration     100.00

 eigenvalues of (default mixing * dielectric matrix)
  average eigenvalue GAMMA=   0.4501
  0.4501  0.4501

 Free energy of the ion-electron system (eV)
  ---------------------------------------------------
  alpha Z        PSCENC =      1575.65330513
  Ewald energy   TEWEN  =    -34371.47305223
  -Hartree energ DENC   =    -20555.05506299
  -exchange      EXHF   =         0.00000000
  -V(xc)+E(xc)   XCENC  =      2369.86319120
  PAW double counting   =     55720.84402773   -57869.24815938
  entropy T*S    EENTRO =        -0.07268376
  eigenvalues    EBANDS =     -2487.75545526
  atomic energy  EATOM  =     55137.21312455
  Solvation  Ediel_sol  =         0.00000000
  ---------------------------------------------------
  free energy    TOTEN  =      -480.03076500 eV

  energy without entropy =     -479.95808125  energy(sigma->0) =     -479.99442313


--------------------------------------------------------------------------------------------------------




--------------------------------------- Iteration      1(   8)  ---------------------------------------


    POTLOK:  cpu time    0.2970: real time    0.2977
    SETDIJ:  cpu time    0.0290: real time    0.0290
     EDDAV:  cpu time  179.9426: real time  180.3683
    CHARGE:  cpu time    6.6590: real time    6.6747
    MIXING:  cpu time    0.0066: real time    0.0066
    --------------------------------------------
      LOOP:  cpu time  186.9341: real time  187.3763

 eigenvalue-minimisations  : 43760
 total energy-change (2. order) :-0.2490419E+02  (-0.2601210E+02)
 number of electron     608.0000028 magnetization      56.6391685
 augmentation part      223.2524945 magnetization      47.5436457

 Broyden mixing:
  rms(total) = 0.15886E+02    rms(broyden)= 0.15884E+02
  rms(prec ) = 0.20629E+02
  weight for this iteration     100.00

 eigenvalues of (default mixing * dielectric matrix)
  average eigenvalue GAMMA=   0.4934
  0.6569  0.6149  0.2085

 Free energy of the ion-electron system (eV)
  ---------------------------------------------------
  alpha Z        PSCENC =      1575.65330513
  Ewald energy   TEWEN  =    -34371.47305223
  -Hartree energ DENC   =    -20637.30509368
  -exchange      EXHF   =         0.00000000
  -V(xc)+E(xc)   XCENC  =      2362.94987108
  PAW double counting   =     57716.84065183   -59990.34487922
  entropy T*S    EENTRO =        -0.07880357
  eigenvalues    EBANDS =     -2298.39007568
  atomic energy  EATOM  =     55137.21312455
  Solvation  Ediel_sol  =         0.00000000
  ---------------------------------------------------
  free energy    TOTEN  =      -504.93495178 eV

  energy without entropy =     -504.85614821  energy(sigma->0) =     -504.89555000


--------------------------------------------------------------------------------------------------------




--------------------------------------- Iteration      1(   9)  ---------------------------------------


    POTLOK:  cpu time    0.2926: real time    0.2933
    SETDIJ:  cpu time    0.0293: real time    0.0293
     EDDAV:  cpu time  169.7469: real time  170.1484
    CHARGE:  cpu time    6.7601: real time    6.7761
    MIXING:  cpu time    0.0065: real time    0.0065
    --------------------------------------------
      LOOP:  cpu time  176.8355: real time  177.2538

 eigenvalue-minimisations  : 40656
 total energy-change (2. order) :-0.8376596E+02  (-0.4742552E+02)
 number of electron     608.0000016 magnetization      48.2089124
 augmentation part      215.1217248 magnetization      39.4179252

 Broyden mixing:
  rms(total) = 0.18468E+02    rms(broyden)= 0.18467E+02
  rms(prec ) = 0.23927E+02
  weight for this iteration     100.00

 eigenvalues of (default mixing * dielectric matrix)
  average eigenvalue GAMMA=   0.4920
  1.1098  0.4527  0.2591  0.1463

 Free energy of the ion-electron system (eV)
  ---------------------------------------------------
  alpha Z        PSCENC =      1575.65330513
  Ewald energy   TEWEN  =    -34371.47305223
  -Hartree energ DENC   =    -20619.38402592
  -exchange      EXHF   =         0.00000000
  -V(xc)+E(xc)   XCENC  =      2360.53179640
  PAW double counting   =     60006.38766903   -62343.54171541
  entropy T*S    EENTRO =        -0.08728213
  eigenvalues    EBANDS =     -2334.00072884
  atomic energy  EATOM  =     55137.21312455
  Solvation  Ediel_sol  =         0.00000000
  ---------------------------------------------------
  free energy    TOTEN  =      -588.70090942 eV

  energy without entropy =     -588.61362729  energy(sigma->0) =     -588.65726835


--------------------------------------------------------------------------------------------------------




--------------------------------------- Iteration      1(  10)  ---------------------------------------


    POTLOK:  cpu time    0.3011: real time    0.3018
    SETDIJ:  cpu time    0.0292: real time    0.0292
     EDDAV:  cpu time  180.0653: real time  180.4911
    CHARGE:  cpu time    6.5804: real time    6.5960
    MIXING:  cpu time    0.0068: real time    0.0068
    --------------------------------------------
      LOOP:  cpu time  186.9827: real time  187.4249

 eigenvalue-minimisations  : 43824
 total energy-change (2. order) :-0.2290012E+01  (-0.3593577E+02)
 number of electron     608.0000043 magnetization      37.9746042
 augmentation part      212.6965303 magnetization      30.5211787

 Broyden mixing:
  rms(total) = 0.18301E+02    rms(broyden)= 0.18301E+02
  rms(prec ) = 0.24639E+02
  weight for this iteration     100.00

 eigenvalues of (default mixing * dielectric matrix)
  average eigenvalue GAMMA=   0.5051
  1.5056  0.3595  0.3595  0.1506  0.1506

 Free energy of the ion-electron system (eV)
  ---------------------------------------------------
  alpha Z        PSCENC =      1575.65330513
  Ewald energy   TEWEN  =    -34371.47305223
  -Hartree energ DENC   =    -20593.02128223
  -exchange      EXHF   =         0.00000000
  -V(xc)+E(xc)   XCENC  =      2362.27972051
  PAW double counting   =     61974.11737425   -64349.18693637
  entropy T*S    EENTRO =        -0.06135426
  eigenvalues    EBANDS =     -2326.51182074
  atomic energy  EATOM  =     55137.21312455
  Solvation  Ediel_sol  =         0.00000000
  ---------------------------------------------------
  free energy    TOTEN  =      -590.99092139 eV

  energy without entropy =     -590.92956713  energy(sigma->0) =     -590.96024426


--------------------------------------------------------------------------------------------------------




--------------------------------------- Iteration      1(  11)  ---------------------------------------


    POTLOK:  cpu time    0.2972: real time    0.2979
    SETDIJ:  cpu time    0.0291: real time    0.0291
     EDDAV:  cpu time  178.1088: real time  178.5302
    CHARGE:  cpu time    6.5847: real time    6.6003
    MIXING:  cpu time    0.0070: real time    0.0070
    --------------------------------------------
      LOOP:  cpu time  185.0268: real time  185.4645

 eigenvalue-minimisations  : 43264
 total energy-change (2. order) : 0.1175310E+03  (-0.2560375E+02)
 number of electron     608.0000012 magnetization      35.1404747
 augmentation part      221.0292165 magnetization      26.8376249

 Broyden mixing:
  rms(total) = 0.13452E+02    rms(broyden)= 0.13451E+02
  rms(prec ) = 0.18634E+02
  weight for this iteration     100.00

 eigenvalues of (default mixing * dielectric matrix)
  average eigenvalue GAMMA=   0.4936
  1.6728  0.4259  0.3041  0.3041  0.1462  0.1086

 Free energy of the ion-electron system (eV)
  ---------------------------------------------------
  alpha Z        PSCENC =      1575.65330513
  Ewald energy   TEWEN  =    -34371.47305223
  -Hartree energ DENC   =    -20517.21179580
  -exchange      EXHF   =         0.00000000
  -V(xc)+E(xc)   XCENC  =      2367.53411558
  PAW double counting   =     64165.93134004   -66564.58255033
  entropy T*S    EENTRO =        -0.06378563
  eigenvalues    EBANDS =     -2266.46065371
  atomic energy  EATOM  =     55137.21312455
  Solvation  Ediel_sol  =         0.00000000
  ---------------------------------------------------
  free energy    TOTEN  =      -473.45995239 eV

  energy without entropy =     -473.39616676  energy(sigma->0) =     -473.42805958


--------------------------------------------------------------------------------------------------------




--------------------------------------- Iteration      1(  12)  ---------------------------------------


    POTLOK:  cpu time    0.2934: real time    0.2941
    SETDIJ:  cpu time    0.0290: real time    0.0291
     EDDAV:  cpu time  165.6186: real time  166.0104
    CHARGE:  cpu time    6.7272: real time    6.7432
    MIXING:  cpu time    0.0073: real time    0.0073
    --------------------------------------------
      LOOP:  cpu time  172.6756: real time  173.0841

 eigenvalue-minimisations  : 39408
 total energy-change (2. order) : 0.4969473E+02  (-0.1822661E+02)
 number of electron     608.0000020 magnetization      32.3520144
 augmentation part      224.4959270 magnetization      24.2120958

 Broyden mixing:
  rms(total) = 0.11235E+02    rms(broyden)= 0.11234E+02
  rms(prec ) = 0.14607E+02
  weight for this iteration     100.00

 eigenvalues of (default mixing * dielectric matrix)
  average eigenvalue GAMMA=   0.4834
  1.7273  0.5511  0.3752  0.3752  0.1559  0.0997  0.0997

 Free energy of the ion-electron system (eV)
  ---------------------------------------------------
  alpha Z        PSCENC =      1575.65330513
  Ewald energy   TEWEN  =    -34371.47305223
  -Hartree energ DENC   =    -20511.48459466
  -exchange      EXHF   =         0.00000000
  -V(xc)+E(xc)   XCENC  =      2367.54464624
  PAW double counting   =     64650.63226726   -67054.16302065
  entropy T*S    EENTRO =        -0.07981563
  eigenvalues    EBANDS =     -2217.60807909
  atomic energy  EATOM  =     55137.21312455
  Solvation  Ediel_sol  =         0.00000000
  ---------------------------------------------------
  free energy    TOTEN  =      -423.76521907 eV

  energy without entropy =     -423.68540344  energy(sigma->0) =     -423.72531125


--------------------------------------------------------------------------------------------------------




--------------------------------------- Iteration      1(  13)  ---------------------------------------


    POTLOK:  cpu time    0.2982: real time    0.2990
    SETDIJ:  cpu time    0.0293: real time    0.0293
     EDDAV:  cpu time  166.7277: real time  167.1220
    CHARGE:  cpu time    6.6655: real time    6.6813
    MIXING:  cpu time    0.0075: real time    0.0076
    --------------------------------------------
      LOOP:  cpu time  173.7282: real time  174.1392

 eigenvalue-minimisations  : 39744
 total energy-change (2. order) :-0.8581210E+01  (-0.1077819E+02)
 number of electron     608.0000023 magnetization      30.3740683
 augmentation part      223.2825232 magnetization      22.4282528

 Broyden mixing:
  rms(total) = 0.11289E+02    rms(broyden)= 0.11288E+02
  rms(prec ) = 0.15483E+02
  weight for this iteration     100.00

 eigenvalues of (default mixing * dielectric matrix)
  average eigenvalue GAMMA=   0.4514
  1.7466  0.5856  0.3979  0.3979  0.1328  0.1328  0.1087  0.1087

 Free energy of the ion-electron system (eV)
  ---------------------------------------------------
  alpha Z        PSCENC =      1575.65330513
  Ewald energy   TEWEN  =    -34371.47305223
  -Hartree energ DENC   =    -20542.74246485
  -exchange      EXHF   =         0.00000000
  -V(xc)+E(xc)   XCENC  =      2364.28145706
  PAW double counting   =     64822.04545554   -67227.46639458
  entropy T*S    EENTRO =        -0.09460800
  eigenvalues    EBANDS =     -2189.76325193
  atomic energy  EATOM  =     55137.21312455
  Solvation  Ediel_sol  =         0.00000000
  ---------------------------------------------------
  free energy    TOTEN  =      -432.34642930 eV

  energy without entropy =     -432.25182130  energy(sigma->0) =     -432.29912530


--------------------------------------------------------------------------------------------------------




--------------------------------------- Iteration      1(  14)  ---------------------------------------


    POTLOK:  cpu time    0.2935: real time    0.2942
    SETDIJ:  cpu time    0.0290: real time    0.0291
     EDDAV:  cpu time  171.5656: real time  171.9714
    CHARGE:  cpu time    6.7061: real time    6.7220
    MIXING:  cpu time    0.0083: real time    0.0083
    --------------------------------------------
      LOOP:  cpu time  178.6024: real time  179.0250

 eigenvalue-minimisations  : 41232
 total energy-change (2. order) : 0.1915444E+02  (-0.7457431E+01)
 number of electron     608.0000036 magnetization      29.3510936
 augmentation part      223.3151806 magnetization      21.1213294

 Broyden mixing:
  rms(total) = 0.74280E+01    rms(broyden)= 0.74274E+01
  rms(prec ) = 0.97763E+01
  weight for this iteration     100.00

 eigenvalues of (default mixing * dielectric matrix)
  average eigenvalue GAMMA=   0.4215
  1.6955  0.5996  0.4015  0.4015  0.1915  0.1915  0.1112  0.1112  0.0903

 Free energy of the ion-electron system (eV)
  ---------------------------------------------------
  alpha Z        PSCENC =      1575.65330513
  Ewald energy   TEWEN  =    -34371.47305223
  -Hartree energ DENC   =    -20577.10416969
  -exchange      EXHF   =         0.00000000
  -V(xc)+E(xc)   XCENC  =      2361.65214066
  PAW double counting   =     64905.26919583   -67312.75853026
  entropy T*S    EENTRO =        -0.09297906
  eigenvalues    EBANDS =     -2131.55102769
  atomic energy  EATOM  =     55137.21312455
  Solvation  Ediel_sol  =         0.00000000
  ---------------------------------------------------
  free energy    TOTEN  =      -413.19199275 eV

  energy without entropy =     -413.09901369  energy(sigma->0) =     -413.14550322


--------------------------------------------------------------------------------------------------------




--------------------------------------- Iteration      1(  15)  ---------------------------------------


    POTLOK:  cpu time    0.2927: real time    0.2934
    SETDIJ:  cpu time    0.0291: real time    0.0292
     EDDAV:  cpu time  163.0923: real time  163.4780
    CHARGE:  cpu time    6.8593: real time    6.8756
    MIXING:  cpu time    0.0081: real time    0.0081
    --------------------------------------------
      LOOP:  cpu time  170.2815: real time  170.6843

 eigenvalue-minimisations  : 38672
 total energy-change (2. order) : 0.4737429E+01  (-0.6424516E+01)
 number of electron     608.0000024 magnetization      28.3125049
 augmentation part      224.1911016 magnetization      19.6110017

 Broyden mixing:
  rms(total) = 0.63389E+01    rms(broyden)= 0.63384E+01
  rms(prec ) = 0.84288E+01
  weight for this iteration     100.00

 eigenvalues of (default mixing * dielectric matrix)
  average eigenvalue GAMMA=   0.3986
  1.5776  0.5694  0.4356  0.4356  0.3600  0.1940  0.1125  0.1125  0.0941  0.0941

 Free energy of the ion-electron system (eV)
  ---------------------------------------------------
  alpha Z        PSCENC =      1575.65330513
  Ewald energy   TEWEN  =    -34371.47305223
  -Hartree energ DENC   =    -20577.80276802
  -exchange      EXHF   =         0.00000000
  -V(xc)+E(xc)   XCENC  =      2359.93804029
  PAW double counting   =     64887.40165214   -67288.89786402
  entropy T*S    EENTRO =        -0.10141857
  eigenvalues    EBANDS =     -2130.38558314
  atomic energy  EATOM  =     55137.21312455
  Solvation  Ediel_sol  =         0.00000000
  ---------------------------------------------------
  free energy    TOTEN  =      -408.45456386 eV

  energy without entropy =     -408.35314529  energy(sigma->0) =     -408.40385458


--------------------------------------------------------------------------------------------------------




--------------------------------------- Iteration      1(  16)  ---------------------------------------


    POTLOK:  cpu time    0.2979: real time    0.2986
    SETDIJ:  cpu time    0.0294: real time    0.0294
     EDDAV:  cpu time  163.5644: real time  163.9513
    CHARGE:  cpu time    6.7843: real time    6.8004
    MIXING:  cpu time    0.0108: real time    0.1595
    --------------------------------------------
      LOOP:  cpu time  170.6867: real time  171.2392

 eigenvalue-minimisations  : 38704
 total energy-change (2. order) : 0.3485289E+01  (-0.3308341E+01)
 number of electron     608.0000023 magnetization      27.8080169
 augmentation part      225.2849160 magnetization      19.0359776

 Broyden mixing:
  rms(total) = 0.47380E+01    rms(broyden)= 0.47375E+01
  rms(prec ) = 0.58916E+01
  weight for this iteration     100.00

 eigenvalues of (default mixing * dielectric matrix)
  average eigenvalue GAMMA=   0.3821
  1.4350  0.5963  0.5963  0.4095  0.4095  0.2098  0.1255  0.1255  0.1010  0.1010
  0.0941

 Free energy of the ion-electron system (eV)
  ---------------------------------------------------
  alpha Z        PSCENC =      1575.65330513
  Ewald energy   TEWEN  =    -34371.47305223
  -Hartree energ DENC   =    -20578.22486946
  -exchange      EXHF   =         0.00000000
  -V(xc)+E(xc)   XCENC  =      2357.87618017
  PAW double counting   =     64842.53073352   -67235.83878823
  entropy T*S    EENTRO =        -0.09889767
  eigenvalues    EBANDS =     -2132.60701068
  atomic energy  EATOM  =     55137.21312455
  Solvation  Ediel_sol  =         0.00000000
  ---------------------------------------------------
  free energy    TOTEN  =      -404.96927489 eV

  energy without entropy =     -404.87037722  energy(sigma->0) =     -404.91982606


--------------------------------------------------------------------------------------------------------




--------------------------------------- Iteration      1(  17)  ---------------------------------------


    POTLOK:  cpu time    0.2947: real time    0.2954
    SETDIJ:  cpu time    0.0289: real time    0.0289
     EDDAV:  cpu time  175.3514: real time  175.7662
    CHARGE:  cpu time    6.8729: real time    6.8892
    MIXING:  cpu time    0.0088: real time    0.0088
    --------------------------------------------
      LOOP:  cpu time  182.5567: real time  182.9885

 eigenvalue-minimisations  : 42336
 total energy-change (2. order) :-0.3702908E+00  (-0.2155679E+01)
 number of electron     608.0000028 magnetization      27.3172368
 augmentation part      224.7397367 magnetization      18.7347816

 Broyden mixing:
  rms(total) = 0.34252E+01    rms(broyden)= 0.34246E+01
  rms(prec ) = 0.41975E+01
  weight for this iteration     100.00

 eigenvalues of (default mixing * dielectric matrix)
  average eigenvalue GAMMA=   0.3687
  1.3390  0.6654  0.6654  0.3892  0.3892  0.3002  0.1429  0.1130  0.1130  0.1141
  0.0964  0.0964

 Free energy of the ion-electron system (eV)
  ---------------------------------------------------
  alpha Z        PSCENC =      1575.65330513
  Ewald energy   TEWEN  =    -34371.47305223
  -Hartree energ DENC   =    -20581.16995120
  -exchange      EXHF   =         0.00000000
  -V(xc)+E(xc)   XCENC  =      2356.19753348
  PAW double counting   =     64785.69225084   -67173.45008148
  entropy T*S    EENTRO =        -0.10609531
  eigenvalues    EBANDS =     -2133.89659952
  atomic energy  EATOM  =     55137.21312455
  Solvation  Ediel_sol  =         0.00000000
  ---------------------------------------------------
  free energy    TOTEN  =      -405.33956573 eV

  energy without entropy =     -405.23347043  energy(sigma->0) =     -405.28651808


--------------------------------------------------------------------------------------------------------




--------------------------------------- Iteration      1(  18)  ---------------------------------------


    POTLOK:  cpu time    0.2986: real time    0.2993
    SETDIJ:  cpu time    0.0292: real time    0.0293
     EDDAV:  cpu time  174.7592: real time  175.1739
    CHARGE:  cpu time    6.8269: real time    6.8431
    MIXING:  cpu time    0.0090: real time    0.0090
    --------------------------------------------
      LOOP:  cpu time  181.9229: real time  182.3546

 eigenvalue-minimisations  : 42128
 total energy-change (2. order) :-0.1623580E+01  (-0.1185158E+01)
 number of electron     608.0000028 magnetization      26.7475835
 augmentation part      223.8722477 magnetization      18.0644174

 Broyden mixing:
  rms(total) = 0.25971E+01    rms(broyden)= 0.25967E+01
  rms(prec ) = 0.31998E+01
  weight for this iteration     100.00

 eigenvalues of (default mixing * dielectric matrix)
  average eigenvalue GAMMA=   0.3771
  1.3086  0.7456  0.7456  0.4179  0.4179  0.4001  0.1765  0.1765  0.1130  0.1130
  0.0991  0.0991  0.0901

 Free energy of the ion-electron system (eV)
  ---------------------------------------------------
  alpha Z        PSCENC =      1575.65330513
  Ewald energy   TEWEN  =    -34371.47305223
  -Hartree energ DENC   =    -20589.74390450
  -exchange      EXHF   =         0.00000000
  -V(xc)+E(xc)   XCENC  =      2354.66621779
  PAW double counting   =     64726.24583860   -67109.59192606
  entropy T*S    EENTRO =        -0.10938576
  eigenvalues    EBANDS =     -2129.82336332
  atomic energy  EATOM  =     55137.21312455
  Solvation  Ediel_sol  =         0.00000000
  ---------------------------------------------------
  free energy    TOTEN  =      -406.96314580 eV

  energy without entropy =     -406.85376004  energy(sigma->0) =     -406.90845292


--------------------------------------------------------------------------------------------------------




--------------------------------------- Iteration      1(  19)  ---------------------------------------


    POTLOK:  cpu time    0.2954: real time    0.2961
    SETDIJ:  cpu time    0.0292: real time    0.0292
     EDDAV:  cpu time  176.1440: real time  176.5607
    CHARGE:  cpu time    6.8231: real time    6.8393
    MIXING:  cpu time    0.0093: real time    0.0093
    --------------------------------------------
      LOOP:  cpu time  183.3010: real time  183.7346

 eigenvalue-minimisations  : 42496
 total energy-change (2. order) :-0.2671520E+01  (-0.8867597E+00)
 number of electron     608.0000024 magnetization      25.2434935
 augmentation part      223.3627647 magnetization      17.0824863

 Broyden mixing:
  rms(total) = 0.29317E+01    rms(broyden)= 0.29314E+01
  rms(prec ) = 0.36584E+01
  weight for this iteration     100.00

 eigenvalues of (default mixing * dielectric matrix)
  average eigenvalue GAMMA=   0.4047
  1.2809  0.9986  0.9986  0.4704  0.4704  0.3296  0.3296  0.1738  0.1092  0.1092
  0.1036  0.1036  0.1027  0.0852

 Free energy of the ion-electron system (eV)
  ---------------------------------------------------
  alpha Z        PSCENC =      1575.65330513
  Ewald energy   TEWEN  =    -34371.47305223
  -Hartree energ DENC   =    -20586.65978872
  -exchange      EXHF   =         0.00000000
  -V(xc)+E(xc)   XCENC  =      2353.45413491
  PAW double counting   =     64722.38806896   -67099.74556054
  entropy T*S    EENTRO =        -0.11508247
  eigenvalues    EBANDS =     -2140.34981509
  atomic energy  EATOM  =     55137.21312455
  Solvation  Ediel_sol  =         0.00000000
  ---------------------------------------------------
  free energy    TOTEN  =      -409.63466549 eV

  energy without entropy =     -409.51958302  energy(sigma->0) =     -409.57712425


--------------------------------------------------------------------------------------------------------




--------------------------------------- Iteration      1(  20)  ---------------------------------------


    POTLOK:  cpu time    0.2942: real time    0.2949
    SETDIJ:  cpu time    0.0291: real time    0.0292
     EDDAV:  cpu time  175.6292: real time  176.0446
    CHARGE:  cpu time    6.8753: real time    6.8916
    MIXING:  cpu time    0.0099: real time    0.0099
    --------------------------------------------
      LOOP:  cpu time  182.8376: real time  183.2701

 eigenvalue-minimisations  : 42416
 total energy-change (2. order) :-0.3141462E+01  (-0.9197189E+00)
 number of electron     608.0000029 magnetization      24.0676404
 augmentation part      223.6653357 magnetization      15.9887362

 Broyden mixing:
  rms(total) = 0.31723E+01    rms(broyden)= 0.31720E+01
  rms(prec ) = 0.40550E+01
  weight for this iteration     100.00

 eigenvalues of (default mixing * dielectric matrix)
  average eigenvalue GAMMA=   0.4060
  1.2839  1.1052  1.1052  0.4987  0.4987  0.3463  0.3463  0.1802  0.1080  0.1080
  0.1187  0.1013  0.1013  0.0994  0.0885

 Free energy of the ion-electron system (eV)
  ---------------------------------------------------
  alpha Z        PSCENC =      1575.65330513
  Ewald energy   TEWEN  =    -34371.47305223
  -Hartree energ DENC   =    -20574.76839989
  -exchange      EXHF   =         0.00000000
  -V(xc)+E(xc)   XCENC  =      2351.91312544
  PAW double counting   =     64804.65585305   -67171.56342608
  entropy T*S    EENTRO =        -0.11387199
  eigenvalues    EBANDS =     -2164.29278517
  atomic energy  EATOM  =     55137.21312455
  Solvation  Ediel_sol  =         0.00000000
  ---------------------------------------------------
  free energy    TOTEN  =      -412.77612716 eV

  energy without entropy =     -412.66225518  energy(sigma->0) =     -412.71919117


--------------------------------------------------------------------------------------------------------




--------------------------------------- Iteration      1(  21)  ---------------------------------------


    POTLOK:  cpu time    0.2973: real time    0.2980
    SETDIJ:  cpu time    0.0293: real time    0.0293
     EDDAV:  cpu time  174.1143: real time  174.5263
    CHARGE:  cpu time    6.7159: real time    6.7318
    MIXING:  cpu time    0.0102: real time    0.0102
    --------------------------------------------
      LOOP:  cpu time  181.1670: real time  181.5956

 eigenvalue-minimisations  : 41968
 total energy-change (2. order) : 0.5872546E+00  (-0.8093790E+00)
 number of electron     608.0000026 magnetization      22.0843836
 augmentation part      224.4058548 magnetization      13.8273108

 Broyden mixing:
  rms(total) = 0.19212E+01    rms(broyden)= 0.19208E+01
  rms(prec ) = 0.25040E+01
  weight for this iteration     100.00

 eigenvalues of (default mixing * dielectric matrix)
  average eigenvalue GAMMA=   0.4286
  1.3339  1.3339  1.2261  0.5144  0.5144  0.3797  0.3797  0.2988  0.1589  0.1250
  0.1111  0.1111  0.1005  0.1005  0.0895  0.0805

 Free energy of the ion-electron system (eV)
  ---------------------------------------------------
  alpha Z        PSCENC =      1575.65330513
  Ewald energy   TEWEN  =    -34371.47305223
  -Hartree energ DENC   =    -20567.28425367
  -exchange      EXHF   =         0.00000000
  -V(xc)+E(xc)   XCENC  =      2351.15232755
  PAW double counting   =     64888.81105889   -67249.35059893
  entropy T*S    EENTRO =        -0.10356178
  eigenvalues    EBANDS =     -2176.80722207
  atomic energy  EATOM  =     55137.21312455
  Solvation  Ediel_sol  =         0.00000000
  ---------------------------------------------------
  free energy    TOTEN  =      -412.18887255 eV

  energy without entropy =     -412.08531077  energy(sigma->0) =     -412.13709166


--------------------------------------------------------------------------------------------------------




--------------------------------------- Iteration      1(  22)  ---------------------------------------


    POTLOK:  cpu time    0.2948: real time    0.2955
    SETDIJ:  cpu time    0.0288: real time    0.0289
     EDDAV:  cpu time  176.4925: real time  176.9099
    CHARGE:  cpu time    6.6671: real time    6.6829
    MIXING:  cpu time    0.0105: real time    0.0105
    --------------------------------------------
      LOOP:  cpu time  183.4936: real time  183.9277

 eigenvalue-minimisations  : 42656
 total energy-change (2. order) :-0.2100608E+01  (-0.8568320E+00)
 number of electron     608.0000023 magnetization      20.8338719
 augmentation part      224.2836499 magnetization      12.0318322

 Broyden mixing:
  rms(total) = 0.26770E+01    rms(broyden)= 0.26766E+01
  rms(prec ) = 0.34997E+01
  weight for this iteration     100.00

 eigenvalues of (default mixing * dielectric matrix)
  average eigenvalue GAMMA=   0.4350
  1.4824  1.4824  1.2177  0.5184  0.5184  0.4950  0.3429  0.3429  0.1529  0.1529
  0.1097  0.1097  0.1013  0.1013  0.1004  0.0881  0.0789

 Free energy of the ion-electron system (eV)
  ---------------------------------------------------
  alpha Z        PSCENC =      1575.65330513
  Ewald energy   TEWEN  =    -34371.47305223
  -Hartree energ DENC   =    -20564.00637802
  -exchange      EXHF   =         0.00000000
  -V(xc)+E(xc)   XCENC  =      2350.49333665
  PAW double counting   =     65044.38519284   -67397.54586384
  entropy T*S    EENTRO =        -0.10633080
  eigenvalues    EBANDS =     -2188.90281488
  atomic energy  EATOM  =     55137.21312455
  Solvation  Ediel_sol  =         0.00000000
  ---------------------------------------------------
  free energy    TOTEN  =      -414.28948060 eV

  energy without entropy =     -414.18314980  energy(sigma->0) =     -414.23631520


--------------------------------------------------------------------------------------------------------




--------------------------------------- Iteration      1(  23)  ---------------------------------------


    POTLOK:  cpu time    0.2897: real time    0.2904
    SETDIJ:  cpu time    0.0288: real time    0.0289
     EDDAV:  cpu time  171.5951: real time  172.0010
    CHARGE:  cpu time    6.6006: real time    6.6162
    MIXING:  cpu time    0.0108: real time    0.0108
    --------------------------------------------
      LOOP:  cpu time  178.5250: real time  178.9473

 eigenvalue-minimisations  : 41472
 total energy-change (2. order) : 0.1144836E+01  (-0.5753141E+00)
 number of electron     608.0000027 magnetization      19.9707994
 augmentation part      224.5238810 magnetization      11.4074566

 Broyden mixing:
  rms(total) = 0.15627E+01    rms(broyden)= 0.15622E+01
  rms(prec ) = 0.19806E+01
  weight for this iteration     100.00

 eigenvalues of (default mixing * dielectric matrix)
  average eigenvalue GAMMA=   0.4345
  1.5798  1.5798  1.1320  0.6659  0.4950  0.4950  0.3419  0.3419  0.2096  0.1789
  0.1107  0.1107  0.1011  0.1011  0.1118  0.0973  0.0886  0.0795

 Free energy of the ion-electron system (eV)
  ---------------------------------------------------
  alpha Z        PSCENC =      1575.65330513
  Ewald energy   TEWEN  =    -34371.47305223
  -Hartree energ DENC   =    -20562.73814888
  -exchange      EXHF   =         0.00000000
  -V(xc)+E(xc)   XCENC  =      2350.42011400
  PAW double counting   =     65174.83641507   -67524.59479849
  entropy T*S    EENTRO =        -0.09714655
  eigenvalues    EBANDS =     -2192.36445755
  atomic energy  EATOM  =     55137.21312455
  Solvation  Ediel_sol  =         0.00000000
  ---------------------------------------------------
  free energy    TOTEN  =      -413.14464495 eV

  energy without entropy =     -413.04749841  energy(sigma->0) =     -413.09607168


--------------------------------------------------------------------------------------------------------




--------------------------------------- Iteration      1(  24)  ---------------------------------------


    POTLOK:  cpu time    0.2886: real time    0.2893
    SETDIJ:  cpu time    0.0288: real time    0.0289
     EDDAV:  cpu time  184.4037: real time  184.8399
    CHARGE:  cpu time    6.6549: real time    6.6707
    MIXING:  cpu time    0.0114: real time    0.0114
    --------------------------------------------
      LOOP:  cpu time  191.3873: real time  191.8401

 eigenvalue-minimisations  : 45424
 total energy-change (2. order) : 0.2681985E+00  (-0.2862500E+00)
 number of electron     608.0000026 magnetization      19.4000475
 augmentation part      224.1243467 magnetization      11.1173562

 Broyden mixing:
  rms(total) = 0.12233E+01    rms(broyden)= 0.12228E+01
  rms(prec ) = 0.15830E+01
  weight for this iteration     100.00

 eigenvalues of (default mixing * dielectric matrix)
  average eigenvalue GAMMA=   0.4412
  1.5437  1.4589  1.4589  0.6228  0.6228  0.4627  0.4627  0.3057  0.3057  0.1845
  0.1552  0.1175  0.1102  0.1102  0.1015  0.1015  0.0922  0.0869  0.0785

 Free energy of the ion-electron system (eV)
  ---------------------------------------------------
  alpha Z        PSCENC =      1575.65330513
  Ewald energy   TEWEN  =    -34371.47305223
  -Hartree energ DENC   =    -20568.62745892
  -exchange      EXHF   =         0.00000000
  -V(xc)+E(xc)   XCENC  =      2350.72388019
  PAW double counting   =     65280.87650959   -67629.81715100
  entropy T*S    EENTRO =        -0.09964231
  eigenvalues    EBANDS =     -2187.32596147
  atomic energy  EATOM  =     55137.21312455
  Solvation  Ediel_sol  =         0.00000000
  ---------------------------------------------------
  free energy    TOTEN  =      -412.87644646 eV

  energy without entropy =     -412.77680416  energy(sigma->0) =     -412.82662531


--------------------------------------------------------------------------------------------------------




--------------------------------------- Iteration      1(  25)  ---------------------------------------


    POTLOK:  cpu time    0.2892: real time    0.2899
    SETDIJ:  cpu time    0.0284: real time    0.0285
     EDDAV:  cpu time  175.3168: real time  175.7377
    CHARGE:  cpu time    6.6785: real time    6.6944
    MIXING:  cpu time    0.0115: real time    0.0115
    --------------------------------------------
      LOOP:  cpu time  182.3244: real time  182.7619

 eigenvalue-minimisations  : 42720
 total energy-change (2. order) :-0.2170560E-01  (-0.2272297E+00)
 number of electron     608.0000026 magnetization      18.9835353
 augmentation part      224.1500534 magnetization      10.9288819

 Broyden mixing:
[...]
   0.908E+02 0.294E+02 0.306E+03   -.103E+03 -.230E+02 -.359E+03   0.117E+02 0.105E+01 0.204E+02   -.479E-01 0.696E-01 -.414E-01
   -.821E+00 -.920E+02 -.585E+02   0.190E+00 0.107E+03 0.645E+02   0.389E+01 -.150E+02 -.489E+01   0.140E+00 0.701E-01 0.789E-01
   -.246E+03 0.458E+02 -.895E+02   0.270E+03 -.450E+02 0.926E+02   -.217E+02 0.221E+01 -.286E+01   -.670E-01 -.890E-01 0.398E-01
   0.225E+03 0.162E+02 0.442E+02   -.249E+03 -.160E+02 -.462E+02   0.225E+02 -.209E+01 0.249E+01   -.379E-01 -.113E-01 -.454E-01
   -.526E+02 0.135E+03 0.714E+02   0.548E+02 -.141E+03 -.821E+02   -.219E+01 0.622E+01 0.116E+02   0.171E-01 0.197E-01 0.229E-01
   -.226E+03 0.130E+03 -.213E+03   0.261E+03 -.147E+03 0.229E+03   -.212E+02 0.606E+01 -.113E+02   0.831E-02 -.135E-01 -.373E-01
   0.418E+02 0.187E+03 0.702E+02   -.412E+02 -.211E+03 -.720E+02   0.108E+01 0.183E+02 0.289E+01   -.129E-01 0.455E-01 -.180E-01
   0.485E+02 -.207E+03 0.794E+02   -.503E+02 0.222E+03 -.823E+02   0.138E+00 -.153E+02 0.317E+01   0.781E-01 0.137E-01 0.193E-02
   -.111E+03 0.468E+02 -.368E+02   0.119E+03 -.472E+02 0.422E+02   -.973E+01 -.130E+00 -.616E+01   -.448E-01 -.530E-01 -.743E-02
   0.555E+02 -.265E+03 -.878E+02   -.537E+02 0.288E+03 0.992E+02   0.984E-01 -.150E+02 -.523E+01   0.843E-01 0.603E-01 -.356E-01
   -.126E+03 0.109E+03 -.633E+02   0.139E+03 -.123E+03 0.658E+02   -.123E+02 0.136E+02 -.144E+01   -.373E-01 0.276E-01 -.822E-02
   -.156E+03 -.663E+02 -.210E+03   0.171E+03 0.687E+02 0.218E+03   -.148E+02 -.265E+01 -.745E+01   -.465E-01 0.481E-01 0.321E-01
   0.738E+02 0.724E+02 0.243E+03   -.821E+02 -.757E+02 -.260E+03   0.946E+01 0.396E+01 0.157E+02   -.110E-01 0.163E-01 0.592E-02
   0.738E+02 -.842E+02 0.134E+02   -.832E+02 0.832E+02 -.540E+01   0.740E+01 0.248E+01 -.720E+01   -.445E-01 -.408E-01 0.212E-01
   -.628E+01 0.431E+03 -.148E+03   -.114E+02 -.580E+03 0.187E+03   -.194E+01 0.370E+02 -.109E+02   0.309E-01 -.783E-01 0.336E-01
   0.615E+02 -.238E+03 0.104E+03   -.612E+02 0.281E+03 -.104E+03   0.533E+01 -.167E+02 0.541E+01   -.155E-01 -.888E-01 -.125E+00
   -.637E+02 0.160E+03 -.241E+02   0.721E+02 -.174E+03 0.291E+02   -.517E+01 0.132E+02 -.306E+01   0.182E-01 -.258E-01 0.574E-01
   -.191E+03 0.260E+01 -.972E+02   0.210E+03 -.221E+01 0.968E+02   -.203E+02 -.148E+01 0.724E+00   0.198E-01 0.668E-02 -.559E-02
   0.468E+02 0.921E+02 0.127E+03   -.485E+02 -.976E+02 -.141E+03   0.323E+01 0.468E+01 0.111E+02   -.138E-01 -.531E-01 -.388E-01
   0.441E+02 -.108E+03 0.471E+02   -.487E+02 0.114E+03 -.543E+02   0.469E+01 -.582E+01 0.760E+01   -.116E+00 -.304E-02 0.312E-01
   -.149E+03 0.280E+02 -.167E+03   0.160E+03 -.323E+02 0.176E+03   -.136E+02 0.483E+01 -.109E+02   0.640E-01 -.497E-01 0.254E-01
   0.127E+03 -.157E+03 0.559E+02   -.137E+03 0.169E+03 -.586E+02   0.107E+02 -.130E+02 0.375E+01   -.328E-01 0.205E-01 0.521E-01
   -.702E+02 0.192E+03 0.182E+03   0.777E+02 -.212E+03 -.205E+03   -.628E+01 0.184E+02 0.132E+02   -.133E-01 -.948E-02 -.818E-01
   -.125E+03 -.123E+03 -.110E+03   0.136E+03 0.135E+03 0.118E+03   -.122E+02 -.121E+02 -.760E+01   0.155E-01 0.780E-02 -.189E-01
   0.102E+03 -.995E+01 0.812E+02   -.111E+03 0.125E+02 -.864E+02   0.775E+01 -.171E+01 0.633E+01   0.393E-01 -.637E-02 0.337E-01
   0.587E+02 -.148E+03 0.126E+03   -.642E+02 0.158E+03 -.143E+03   0.423E+01 -.103E+02 0.121E+02   0.105E+00 -.448E-01 -.712E-01
   -.211E+03 0.479E+02 -.126E+03   0.226E+03 -.535E+02 0.139E+03   -.159E+02 0.676E+01 -.140E+02   -.672E-01 0.215E-01 -.220E-01
 -----------------------------------------------------------------------------------------------
   0.122E+03 -.145E+02 0.551E+02   0.284E-12 -.789E-12 0.313E-12   -.123E+03 0.146E+02 -.552E+02   0.137E+00 -.156E+00 0.563E-01
 
 
 POSITION                                       TOTAL-FORCE (eV/Angst)
 -----------------------------------------------------------------------------------
      7.12846      5.05629      2.35374        -1.452592     -0.761124      2.095392
      5.66838      2.45985      2.34481         0.552811     -0.351040      1.725330
     -2.71655      3.07901      9.77143         3.687132     -4.700769     31.371139
      2.73455      0.39686      0.18019       -15.209359     10.269239     -4.919878
      2.32607      2.27732      2.30058        -2.090713     -1.117603      2.570987
      0.54322      5.19374      2.78080         3.983156     -0.516617     -1.857331
      1.72279      0.33287      9.99550         4.509618      2.080245     -1.896172
      7.32261      3.35986      0.20859        -0.692295     -7.708011     -2.659432
      3.77544      4.88840      7.66772        -0.376248     -0.878483      6.945214
      2.15526      2.22301      7.82168         1.160686      0.092652     -0.194813
      0.76210      3.94400      4.80202         3.885616    -22.483270    -12.818866
     -0.88763      0.55392      5.32945         0.430173    -15.200292     -4.797818
     -1.05838      2.58387      7.56116        -9.477227     -5.835759     -4.056293
     -2.66641      5.07879      7.56929         1.867386     -0.619137     -1.218258
      5.33996      0.40782      4.98233        -2.307763      2.054709     -1.217366
      4.04598      3.43643      5.45051        -5.635429      0.546904     -4.377539
      7.08518     10.94637      2.44079        14.077694    -11.055829     -8.697264
      5.35396      7.48831      2.92921         0.554992      8.012153     -2.123470
      4.27114      8.77796      0.01842        -0.832139      0.793002     -0.545547
     -4.17824      6.31020      9.76766        -1.869246     -6.274798      0.441987
      2.39690      7.38582      2.63999        19.246872    112.451209    -27.841958
      0.59605     10.93850      2.66489         1.886885     -1.644609     -0.957795
      1.96797      5.94501      9.79679         0.038902     -0.002276      3.183121
      0.91041      9.03707      9.96051        -1.086302     -0.823127     -0.336909
      3.89804     10.69281      7.27730        -1.148946     -1.407127      1.262999
      2.13825      7.91602      7.39723         2.574136      1.401566     12.382861
      0.86565      8.79818      5.19541        -3.676398      2.441433     -1.582477
     -0.93775      6.16850      5.17767         1.232532      0.138002     -0.581147
     -1.38886      7.78828      7.67419         2.078232     -0.925686     -0.046548
     -2.59155     10.98162      7.83452        -3.793647     -2.001284     -0.412196
      5.20642      6.13020      5.13272         1.192841     -0.074856      0.007883
      3.71318      9.16210      5.22802        -4.264456    -27.631987     -6.535158
      7.28719      4.83689      0.61833         0.472011      7.827926      1.367489
      1.01276      5.35285      0.42963        -1.040844      0.522409      0.612298
      4.10992      5.12294      0.66100        -1.018119     -0.611395     -0.907040
      5.99777      0.43480      3.01856       -16.893307     11.007741      9.258237
      3.35662      3.06889      3.30439         2.712807      0.654259      0.653816
      6.92090      3.32891      3.21128        -1.028624      0.510938     -1.271706
      2.58965      2.32384      0.63132        -0.760762     -2.026572     -0.632723
      5.48366      2.74043      0.65548        -0.161532      0.060885     -0.634294
      8.47613      2.13513      0.49100        -0.339106     -1.512857     -0.826060
      0.90867      3.43266      3.18075         0.103058     -0.378309     -1.682342
     -0.94190     11.07065      3.30697        -0.721381      0.729011      1.371973
      1.99345      0.50808      3.26257         0.748692      1.492987     -1.449660
      3.81013      4.82508      6.09347        -0.107675      6.403622     -3.513996
     -2.42544      5.40635      5.52853        -2.432608     -0.419785      2.255269
      0.64466      5.05135      5.54603        -3.059735     21.822123     14.444316
      2.57920      0.39044      8.21060        -1.696657      1.113159      0.310009
      0.24345      3.13175      7.98381        10.937227      3.569893      3.552100
     -5.44657      3.05965      8.36930        -2.522476      1.553711     -1.509889
     -0.92883      1.92189      5.70861        -0.526450     15.610781      5.031366
      2.26976      2.34280      5.43970        -0.397125      2.042428      1.621252
      4.81255      2.17887      5.60165         5.971501     -9.292707      0.214722
     -2.80470      3.35652      8.49282        -1.028352      7.446894    -32.461498
     -4.49821      0.36693      8.31064         3.399470      0.038343      1.225784
     -1.20083      0.60506      7.82118         2.622637      2.891487      0.236917
      6.97226     10.69835      0.64822        -1.485346     -1.940590      0.372416
      0.66226     10.91304      0.80730         0.064942      0.764103      0.891098
      3.82154     10.72780      0.51447        13.635262    -11.808523      3.937211
      5.65848      6.00778      3.31321         1.623471     -6.085018      1.042490
      3.88907      8.55033      3.22112        -1.603209     -0.770994      0.334501
      6.87900      8.85990      3.12916        -1.504108     -0.549096     -0.674324
      2.68014      7.48707      0.60757         1.981373      7.847117      6.091530
      5.50901      7.88003      0.76175         0.465746      0.401569      1.144438
      8.51251      7.70980      0.16145        -0.244348     -0.198301      0.648738
      0.58188      8.92068      3.51305         1.163768      0.636009     -1.009584
     -0.95899      5.40593      3.43093        -2.057290      1.490141      0.817457
      2.22655      6.34646      2.89837       -19.620594   -111.825301     27.678596
      3.99112     10.44694      5.49646         5.590828     26.098254      4.874815
     -2.65491     11.05193      5.52331         3.256220     -0.411741      1.977373
      0.74056     11.07410      5.26804        -0.924212     -1.079172      0.335550
      2.20993      6.34374      8.23269         1.510877     -0.872088     -3.210671
      0.41779      8.60196      8.19602         0.046566     -0.213242      0.474286
      3.80672      8.72585      7.99009        -1.855946      0.492512     -1.467558
     -0.78946      7.88673      5.62095         0.480915     -0.144006      1.187410
      1.92988      7.84283      5.93823         1.153689     -1.856527     -9.813287
      5.19599      7.84069      5.54074        -1.418836     -0.013459     -0.209566
     -2.32114      9.17718      8.18278        -0.816563      0.816358      1.147963
     -3.98296      5.93146      8.25660        -1.192653     -1.231589     -5.008532
     -1.29578      6.02597      8.23150        -0.530107      1.129183     -1.141364
 -----------------------------------------------------------------------------------
    total drift:                                0.011975     -0.006019     -0.000818


--------------------------------------------------------------------------------------------------------



  FREE ENERGIE OF THE ION-ELECTRON SYSTEM (eV)
  ---------------------------------------------------
  free  energy   TOTEN  =      -412.6068886457 eV

  energy  without entropy=     -412.5074718647  energy(sigma->0) =     -412.55718026
 


--------------------------------------------------------------------------------------------------------


    POTLOK:  cpu time    0.3209: real time    0.3216


--------------------------------------------------------------------------------------------------------


     LOOP+:  cpu time14768.3461: real time14806.1819
    4ORBIT:  cpu time    0.0000: real time    0.0000

volume of typ            1:    19.3 %

volume of typ            2:     7.4 %
 
total charge     
 
# of ion       s       p       d       tot
------------------------------------------
    1        0.255   0.291   7.912   8.458
    2        0.268   0.255   7.914   8.437
    3        0.441   0.599   8.065   9.104
    4        0.353   0.428   7.997   8.778
    5        0.298   0.348   7.887   8.532
    6        0.260   0.281   7.970   8.512
    7        0.274   0.298   7.894   8.466
    8        0.331   0.401   7.951   8.683
    9        0.271   0.288   7.964   8.523
   10        0.195   0.156   7.842   8.194
   11        0.425   0.543   8.048   9.016
   12        0.389   0.474   7.948   8.812
   13        0.325   0.367   7.985   8.676
   14        0.264   0.289   7.919   8.472
   15        0.269   0.307   7.939   8.514
   16        0.372   0.515   7.982   8.868
   17        0.412   0.549   8.013   8.974
   18        0.305   0.352   7.869   8.527
   19        0.251   0.257   7.895   8.403
   20        0.396   0.540   7.933   8.870
   21        0.558   0.724   8.340   9.621
   22        0.312   0.369   7.843   8.524
   23        0.282   0.331   7.910   8.524
   24        0.262   0.275   7.876   8.412
   25        0.277   0.322   7.908   8.508
   26        0.340   0.439   7.934   8.713
   27        0.303   0.358   7.912   8.573
   28        0.284   0.323   7.880   8.487
   29        0.247   0.263   7.846   8.356
   30        0.283   0.315   7.910   8.508
   31        0.240   0.247   7.920   8.407
   32        0.374   0.445   8.097   8.917
   33        1.265   2.845   0.020   4.131
   34        1.283   2.674   0.005   3.962
   35        1.310   2.561   0.001   3.872
   36        1.295   2.823   0.025   4.142
   37        1.296   2.680   0.008   3.983
   38        1.286   2.679   0.007   3.972
   39        1.269   2.794   0.013   4.076
   40        1.273   2.745   0.008   4.026
   41        1.282   2.708   0.008   3.998
   42        1.275   2.748   0.010   4.032
   43        1.277   2.790   0.013   4.080
   44        1.295   2.671   0.008   3.974
   45        1.273   2.854   0.023   4.150
   46        1.277   2.722   0.008   4.007
   47        1.305   2.841   0.029   4.174
   48        1.269   2.725   0.006   4.001
   49        1.284   2.780   0.017   4.081
   50        1.295   2.616   0.003   3.914
   51        1.298   2.791   0.021   4.111
   52        1.305   2.586   0.002   3.893
   53        1.287   2.784   0.016   4.086
   54        1.304   2.873   0.034   4.211
   55        1.280   2.721   0.008   4.009
   56        1.289   2.727   0.011   4.027
   57        1.266   2.794   0.013   4.074
   58        1.288   2.655   0.004   3.947
   59        1.297   2.798   0.023   4.118
   60        1.275   2.786   0.015   4.076
   61        1.276   2.707   0.005   3.988
   62        1.303   2.583   0.002   3.888
   63        1.288   2.776   0.015   4.079
   64        1.290   2.669   0.006   3.965
   65        1.283   2.714   0.008   4.005
   66        1.292   2.669   0.006   3.968
   67        1.272   2.796   0.014   4.081
   68        1.343   2.995   0.063   4.401
   69        1.285   2.909   0.037   4.232
   70        1.277   2.748   0.010   4.034
   71        1.296   2.655   0.005   3.957
   72        1.274   2.772   0.012   4.058
   73        1.281   2.686   0.005   3.972
   74        1.294   2.624   0.003   3.921
   75        1.276   2.707   0.006   3.990
   76        1.287   2.852   0.027   4.165
   77        1.285   2.678   0.006   3.970
   78        1.263   2.759   0.009   4.031
   79        1.276   2.814   0.017   4.107
   80        1.284   2.686   0.007   3.977
--------------------------------------------------
tot          71.84  143.52  254.93  470.28
 
magnetization (x)
 
# of ion       s       p       d       tot
------------------------------------------
    1        0.002  -0.004  -0.409  -0.411
    2        0.000  -0.003   0.017   0.014
    3        0.009   0.005   0.203   0.217
    4       -0.004  -0.000   0.107   0.103
    5        0.003   0.010   0.717   0.731
    6        0.001   0.003   0.160   0.163
    7        0.004   0.003   0.493   0.500
    8        0.004   0.005   0.329   0.338
    9       -0.002   0.008   0.465   0.471
   10       -0.000   0.012   1.403   1.415
   11        0.012   0.010   0.252   0.275
   12        0.001  -0.002   0.086   0.085
   13        0.006   0.004   0.282   0.291
   14       -0.000  -0.001  -0.064  -0.066
   15       -0.001  -0.001  -0.058  -0.060
   16       -0.005   0.003   0.264   0.262
   17        0.003   0.004   0.299   0.306
   18        0.005   0.011   0.905   0.921
   19        0.003  -0.003   0.008   0.008
   20        0.005   0.004   0.484   0.493
   21       -0.021  -0.027  -0.313  -0.361
   22        0.001   0.013   0.611   0.625
   23        0.001   0.007   0.455   0.464
   24        0.001   0.008   0.664   0.673
   25       -0.001   0.005   0.514   0.518
   26       -0.002   0.006   0.481   0.485
   27        0.002  -0.001  -0.046  -0.045
   28        0.002   0.015   0.627   0.644
   29        0.007   0.011   0.970   0.989
   30        0.007   0.009   0.557   0.574
   31       -0.001  -0.001  -0.131  -0.132
   32        0.004   0.003   0.037   0.044
   33        0.001   0.010   0.000   0.011
   34        0.004   0.171   0.000   0.175
   35        0.017   0.858   0.000   0.875
   36        0.001   0.064   0.000   0.066
   37        0.009   0.381   0.000   0.390
   38       -0.002  -0.094   0.000  -0.096
   39        0.002   0.046   0.000   0.049
   40        0.002   0.048  -0.000   0.050
   41        0.005   0.191   0.000   0.196
   42        0.004   0.067   0.000   0.071
   43        0.003   0.092   0.000   0.096
   44        0.007   0.293   0.000   0.301
   45        0.003   0.042   0.001   0.045
   46        0.004   0.108   0.000   0.112
   47        0.002   0.102   0.001   0.105
   48        0.009   0.235   0.000   0.244
   49        0.004   0.153   0.000   0.157
   50        0.011   0.502  -0.000   0.513
   51        0.001  -0.003   0.000  -0.002
   52        0.009   0.410   0.000   0.418
   53        0.003   0.098   0.000   0.101
   54        0.002   0.034   0.001   0.036
   55        0.004   0.102   0.000   0.106
   56        0.006   0.253   0.000   0.259
   57        0.002   0.049   0.000   0.051
   58        0.005   0.185   0.000   0.190
   59        0.001   0.030   0.000   0.032
   60        0.002   0.081   0.001   0.084
   61        0.003   0.085   0.000   0.088
   62        0.013   0.658   0.000   0.671
   63        0.000   0.094   0.000   0.095
   64        0.005   0.217  -0.000   0.222
   65        0.005   0.232  -0.000   0.237
   66        0.000  -0.008  -0.000  -0.008
   67        0.003   0.051   0.000   0.053
   68       -0.003  -0.147  -0.003  -0.153
   69        0.001   0.016   0.000   0.017
   70        0.001   0.032  -0.000   0.033
   71        0.004   0.171  -0.000   0.175
   72        0.005   0.102   0.000   0.107
   73        0.008   0.275   0.000   0.283
   74        0.009   0.425  -0.000   0.434
   75        0.005   0.140   0.000   0.145
   76        0.001   0.027   0.000   0.028
   77        0.001   0.046  -0.000   0.047
   78        0.003   0.079   0.000   0.082
   79        0.001   0.025   0.000   0.026
   80        0.005   0.236  -0.000   0.241
--------------------------------------------------
tot           0.24    7.38   10.38   17.99
 

 total amount of memory used by VASP MPI-rank0   600198. kBytes
=======================================================================

   base      :      30000. kBytes
   nonlr-proj:      51258. kBytes
   fftplans  :      11362. kBytes
   grid      :      64490. kBytes
   one-center:       2488. kBytes
   wavefun   :     440600. kBytes
 
  
  
 General timing and accounting informations for this job:
 ========================================================
  
                  Total CPU time used (sec):    14886.691
                            User time (sec):    14873.376
                          System time (sec):       13.316
                         Elapsed time (sec):    14933.076
  
                   Maximum memory used (kb):      707048.
                   Average memory used (kb):           0.
  
                          Minor page faults:        42048
                          Major page faults:           88
                 Voluntary context switches:         1332
