 vasp.5.4.4.18Apr17-6-g9f103f2a35 (build May 12 2020 04:58:55) complex          
  
 MD_VERSION_INFO: Compiled 2020-05-12T11:58:55-UTC in devlin.sd.materialsdesign.
 com:/home/medea2/data/build/wwolf/vasp-gpu5.4.4/13047/x86_64/src/src/build/std 
 from svn 13047
 
 This VASP executable licensed from Materials Design, Inc.
 
 executed on                        Lin64 date 2023.03.25  19:39:57
 running on   16 total cores
 distrk:  each k-point on   16 cores,    1 groups
 distr:  one band on NCORES_PER_BAND=   1 cores,   16 groups


--------------------------------------------------------------------------------------------------------


 INCAR:
 POTCAR:    PAW_PBE Ni 02Aug2007                  
 POTCAR:    PAW_PBE O 08Apr2002                   

 ----------------------------------------------------------------------------- 
|                                                                             |
|           W    W    AA    RRRRR   N    N  II  N    N   GGGG   !!!           |
|           W    W   A  A   R    R  NN   N  II  NN   N  G    G  !!!           |
|           W    W  A    A  R    R  N N  N  II  N N  N  G       !!!           |
|           W WW W  AAAAAA  RRRRR   N  N N  II  N  N N  G  GGG   !            |
|           WW  WW  A    A  R   R   N   NN  II  N   NN  G    G                |
|           W    W  A    A  R    R  N    N  II  N    N   GGGG   !!!           |
|                                                                             |
|      For optimal performance we recommend to set                            |
|        NCORE= 4 - approx SQRT( number of cores)                             |
|      NCORE specifies how many cores store one orbital (NPAR=cpu/NCORE).     |
|      This setting can  greatly improve the performance of VASP for DFT.     |
|      The default,   NCORE=1            might be grossly inefficient         |
|      on modern multi-core architectures or massively parallel machines.     |
|      Do your own testing !!!!                                               |
|      Unfortunately you need to use the default for GW and RPA calculations. |
|      (for HF NCORE is supported but not extensively tested yet)             |
|                                                                             |
 ----------------------------------------------------------------------------- 

 POTCAR:    PAW_PBE Ni 02Aug2007                  
  local pseudopotential read in
  partial core-charges read in
  partial kinetic energy density read in
  atomic valenz-charges read in
  non local Contribution for L=           2  read in
    real space projection operators read in
  non local Contribution for L=           2  read in
    real space projection operators read in
  non local Contribution for L=           0  read in
    real space projection operators read in
  non local Contribution for L=           0  read in
    real space projection operators read in
  non local Contribution for L=           1  read in
    real space projection operators read in
  non local Contribution for L=           1  read in
    real space projection operators read in
    PAW grid and wavefunctions read in
 
   number of l-projection  operators is LMAX  =           6
   number of lm-projection operators is LMMAX =          18
 
 POTCAR:    PAW_PBE O 08Apr2002                   
  local pseudopotential read in
  partial core-charges read in
  partial kinetic energy density read in
  kinetic energy density of atom read in
  atomic valenz-charges read in
  non local Contribution for L=           0  read in
    real space projection operators read in
  non local Contribution for L=           0  read in
    real space projection operators read in
  non local Contribution for L=           1  read in
    real space projection operators read in
  non local Contribution for L=           1  read in
    real space projection operators read in
    PAW grid and wavefunctions read in
 
   number of l-projection  operators is LMAX  =           4
   number of lm-projection operators is LMMAX =           8
 
 Optimization of the real space projectors (new method)

 maximal supplied QI-value         = 16.25
 optimisation between [QCUT,QGAM] = [ 11.38, 22.75] = [ 36.24,144.96] Ry 
 Optimized for a Real-space Cutoff    1.47 Angstroem

   l    n(q)    QCUT    max X(q) W(low)/X(q) W(high)/X(q)  e(spline) 
   2      9    11.376    60.317    0.17E-03    0.16E-04    0.16E-06
   2      9    11.376    55.921    0.17E-03    0.16E-04    0.17E-06
   0     10    11.376    51.690    0.45E-04    0.60E-04    0.21E-06
   0     10    11.376    30.015    0.37E-04    0.55E-04    0.19E-06
   1     10    11.376    18.849    0.83E-04    0.11E-03    0.92E-07
   1     10    11.376    14.624    0.69E-04    0.92E-04    0.82E-07
 Optimization of the real space projectors (new method)

 maximal supplied QI-value         = 24.76
 optimisation between [QCUT,QGAM] = [ 11.39, 22.77] = [ 36.31,145.25] Ry 
 Optimized for a Real-space Cutoff    1.10 Angstroem

   l    n(q)    QCUT    max X(q) W(low)/X(q) W(high)/X(q)  e(spline) 
   0      7    11.387    20.381    0.22E-03    0.48E-03    0.18E-06
   0      7    11.387    15.268    0.22E-03    0.52E-03    0.19E-06
   1      7    11.387     5.964    0.22E-03    0.73E-03    0.24E-06
   1      7    11.387     5.382    0.19E-03    0.60E-03    0.21E-06

 ----------------------------------------------------------------------------- 
|                                                                             |
|  ADVICE TO THIS USER RUNNING 'VASP/VAMP'   (HEAR YOUR MASTER'S VOICE ...):  |
|                                                                             |
|      You enforced a specific xc-type in the INCAR file,                     |
|      a different type was found on the POTCAR file                          |
|          I HOPE YOU KNOW, WHAT YOU ARE  DOING                               |
|                                                                             |
 ----------------------------------------------------------------------------- 

  PAW_PBE Ni 02Aug2007                  :
 energy of atom  1       EATOM=-1077.6739
 kinetic energy error for atom=    0.0030 (will be added to EATOM!!)
  PAW_PBE O 08Apr2002                   :
 energy of atom  2       EATOM= -432.3788
 kinetic energy error for atom=    0.0224 (will be added to EATOM!!)
 
 
 POSCAR: Ni2O3_Cc_scale_0_975_disp_0_20_round_2  
  positions in direct lattice
  No initial velocities read in
 exchange correlation table for  LEXCH =       14
   RHO(1)=    0.500       N(1)  =     2000
   RHO(2)=  100.500       N(2)  =     4000
 


--------------------------------------------------------------------------------------------------------


 ion  position               nearest neighbor table
   1  0.926  0.471  0.253-  67 1.60  38 1.75  60 1.99  33 2.15
   2  0.738  0.218  0.225-  40 1.63  37 1.82  36 1.97  38 2.32   3 2.92  17 2.97   8 2.98   5 2.99

   3  0.394  0.284  0.994-  39 1.50  54 1.66  35 1.68  40 2.32  14 2.84   5 2.87   2 2.92   4 3.01
                            13 3.05
   4  0.256  0.039  0.012-  55 1.75  39 1.81  58 1.84  59 1.92  22 2.75   7 2.75  19 2.94  30 2.96
                            25 2.97   5 2.98   3 3.01
   5  0.429  0.216  0.245-  37 1.70  39 1.85  44 1.93  42 2.07   3 2.87  22 2.88   4 2.98   2 2.99

   6  0.297  0.467  0.294-  42 1.36  68 1.93  67 1.95  34 2.03  11 2.72  28 2.86  21 3.07
   7  0.949  0.048  0.998-  48 1.59  58 1.69  57 1.94  41 2.28  25 2.33   4 2.75  22 2.97
   8  0.737  0.302  0.981-  49 1.34  33 1.55  40 1.66  41 2.04  13 2.72  10 2.94   2 2.98
   9  0.935  0.438  0.761-  79 1.49  50 1.76  45 1.92  72 2.19  14 2.69  20 2.77  16 2.89  10 2.89
                            23 3.00
  10  0.734  0.224  0.738-  52 1.34  50 1.78  49 2.08  48 2.26  25 2.82  16 2.85  13 2.88  11 2.89
                             9 2.89   8 2.94
  11  0.409  0.326  0.520-  47 1.46  51 1.69  42 2.26   6 2.72  10 2.89  13 2.96  28 2.98
  12  0.276  0.042  0.462-  71 1.41  43 1.48  51 2.25  70 2.32  22 2.56  27 2.82  17 2.90
  13  0.439  0.212  0.762-  49 1.62  56 1.80  54 1.95  51 2.01   8 2.72  10 2.88  11 2.96   3 3.05

  14  0.241  0.466  0.786-  54 1.77  79 1.82  46 1.92  80 2.02  20 2.21  35 2.34   9 2.69   3 2.84

  15  0.951  0.049  0.525-  70 1.52  69 1.63  53 2.02  36 2.09  16 2.95  30 3.07
  16  0.782  0.280  0.523-  52 1.74  53 1.96  37 2.10  45 2.44  10 2.85   9 2.89  15 2.95
  17  0.921  0.984  0.251-  62 1.68  43 1.72  36 1.90  57 2.09  12 2.90   2 2.97
  18  0.752  0.728  0.251-  64 1.35  61 1.62  62 2.00  60 2.03  32 2.98  31 3.02
  19  0.415  0.815  0.986-  78 1.31  59 1.70  64 2.09  30 2.55  29 2.82   4 2.94  20 3.09
  20  0.232  0.566  0.947-  79 1.38  63 1.44  35 1.88  34 2.11  14 2.21   9 2.77  19 3.09
  21  0.413  0.718  0.251-  66 1.61  68 1.72  63 2.06  61 2.10  32 2.96   6 3.07
  22  0.283  0.984  0.253-  58 1.54  44 1.62  66 1.94  43 2.14  12 2.56   4 2.75   5 2.88   7 2.97

  23  0.895  0.572  0.967-  72 1.36  65 1.89  33 2.09  34 2.27  26 2.56  24 2.88   9 3.00
  24  0.762  0.801  0.997-  73 1.61  57 1.73  65 1.73  64 2.20  23 2.88  29 3.02  26 3.05
  25  0.893  0.992  0.785-  48 1.45  55 1.90  74 2.02  69 2.25   7 2.33  10 2.82   4 2.97
  26  0.775  0.709  0.756-  72 1.59  73 1.84  74 1.87  76 1.93  23 2.56  24 3.05  27 3.06
  27  0.435  0.810  0.513-  76 1.65  75 1.99  71 2.17  66 2.19  12 2.82  28 2.94  32 2.98  26 3.06

  28  0.265  0.576  0.502-  75 1.65  67 2.00  47 2.12  46 2.29   6 2.86  27 2.94  11 2.98  29 2.99

  29  0.410  0.726  0.757-  75 1.69  78 1.81  80 2.15  73 2.20  19 2.82  30 2.90  28 2.99  24 3.02

  30  0.289  0.964  0.784-  78 1.88  55 2.00  56 2.06  70 2.12  19 2.55  29 2.90   4 2.96  15 3.07

  31  0.928  0.584  0.516-  77 1.43  60 1.62  45 1.65  46 1.67  32 2.89  18 3.02
  32  0.743  0.807  0.492-  61 1.60  76 1.71  77 1.99  69 2.01  31 2.89  21 2.96  27 2.98  18 2.98

  33  0.821  0.429  0.042-   8 1.55  23 2.09   1 2.15
  34  0.179  0.517  0.095-  63 1.93   6 2.03  20 2.11  23 2.27
  35  0.391  0.436  0.023-   3 1.68  20 1.88  14 2.34
  36  0.786  0.054  0.312-  17 1.90   2 1.97  15 2.09
  37  0.631  0.271  0.309-   5 1.70   2 1.82  16 2.10
  38  0.994  0.317  0.289-   1 1.75   2 2.32
  39  0.340  0.194  0.060-   3 1.50   4 1.81   5 1.85
  40  0.670  0.219  0.064-   2 1.63   8 1.66   3 2.32
  41  0.985  0.239  0.093-   8 2.04   7 2.28
  42  0.302  0.341  0.294-   6 1.36   5 2.07  11 2.26
  43  0.122  0.047  0.320-  12 1.48  17 1.72  22 2.14
  44  0.468  0.054  0.323-  22 1.62   5 1.93
  45  0.841  0.498  0.580-  31 1.65   9 1.92  16 2.44
  46  0.117  0.511  0.597-  31 1.67  14 1.92  28 2.29
  47  0.461  0.441  0.597-  11 1.46  28 2.12
  48  0.797  0.038  0.841-  25 1.45   7 1.59  10 2.26
  49  0.627  0.276  0.848-   8 1.34  13 1.62  10 2.08
  50  0.946  0.283  0.809-   9 1.76  10 1.78
  51  0.300  0.227  0.558-  11 1.69  13 2.01  12 2.25
  52  0.695  0.217  0.610-  10 1.34  16 1.74
  53  0.008  0.231  0.562-  16 1.96  15 2.02
  54  0.360  0.328  0.845-   3 1.66  14 1.77  13 1.95
  55  0.124  0.016  0.835-   4 1.75  25 1.90  30 2.00
  56  0.508  0.059  0.831-  13 1.80  30 2.06
  57  0.806  0.954  0.042-  24 1.73   7 1.94  17 2.09
  58  0.149  0.987  0.098-  22 1.54   7 1.69   4 1.84
  59  0.465  0.955  0.063-  19 1.70   4 1.92
  60  0.847  0.567  0.354-  31 1.62   1 1.99  18 2.03
  61  0.670  0.776  0.336-  32 1.60  18 1.62  21 2.10
  62  0.954  0.838  0.308-  17 1.68  18 2.00
  63  0.273  0.655  0.052-  20 1.44  34 1.93  21 2.06
  64  0.655  0.731  0.113-  18 1.35  19 2.09  24 2.20
  65  0.953  0.735  0.033-  24 1.73  23 1.89
  66  0.309  0.809  0.290-  21 1.61  22 1.94  27 2.19
  67  0.107  0.535  0.303-   1 1.60   6 1.95  28 2.00
  68  0.460  0.563  0.277-  21 1.72   6 1.93
  69  0.843  0.973  0.575-  15 1.63  32 2.01  25 2.25
  70  0.135  0.013  0.574-  15 1.52  30 2.12  12 2.32
  71  0.433  0.997  0.575-  12 1.41  27 2.17
  72  0.830  0.579  0.830-  23 1.36  26 1.59   9 2.19
  73  0.675  0.790  0.834-  24 1.61  26 1.84  29 2.20
  74  0.966  0.813  0.820-  26 1.87  25 2.02
  75  0.328  0.707  0.589-  28 1.65  29 1.69  27 1.99
  76  0.641  0.782  0.576-  27 1.65  32 1.71  26 1.93
  77  0.955  0.704  0.575-  31 1.43  32 1.99
  78  0.337  0.803  0.853-  19 1.31  29 1.81  30 1.88
  79  0.090  0.520  0.829-  20 1.38   9 1.49  14 1.82
  80  0.470  0.547  0.851-  14 2.02  29 2.15
 
  LATTYP: Found a simple monoclinic cell.
 ALAT       =    15.5489632352
 B/A-ratio  =     0.6987547874
 C/A-ratio  =     1.5833429408
 COS(beta)  =    -0.9717709890
  
  Lattice vectors:
  
 A1 = ( -12.0843842100,   0.0000000000,  -9.7845754100)
 A2 = (   0.0000000000, -10.8649125000,   0.0000000000)
 A3 = (  14.9385506700,   0.0000000000,  19.5691508200)


Analysis of symmetry for initial positions (statically):
=====================================================================
 Subroutine PRICEL returns:
 Original cell was already a primitive cell.
 

 Routine SETGRP: Setting up the symmetry group for a 
 simple monoclinic supercell.


 Subroutine GETGRP returns: Found  1 space group operations
 (whereof  1 operations were pure point group operations)
 out of a pool of  4 trial point group operations.


The static configuration has the point symmetry C_1 .


Analysis of symmetry for dynamics (positions and initial velocities):
=====================================================================
 Subroutine PRICEL returns:
 Original cell was already a primitive cell.
 

 Routine SETGRP: Setting up the symmetry group for a 
 simple monoclinic supercell.


 Subroutine GETGRP returns: Found  1 space group operations
 (whereof  1 operations were pure point group operations)
 out of a pool of  4 trial point group operations.


The dynamic configuration has the point symmetry C_1 .


Analysis of structural, dynamic, and magnetic symmetry:
=====================================================================
 Subroutine PRICEL returns:
 Original cell was already a primitive cell.
 

 Routine SETGRP: Setting up the symmetry group for a 
 simple monoclinic supercell.


 Subroutine GETGRP returns: Found  1 space group operations
 (whereof  1 operations were pure point group operations)
 out of a pool of  4 trial point group operations.


The magnetic configuration has the point symmetry C_1 .


 Subroutine INISYM returns: Found  1 space group operations
 (whereof  1 operations are pure point group operations),
 and found     1 'primitive' translations

 
 
 KPOINTS: Automatic mesh                          

Automatic generation of k-mesh.
Space group operators:
 irot       det(A)        alpha          n_x          n_y          n_z        tau_x        tau_y        tau_z
    1     1.000000     0.000000     1.000000     0.000000     0.000000     0.000000     0.000000     0.000000
 
 Subroutine IBZKPT returns following result:
 ===========================================
 
 Found     19 irreducible k-points:
 
 Following reciprocal coordinates:
            Coordinates               Weight
  0.000000  0.000000  0.000000      1.000000
  0.250000  0.000000  0.000000      2.000000
  0.500000  0.000000  0.000000      1.000000
  0.000000  0.333333  0.000000      2.000000
  0.250000  0.333333  0.000000      2.000000
  0.500000  0.333333  0.000000      2.000000
 -0.250000  0.333333 -0.000000      2.000000
  0.000000  0.000000  0.333333      2.000000
  0.250000  0.000000  0.333333      2.000000
  0.500000  0.000000  0.333333      2.000000
 -0.250000  0.000000  0.333333      2.000000
  0.000000  0.333333  0.333333      2.000000
  0.250000  0.333333  0.333333      2.000000
  0.500000  0.333333  0.333333      2.000000
 -0.250000  0.333333  0.333333      2.000000
  0.000000 -0.333333  0.333333      2.000000
  0.250000 -0.333333  0.333333      2.000000
  0.500000 -0.333333  0.333333      2.000000
 -0.250000 -0.333333  0.333333      2.000000
 
 Following cartesian coordinates:
            Coordinates               Weight
  0.000000  0.000000  0.000000      1.000000
  0.027085  0.000000  0.017650      2.000000
  0.054170  0.000000  0.035299      1.000000
  0.000000  0.030680  0.000000      2.000000
  0.027085  0.030680  0.017650      2.000000
  0.054170  0.030680  0.035299      2.000000
 -0.027085  0.030680 -0.017650      2.000000
  0.000000  0.000000  0.034067      2.000000
  0.027085  0.000000  0.051717      2.000000
  0.054170  0.000000  0.069367      2.000000
 -0.027085  0.000000  0.016418      2.000000
  0.000000  0.030680  0.034067      2.000000
  0.027085  0.030680  0.051717      2.000000
  0.054170  0.030680  0.069367      2.000000
 -0.027085  0.030680  0.016418      2.000000
  0.000000 -0.030680  0.034067      2.000000
  0.027085 -0.030680  0.051717      2.000000
  0.054170 -0.030680  0.069367      2.000000
 -0.027085 -0.030680  0.016418      2.000000
 


--------------------------------------------------------------------------------------------------------




 Dimension of arrays:
   k-points           NKPTS =     19   k-points in BZ     NKDIM =     19   number of bands    NBANDS=    416
   number of dos      NEDOS =    301   number of ions     NIONS =     80
   non local maximal  LDIM  =      6   non local SUM 2l+1 LMDIM =     18
   total plane-waves  NPLWV = 504000
   max r-space proj   IRMAX =   6945   max aug-charges    IRDMAX=  16847
   dimension x,y,z NGX =    70 NGY =   80 NGZ =   90
   dimension x,y,z NGXF=   140 NGYF=  160 NGZF=  180
   support grid    NGXF=   140 NGYF=  160 NGZF=  180
   ions per type =              32  48
   NGX,Y,Z   is equivalent  to a cutoff of  12.61, 12.24, 12.81 a.u.
   NGXF,Y,Z  is equivalent  to a cutoff of  25.22, 24.48, 25.62 a.u.

 SYSTEM =  unknown system                          
 POSCAR =  Ni2O3_Cc_scale_0_975_disp_0_20_round_2  

 Startparameter for this run:
   NWRITE =      1    write-flag & timer
   PREC   = accura    normal or accurate (medium, high low for compatibility)
   ISTART =      0    job   : 0-new  1-cont  2-samecut
   ICHARG =      2    charge: 1-file 2-atom 10-const
   ISPIN  =      2    spin polarized calculation?
   LNONCOLLINEAR =      F non collinear calculations
   LSORBIT =      F    spin-orbit coupling
   INIWAV =      1    electr: 0-lowe 1-rand  2-diag
   LASPH  =      F    aspherical Exc in radial PAW
   METAGGA=      F    non-selfconsistent MetaGGA calc.

 Electronic Relaxation 1
   ENCUT  =  500.0 eV  36.75 Ry    6.06 a.u.  16.83 19.81 21.29*2*pi/ulx,y,z
   ENINI  =  500.0     initial cutoff
   ENAUG  =  605.4 eV  augmentation charge cutoff
   NELM   =     80;   NELMIN=  2; NELMDL= -5     # of ELM steps 
   EDIFF  = 0.1E-04   stopping-criterion for ELM
   LREAL  =      T    real-space projection
   NLSPLINE    = F    spline interpolate recip. space projectors
   LCOMPAT=      F    compatible to vasp.4.4
   GGA_COMPAT  = T    GGA compatible to vasp.4.4-vasp.4.6
   LMAXPAW     = -100 max onsite density
   LMAXMIX     =    2 max onsite mixed and CHGCAR
   VOSKOWN=      1    Vosko Wilk Nusair interpolation
   ROPT   =   -0.00025  -0.00025
 Ionic relaxation
   EDIFFG = 0.1E-03   stopping-criterion for IOM
   NSW    =      0    number of steps for IOM
   NBLOCK =      1;   KBLOCK =      1    inner block; outer block 
   IBRION =     -1    ionic relax: 0-MD 1-quasi-New 2-CG
   NFREE  =      0    steps in history (QN), initial steepest desc. (CG)
   ISIF   =      2    stress and relaxation
   IWAVPR =     10    prediction:  0-non 1-charg 2-wave 3-comb
   ISYM   =      2    0-nonsym 1-usesym 2-fastsym
   LCORR  =      T    Harris-Foulkes like correction to forces

   POTIM  = 0.5000    time-step for ionic-motion
   TEIN   =    0.0    initial temperature
   TEBEG  =    0.0;   TEEND  =   0.0 temperature during run
   SMASS  =  -3.00    Nose mass-parameter (am)
   estimated Nose-frequenzy (Omega)   =  0.10E-29 period in steps =****** mass=  -0.195E-26a.u.
   SCALEE = 1.0000    scale energy and forces
   NPACO  =    256;   APACO  = 16.0  distance and # of slots for P.C.
   PSTRESS=    0.0 pullay stress

  Mass of Ions in am
   POMASS =  58.69 16.00
  Ionic Valenz
   ZVAL   =  10.00  6.00
  Atomic Wigner-Seitz radii
   RWIGS  =   1.15  0.73
  virtual crystal weights 
   VCA    =   1.00  1.00
   NELECT =     608.0000    total number of electrons
   NUPDOWN=      -1.0000    fix difference up-down

 DOS related values:
   EMIN   =  10.00;   EMAX   =-10.00  energy-range for DOS
   EFERMI =   0.00
   ISMEAR =     0;   SIGMA  =   0.05  broadening in eV -4-tet -1-fermi 0-gaus

 Electronic relaxation 2 (details)
   IALGO  =     38    algorithm
   LDIAG  =      T    sub-space diagonalisation (order eigenvalues)
   LSUBROT=      F    optimize rotation matrix (better conditioning)
   TURBO    =      0    0=normal 1=particle mesh
   IRESTART =      0    0=no restart 2=restart with 2 vectors
   NREBOOT  =      0    no. of reboots
   NMIN     =      0    reboot dimension
   EREF     =   0.00    reference energy to select bands
   IMIX   =      4    mixing-type and parameters
     AMIX     =   0.40;   BMIX     =  1.00
     AMIX_MAG =   1.60;   BMIX_MAG =  1.00
     AMIN     =   0.10
     WC   =   100.;   INIMIX=   1;  MIXPRE=   1;  MAXMIX= -45

 Intra band minimization:
   WEIMIN = 0.0000     energy-eigenvalue tresh-hold
   EBREAK =  0.60E-08  absolut break condition
   DEPER  =   0.30     relativ break condition  

   TIME   =   0.40     timestep for ELM

  volume/ion in A,a.u.               =      12.27        82.77
  Fermi-wavevector in a.u.,A,eV,Ry     =   1.395670  2.637433 26.502704  1.947894
  Thomas-Fermi vector in A             =   2.519099
 
 Write flags
   LWAVE        =      F    write WAVECAR
   LDOWNSAMPLE  =      F    k-point downsampling of WAVECAR
   LCHARG       =      T    write CHGCAR
   LVTOT        =      F    write LOCPOT, total local potential
   LVHAR        =      F    write LOCPOT, Hartree potential only
   LELF         =      F    write electronic localiz. function (ELF)
   LORBIT       =      0    0 simple, 1 ext, 2 COOP (PROOUT), +10 PAW based schemes


 Dipole corrections
   LMONO  =      F    monopole corrections only (constant potential shift)
   LDIPOL =      F    correct potential (dipole corrections)
   IDIPOL =      0    1-x, 2-y, 3-z, 4-all directions 
   EPSILON=  1.0000000 bulk dielectric constant

 Exchange correlation treatment:
   GGA     =    PS    GGA type
   LEXCH   =    14    internal setting for exchange type
   VOSKOWN=      1    Vosko Wilk Nusair interpolation
   LHFCALC =     F    Hartree Fock is set to
   LHFONE  =     F    Hartree Fock one center treatment
   AEXX    =    0.0000 exact exchange contribution

 Linear response parameters
   LEPSILON=     F    determine dielectric tensor
   LRPA    =     F    only Hartree local field effects (RPA)
   LNABLA  =     F    use nabla operator in PAW spheres
   LVEL    =     F    velocity operator in full k-point grid
   LINTERFAST=   F  fast interpolation
   KINTER  =     0    interpolate to denser k-point grid
   CSHIFT  =0.1000    complex shift for real part using Kramers Kronig
   OMEGAMAX=  -1.0    maximum frequency
   DEG_THRESHOLD= 0.2000000E-02 threshold for treating states as degnerate
   RTIME   =   -0.100 relaxation time in fs
  (WPLASMAI=    0.000 imaginary part of plasma frequency in eV, 0.658/RTIME)
   DFIELD  = 0.0000000 0.0000000 0.0000000 field for delta impulse in time
 
 Orbital magnetization related:
   ORBITALMAG=     F  switch on orbital magnetization
   LCHIMAG   =     F  perturbation theory with respect to B field
   DQ        =  0.001000  dq finite difference perturbation B field
   LLRAUG    =     F  two centre corrections for induced B field



--------------------------------------------------------------------------------------------------------


 Static calculation
 charge density and potential will be updated during run
 spin polarized calculation
 Variant of blocked Davidson
 Davidson routine will perform the subspace rotation
 perform sub-space diagonalisation
    after iterative eigenvector-optimisation
 modified Broyden-mixing scheme, WC =      100.0
 initial mixing is a Kerker type mixing with AMIX =  0.4000 and BMIX =      1.0000
 Hartree-type preconditioning will be used
 using additional bands          112
 real space projection scheme for non local part
 use partial core corrections
 calculate Harris-corrections to forces 
   (improved forces if not selfconsistent)
 use gradient corrections 
 use of overlap-Matrix (Vanderbilt PP)
 Gauss-broadening in eV      SIGMA  =   0.05


--------------------------------------------------------------------------------------------------------


  energy-cutoff  :      500.00
  volume of cell :      981.25
      direct lattice vectors                 reciprocal lattice vectors
     9.230217750  0.000000000  0.000000000     0.108339806  0.000000000  0.070598890
     0.000000000 10.864912500  0.000000000     0.000000000  0.092039397  0.000000000
    -6.376051290  0.000000000  9.784575410     0.000000000  0.000000000  0.102201675

  length of vectors
     9.230217750 10.864912500 11.678696246     0.129312477  0.092039397  0.102201675


 
 k-points in units of 2pi/SCALE and weight: Automatic mesh                          
   0.00000000  0.00000000  0.00000000       0.028
   0.02708495  0.00000000  0.01764972       0.056
   0.05416990  0.00000000  0.03529944       0.028
   0.00000000  0.03067980  0.00000000       0.056
   0.02708495  0.03067980  0.01764972       0.056
   0.05416990  0.03067980  0.03529944       0.056
  -0.02708495  0.03067980 -0.01764972       0.056
   0.00000000  0.00000000  0.03406723       0.056
   0.02708495  0.00000000  0.05171695       0.056
   0.05416990  0.00000000  0.06936667       0.056
  -0.02708495  0.00000000  0.01641750       0.056
   0.00000000  0.03067980  0.03406723       0.056
   0.02708495  0.03067980  0.05171695       0.056
   0.05416990  0.03067980  0.06936667       0.056
  -0.02708495  0.03067980  0.01641750       0.056
   0.00000000 -0.03067980  0.03406723       0.056
   0.02708495 -0.03067980  0.05171695       0.056
   0.05416990 -0.03067980  0.06936667       0.056
  -0.02708495 -0.03067980  0.01641750       0.056
 
 k-points in reciprocal lattice and weights: Automatic mesh                          
   0.00000000  0.00000000  0.00000000       0.028
   0.25000000  0.00000000  0.00000000       0.056
   0.50000000  0.00000000  0.00000000       0.028
   0.00000000  0.33333333  0.00000000       0.056
   0.25000000  0.33333333  0.00000000       0.056
   0.50000000  0.33333333  0.00000000       0.056
  -0.25000000  0.33333333 -0.00000000       0.056
   0.00000000  0.00000000  0.33333333       0.056
   0.25000000  0.00000000  0.33333333       0.056
   0.50000000  0.00000000  0.33333333       0.056
  -0.25000000  0.00000000  0.33333333       0.056
   0.00000000  0.33333333  0.33333333       0.056
   0.25000000  0.33333333  0.33333333       0.056
   0.50000000  0.33333333  0.33333333       0.056
  -0.25000000  0.33333333  0.33333333       0.056
   0.00000000 -0.33333333  0.33333333       0.056
   0.25000000 -0.33333333  0.33333333       0.056
   0.50000000 -0.33333333  0.33333333       0.056
  -0.25000000 -0.33333333  0.33333333       0.056
 
 position of ions in fractional coordinates (direct lattice) 
   0.92602596  0.47114808  0.25326446
   0.73816399  0.21782350  0.22507952
   0.39412033  0.28430474  0.99380325
   0.25586809  0.03923056  0.01197829
   0.42913743  0.21605039  0.24490293
   0.29670020  0.46689812  0.29383713
   0.94852491  0.04819186  0.99824678
   0.73659761  0.30157340  0.98146835
   0.93498142  0.43762487  0.76136503
   0.73353214  0.22427380  0.73846861
   0.40927473  0.32612008  0.52011880
   0.27576073  0.04224336  0.46211012
   0.43867656  0.21203109  0.76206060
   0.24051689  0.46642437  0.78614315
   0.95092830  0.04945363  0.52524822
   0.78162648  0.28020955  0.52336882
   0.92069374  0.98376791  0.25067064
   0.75166097  0.72793603  0.25146983
   0.41504599  0.81518213  0.98564484
   0.23248105  0.56643574  0.94703957
   0.41314625  0.71805290  0.25121169
   0.28276785  0.98420859  0.25258536
   0.89541157  0.57236425  0.96679591
   0.76150060  0.80082431  0.99656258
   0.89297620  0.99173787  0.78544328
   0.77504341  0.70932301  0.75551231
   0.43497316  0.80957568  0.51296515
   0.26501800  0.57641385  0.50185220
   0.41034411  0.72626119  0.75689192
   0.28907584  0.96362358  0.78363217
   0.92796117  0.58449409  0.51582931
   0.74285717  0.80719742  0.49208748
   0.82092798  0.42850666  0.04212190
   0.17895483  0.51702552  0.09527946
   0.39124183  0.43550652  0.02301500
   0.78622770  0.05428601  0.31237940
   0.63147579  0.27072934  0.30910961
   0.99409594  0.31724695  0.28866308
   0.33950539  0.19402013  0.06040938
   0.66985132  0.21866050  0.06379618
   0.98504709  0.23851681  0.09309296
   0.30246857  0.34139244  0.29442533
   0.12223552  0.04703927  0.32027669
   0.46802069  0.05383308  0.32299867
   0.84141429  0.49831649  0.57978778
   0.11746162  0.51095123  0.59676653
   0.46063171  0.44075827  0.59712118
   0.79710009  0.03847260  0.84106369
   0.62700513  0.27632169  0.84831378
   0.94635696  0.28250595  0.80933156
   0.30005676  0.22717529  0.55761878
   0.69509320  0.21708359  0.61019099
   0.00826904  0.23058915  0.56163248
   0.35999292  0.32776608  0.84505846
   0.12417234  0.01623478  0.83548483
   0.50833442  0.05925020  0.83090862
   0.80638323  0.95380188  0.04200617
   0.14870530  0.98672098  0.09782551
   0.46549656  0.95542229  0.06314447
   0.84666591  0.56722661  0.35390043
   0.66968743  0.77575749  0.33559328
   0.95406465  0.83779559  0.30840807
   0.27290913  0.65532171  0.05212379
   0.65543142  0.73136075  0.11334256
   0.95288651  0.73549775  0.03319777
   0.30904547  0.80913491  0.29026540
   0.10749743  0.53516434  0.30313302
   0.46012180  0.56348682  0.27745531
   0.84268196  0.97298923  0.57456533
   0.13477939  0.01255159  0.57407290
   0.43292110  0.99746560  0.57472104
   0.83021001  0.57913916  0.83027542
   0.67456012  0.78960361  0.83395777
   0.96620891  0.81337873  0.81960925
   0.32762313  0.70713669  0.58858906
   0.64094994  0.78235646  0.57621705
   0.95466994  0.70390840  0.57471196
   0.33661507  0.80282858  0.85326449
   0.08959934  0.51969959  0.82934660
   0.47022918  0.54695447  0.85065344
 
 position of ions in cartesian coordinates  (Angst):
   6.93259407  5.11898266  2.47808521
   5.37829580  2.36663327  2.20230754
  -2.69872403  3.08894612  9.72394284
   2.28534399  0.42623660  0.11720248
   2.39951828  2.34736858  2.39627119
   0.86508684  5.07280722  2.87507156
   2.39021879  0.52360034  9.76742090
   0.54106380  3.27656860  9.60325108
   3.77557962  4.75475592  7.44963355
   2.06214765  2.43671521  7.22560180
   0.46139073  3.54326613  5.08914162
  -0.40110624  0.45897041  4.52155132
  -0.80985730  2.30369924  7.45643941
  -2.79246578  5.06765997  7.69207693
   5.42826568  0.53730936  5.13933082
   3.87755617  3.04445224  5.12094169
   6.89991484 10.68855226  2.45270578
   5.33460989  7.90896127  2.46052551
  -2.45355719  8.85688251  9.64411626
  -3.89252216  6.15427475  9.26638009
   2.21169123  7.80158193  2.45799972
   0.99951162 10.69334021  2.47144050
   2.10050346  6.21868749  9.45968749
   0.67468223  8.70088606  9.75094171
   3.23433813 10.77514518  7.68522900
   2.33663420  7.70673244  7.39236717
   0.74420488  8.79596893  5.01914619
  -0.75366152  6.26268604  4.91041070
  -1.03841622  7.89076428  7.40586607
  -2.32824596 10.46968588  7.66750806
   5.27632953  6.35047714  5.04717078
   3.71915842  8.77012934  4.81486706
   7.30877262  4.65568737  0.41214491
   1.04428532  5.61743704  0.93226906
   3.46450246  4.73174023  0.22519200
   5.26530580  0.58981275  3.05649980
   3.85776032  2.94145059  3.02450629
   7.33519139  3.44686035  2.82444567
   2.74853537  2.10801174  0.59108013
   5.77610583  2.37572720  0.62421853
   8.49863365  2.59146427  0.91087509
   0.91457976  3.70919899  2.88082684
  -0.91384014  0.51107755  3.13377143
   2.26047679  0.58489170  3.16040484
   4.06968049  5.41416506  5.67297726
  -2.72081767  5.55144041  5.83910711
   0.44445572  4.78880004  5.84257721
   1.99474217  0.41800143  8.22945110
   0.37850171  3.00221098  8.30039015
   3.57474127  3.06940243  7.91896568
  -0.78581671  2.46823965  5.45606300
   2.52525254  2.35859421  5.97045976
  -3.50467246  2.50533094  5.49533535
  -2.06532304  3.56114978  8.26853823
  -4.18095639  0.17638946  8.17486432
  -0.60587859  0.64374824  8.13008805
   7.17525931 10.36297397  0.41101254
   0.74884183 10.72063711  0.95718108
   3.89402223 10.38057958  0.61784183
   5.55842342  6.16286749  3.46276544
   4.04160084  8.42853725  3.28363776
   6.83979879  9.10257578  3.01764202
   2.18666674  7.12001304  0.51000915
   5.32709675  7.94617055  1.10900883
   8.58367929  7.99111870  0.32482608
   1.00180990  8.79118000  2.84012370
  -0.94056700  5.81451373  2.96602789
   2.47795512  6.12223499  2.71478240
   4.11467997 10.57144285  5.62187780
  -2.41627514  0.13637193  5.61705958
   0.33150519 10.83737647  5.62340136
   2.36914051  6.29229630  8.12389246
   0.90897928  8.57897413  8.15992269
   3.69244802  8.83728873  8.01952851
  -0.72884121  7.68297826  5.75909404
   2.24211805  8.50023448  5.63803918
   5.14741849  7.64790317  5.62331251
  -2.33342776  8.72266227  8.34883075
  -4.46093504  5.64649057  8.11480435
  -1.08349224  5.94261246  8.32328273
 


--------------------------------------------------------------------------------------------------------


 k-point  1 :   0.0000 0.0000 0.0000  plane waves:   24843
 k-point  2 :   0.2500 0.0000 0.0000  plane waves:   24890
 k-point  3 :   0.5000 0.0000 0.0000  plane waves:   24924
 k-point  4 :   0.0000 0.3333 0.0000  plane waves:   24968
 k-point  5 :   0.2500 0.3333 0.0000  plane waves:   24927
 k-point  6 :   0.5000 0.3333 0.0000  plane waves:   24910
 k-point  7 :  -0.2500 0.3333-0.0000  plane waves:   24927
 k-point  8 :   0.0000 0.0000 0.3333  plane waves:   24872
 k-point  9 :   0.2500 0.0000 0.3333  plane waves:   24913
 k-point 10 :   0.5000 0.0000 0.3333  plane waves:   24924
 k-point 11 :  -0.2500 0.0000 0.3333  plane waves:   24928
 k-point 12 :   0.0000 0.3333 0.3333  plane waves:   24903
 k-point 13 :   0.2500 0.3333 0.3333  plane waves:   24901
 k-point 14 :   0.5000 0.3333 0.3333  plane waves:   24924
 k-point 15 :  -0.2500 0.3333 0.3333  plane waves:   24916
 k-point 16 :   0.0000-0.3333 0.3333  plane waves:   24903
 k-point 17 :   0.2500-0.3333 0.3333  plane waves:   24901
 k-point 18 :   0.5000-0.3333 0.3333  plane waves:   24924
 k-point 19 :  -0.2500-0.3333 0.3333  plane waves:   24916

 maximum and minimum number of plane-waves per node :     24968    24843

 maximum number of plane-waves:     24968
 maximum index in each direction: 
   IXMAX=   17   IYMAX=   20   IZMAX=   21
   IXMIN=  -17   IYMIN=  -20   IZMIN=  -21

 The following grids will avoid any aliasing or wrap around errors in the Hartre
 e energy
  - symmetry arguments have not been applied
  - exchange correlation energies might require even more grid points
  - we recommend to set PREC=Normal or Accurate and rely on VASP defaults
 NGX is ok and might be reduce to    70
 WARNING: aliasing errors must be expected set NGY to    84 to avoid them
 NGZ is ok and might be reduce to    90

 serial   3D FFT for wavefunctions
 parallel 3D FFT for charge:
    minimum data exchange during FFTs selected (reduces bandwidth)


 total amount of memory used by VASP MPI-rank0   567384. kBytes
=======================================================================

   base      :      30000. kBytes
   nonlr-proj:      52671. kBytes
   fftplans  :      10810. kBytes
   grid      :      61419. kBytes
   one-center:       2488. kBytes
   wavefun   :     409996. kBytes
 
     INWAV:  cpu time    0.0000: real time    0.0000
 Broyden mixing: mesh for mixing (old mesh)
   NGX = 33   NGY = 39   NGZ = 43
  (NGX  =140   NGY  =160   NGZ  =180)
  gives a total of  55341 points

 initial charge density was supplied:
 charge density of overlapping atoms calculated
 number of electron     608.0000000 magnetization      80.0000000
 keeping initial charge density in first step


--------------------------------------------------------------------------------------------------------


 Maximum index for non-local projection operator         6708
 Maximum index for augmentation-charges         1209 (set IRDMAX)


--------------------------------------------------------------------------------------------------------


 First call to EWALD:  gamma=   0.178
 Maximum number of real-space cells 3x 3x 3
 Maximum number of reciprocal cells 3x 3x 3

    FEWALD:  cpu time    0.0038: real time    0.0038


--------------------------------------- Iteration      1(   1)  ---------------------------------------


    POTLOK:  cpu time    0.3489: real time    0.4087
    SETDIJ:  cpu time    0.0290: real time    0.0291
     EDDAV:  cpu time  168.3946: real time  168.8818
    --------------------------------------------
      LOOP:  cpu time  168.7752: real time  169.3224

 eigenvalue-minimisations  : 31616
 total energy-change (2. order) : 0.7615628E+04  (-0.2575991E+05)
 number of electron     608.0000000 magnetization      80.0000000
 augmentation part      608.0000000 magnetization      80.0000000

 Free energy of the ion-electron system (eV)
  ---------------------------------------------------
  alpha Z        PSCENC =      1699.99176552
  Ewald energy   TEWEN  =    -35257.53195377
  -Hartree energ DENC   =    -20602.52714099
  -exchange      EXHF   =         0.00000000
  -V(xc)+E(xc)   XCENC  =      2389.06394198
  PAW double counting   =     47387.14975297   -49597.44882166
  entropy T*S    EENTRO =        -0.01412359
  eigenvalues    EBANDS =      6459.73123335
  atomic energy  EATOM  =     55137.21312455
  Solvation  Ediel_sol  =         0.00000000
  ---------------------------------------------------
  free energy    TOTEN  =      7615.62777835 eV

  energy without entropy =     7615.64190194  energy(sigma->0) =     7615.63484015


--------------------------------------------------------------------------------------------------------




--------------------------------------- Iteration      1(   2)  ---------------------------------------


     EDDAV:  cpu time  166.2915: real time  166.6854
    --------------------------------------------
      LOOP:  cpu time  166.2915: real time  166.6854

 eigenvalue-minimisations  : 31616
 total energy-change (2. order) :-0.6400272E+04  (-0.5784766E+04)
 number of electron     608.0000000 magnetization      80.0000000
 augmentation part      608.0000000 magnetization      80.0000000

 Free energy of the ion-electron system (eV)
  ---------------------------------------------------
  alpha Z        PSCENC =      1699.99176552
  Ewald energy   TEWEN  =    -35257.53195377
  -Hartree energ DENC   =    -20602.52714099
  -exchange      EXHF   =         0.00000000
  -V(xc)+E(xc)   XCENC  =      2389.06394198
  PAW double counting   =     47387.14975297   -49597.44882166
  entropy T*S    EENTRO =        -0.04145317
  eigenvalues    EBANDS =        59.48702237
  atomic energy  EATOM  =     55137.21312455
  Solvation  Ediel_sol  =         0.00000000
  ---------------------------------------------------
  free energy    TOTEN  =      1215.35623780 eV

  energy without entropy =     1215.39769097  energy(sigma->0) =     1215.37696438


--------------------------------------------------------------------------------------------------------




--------------------------------------- Iteration      1(   3)  ---------------------------------------


     EDDAV:  cpu time  164.4843: real time  164.8737
    --------------------------------------------
      LOOP:  cpu time  164.4845: real time  164.8738

 eigenvalue-minimisations  : 32816
 total energy-change (2. order) :-0.1612226E+04  (-0.1440029E+04)
 number of electron     608.0000000 magnetization      80.0000000
 augmentation part      608.0000000 magnetization      80.0000000

 Free energy of the ion-electron system (eV)
  ---------------------------------------------------
  alpha Z        PSCENC =      1699.99176552
  Ewald energy   TEWEN  =    -35257.53195377
  -Hartree energ DENC   =    -20602.52714099
  -exchange      EXHF   =         0.00000000
  -V(xc)+E(xc)   XCENC  =      2389.06394198
  PAW double counting   =     47387.14975297   -49597.44882166
  entropy T*S    EENTRO =        -0.10777455
  eigenvalues    EBANDS =     -1552.67285508
  atomic energy  EATOM  =     55137.21312455
  Solvation  Ediel_sol  =         0.00000000
  ---------------------------------------------------
  free energy    TOTEN  =      -396.86996103 eV

  energy without entropy =     -396.76218648  energy(sigma->0) =     -396.81607376


--------------------------------------------------------------------------------------------------------




--------------------------------------- Iteration      1(   4)  ---------------------------------------


     EDDAV:  cpu time  177.9617: real time  178.3830
    --------------------------------------------
      LOOP:  cpu time  177.9617: real time  178.3830

 eigenvalue-minimisations  : 35440
 total energy-change (2. order) :-0.1960957E+03  (-0.1879100E+03)
 number of electron     608.0000000 magnetization      80.0000000
 augmentation part      608.0000000 magnetization      80.0000000

 Free energy of the ion-electron system (eV)
  ---------------------------------------------------
  alpha Z        PSCENC =      1699.99176552
  Ewald energy   TEWEN  =    -35257.53195377
  -Hartree energ DENC   =    -20602.52714099
  -exchange      EXHF   =         0.00000000
  -V(xc)+E(xc)   XCENC  =      2389.06394198
  PAW double counting   =     47387.14975297   -49597.44882166
  entropy T*S    EENTRO =        -0.11189579
  eigenvalues    EBANDS =     -1748.76440556
  atomic energy  EATOM  =     55137.21312455
  Solvation  Ediel_sol  =         0.00000000
  ---------------------------------------------------
  free energy    TOTEN  =      -592.96563275 eV

  energy without entropy =     -592.85373696  energy(sigma->0) =     -592.90968486


--------------------------------------------------------------------------------------------------------




--------------------------------------- Iteration      1(   5)  ---------------------------------------


     EDDAV:  cpu time  175.2194: real time  175.6342
    CHARGE:  cpu time    7.4275: real time    7.4452
    MIXING:  cpu time    0.0059: real time    0.0059
    --------------------------------------------
      LOOP:  cpu time  182.6500: real time  183.0825

 eigenvalue-minimisations  : 35168
 total energy-change (2. order) :-0.5707487E+01  (-0.5667966E+01)
 number of electron     607.9999993 magnetization      80.4719347
 augmentation part      199.1936199 magnetization      58.6697502

 Broyden mixing:
  rms(total) = 0.19742E+02    rms(broyden)= 0.19741E+02
  rms(prec ) = 0.21625E+02
  weight for this iteration     100.00

 Free energy of the ion-electron system (eV)
  ---------------------------------------------------
  alpha Z        PSCENC =      1699.99176552
  Ewald energy   TEWEN  =    -35257.53195377
  -Hartree energ DENC   =    -20602.52714099
  -exchange      EXHF   =         0.00000000
  -V(xc)+E(xc)   XCENC  =      2389.06394198
  PAW double counting   =     47387.14975297   -49597.44882166
  entropy T*S    EENTRO =        -0.11218336
  eigenvalues    EBANDS =     -1754.47160466
  atomic energy  EATOM  =     55137.21312455
  Solvation  Ediel_sol  =         0.00000000
  ---------------------------------------------------
  free energy    TOTEN  =      -598.67311943 eV

  energy without entropy =     -598.56093606  energy(sigma->0) =     -598.61702775


--------------------------------------------------------------------------------------------------------




--------------------------------------- Iteration      1(   6)  ---------------------------------------


    POTLOK:  cpu time    0.3621: real time    0.3629
    SETDIJ:  cpu time    0.0425: real time    0.0426
     EDDAV:  cpu time  223.1216: real time  223.6498
    CHARGE:  cpu time    8.0718: real time    8.0909
    MIXING:  cpu time    0.0084: real time    0.0084
    --------------------------------------------
      LOOP:  cpu time  231.6064: real time  232.1547

 eigenvalue-minimisations  : 46448
 total energy-change (2. order) :-0.1177713E+03  (-0.1276570E+03)
 number of electron     607.9999980 magnetization      71.1829808
 augmentation part      258.6216472 magnetization      65.8911192

 Broyden mixing:
  rms(total) = 0.26774E+02    rms(broyden)= 0.26773E+02
  rms(prec ) = 0.29630E+02
  weight for this iteration     100.00

 eigenvalues of (default mixing * dielectric matrix)
  average eigenvalue GAMMA=   0.2768
  0.2768

 Free energy of the ion-electron system (eV)
  ---------------------------------------------------
  alpha Z        PSCENC =      1699.99176552
  Ewald energy   TEWEN  =    -35257.53195377
  -Hartree energ DENC   =    -19743.55824031
  -exchange      EXHF   =         0.00000000
  -V(xc)+E(xc)   XCENC  =      2393.50493977
  PAW double counting   =     54291.43200466   -56225.92620696
  entropy T*S    EENTRO =        -0.05308931
  eigenvalues    EBANDS =     -3011.51675259
  atomic energy  EATOM  =     55137.21312455
  Solvation  Ediel_sol  =         0.00000000
  ---------------------------------------------------
  free energy    TOTEN  =      -716.44440845 eV

  energy without entropy =     -716.39131913  energy(sigma->0) =     -716.41786379


--------------------------------------------------------------------------------------------------------




--------------------------------------- Iteration      1(   7)  ---------------------------------------


    POTLOK:  cpu time    0.3677: real time    0.3686
    SETDIJ:  cpu time    0.0434: real time    0.0435
     EDDAV:  cpu time  181.4650: real time  181.8952
    CHARGE:  cpu time    6.8277: real time    6.8439
    MIXING:  cpu time    0.0066: real time    0.0066
    --------------------------------------------
      LOOP:  cpu time  188.7104: real time  189.1578

 eigenvalue-minimisations  : 40944
 total energy-change (2. order) : 0.2589481E+03  (-0.5443866E+02)
 number of electron     607.9999999 magnetization      59.6672030
 augmentation part      233.0165060 magnetization      48.3344561

 Broyden mixing:
  rms(total) = 0.10033E+02    rms(broyden)= 0.10030E+02
  rms(prec ) = 0.11980E+02
  weight for this iteration     100.00

 eigenvalues of (default mixing * dielectric matrix)
  average eigenvalue GAMMA=   0.5488
  0.5488  0.5488

 Free energy of the ion-electron system (eV)
  ---------------------------------------------------
  alpha Z        PSCENC =      1699.99176552
  Ewald energy   TEWEN  =    -35257.53195377
  -Hartree energ DENC   =    -20170.92030586
  -exchange      EXHF   =         0.00000000
  -V(xc)+E(xc)   XCENC  =      2380.14183992
  PAW double counting   =     57147.98820082   -59326.07119054
  entropy T*S    EENTRO =        -0.07112789
  eigenvalues    EBANDS =     -2068.23661321
  atomic energy  EATOM  =     55137.21312455
  Solvation  Ediel_sol  =         0.00000000
  ---------------------------------------------------
  free energy    TOTEN  =      -457.49626046 eV

  energy without entropy =     -457.42513257  energy(sigma->0) =     -457.46069651


--------------------------------------------------------------------------------------------------------




--------------------------------------- Iteration      1(   8)  ---------------------------------------


    POTLOK:  cpu time    0.2855: real time    0.2862
    SETDIJ:  cpu time    0.0295: real time    0.0296
     EDDAV:  cpu time  190.0471: real time  190.4971
    CHARGE:  cpu time    6.7604: real time    6.7764
    MIXING:  cpu time    0.0067: real time    0.0067
    --------------------------------------------
      LOOP:  cpu time  197.1292: real time  197.5959

 eigenvalue-minimisations  : 43792
 total energy-change (2. order) :-0.1675916E+03  (-0.3013811E+02)
 number of electron     607.9999969 magnetization      51.2663289
 augmentation part      217.0417711 magnetization      45.7242970

 Broyden mixing:
  rms(total) = 0.22549E+02    rms(broyden)= 0.22548E+02
  rms(prec ) = 0.28031E+02
  weight for this iteration     100.00

 eigenvalues of (default mixing * dielectric matrix)
  average eigenvalue GAMMA=   0.4936
  0.8010  0.5237  0.1559

 Free energy of the ion-electron system (eV)
  ---------------------------------------------------
  alpha Z        PSCENC =      1699.99176552
  Ewald energy   TEWEN  =    -35257.53195377
  -Hartree energ DENC   =    -20178.56192231
  -exchange      EXHF   =         0.00000000
  -V(xc)+E(xc)   XCENC  =      2372.64551030
  PAW double counting   =     59846.82734318   -62152.59446982
  entropy T*S    EENTRO =        -0.06460402
  eigenvalues    EBANDS =     -2093.01262047
  atomic energy  EATOM  =     55137.21312455
  Solvation  Ediel_sol  =         0.00000000
  ---------------------------------------------------
  free energy    TOTEN  =      -625.08782684 eV

  energy without entropy =     -625.02322282  energy(sigma->0) =     -625.05552483


--------------------------------------------------------------------------------------------------------




--------------------------------------- Iteration      1(   9)  ---------------------------------------


    POTLOK:  cpu time    0.2855: real time    0.2862
    SETDIJ:  cpu time    0.0295: real time    0.0296
     EDDAV:  cpu time  188.0507: real time  188.4963
    CHARGE:  cpu time    6.6643: real time    6.6801
    MIXING:  cpu time    0.0072: real time    0.0072
    --------------------------------------------
      LOOP:  cpu time  195.0371: real time  195.4993

 eigenvalue-minimisations  : 44016
 total energy-change (2. order) : 0.4849433E+02  (-0.5174578E+02)
 number of electron     607.9999987 magnetization      44.7420400
 augmentation part      221.5530320 magnetization      37.4029999

 Broyden mixing:
  rms(total) = 0.18326E+02    rms(broyden)= 0.18325E+02
  rms(prec ) = 0.23769E+02
  weight for this iteration     100.00

 eigenvalues of (default mixing * dielectric matrix)
  average eigenvalue GAMMA=   0.4638
  1.0469  0.4829  0.1627  0.1627

 Free energy of the ion-electron system (eV)
  ---------------------------------------------------
  alpha Z        PSCENC =      1699.99176552
  Ewald energy   TEWEN  =    -35257.53195377
  -Hartree energ DENC   =    -20141.29832207
  -exchange      EXHF   =         0.00000000
  -V(xc)+E(xc)   XCENC  =      2371.29814699
  PAW double counting   =     61772.81491639   -64121.77197070
  entropy T*S    EENTRO =        -0.05893814
  eigenvalues    EBANDS =     -2037.25026887
  atomic energy  EATOM  =     55137.21312455
  Solvation  Ediel_sol  =         0.00000000
  ---------------------------------------------------
  free energy    TOTEN  =      -576.59350011 eV

  energy without entropy =     -576.53456197  energy(sigma->0) =     -576.56403104


--------------------------------------------------------------------------------------------------------




--------------------------------------- Iteration      1(  10)  ---------------------------------------


    POTLOK:  cpu time    0.2817: real time    0.2824
    SETDIJ:  cpu time    0.0297: real time    0.0298
     EDDAV:  cpu time  183.2575: real time  183.6915
    CHARGE:  cpu time    6.9463: real time    6.9628
    MIXING:  cpu time    0.0073: real time    0.0073
    --------------------------------------------
      LOOP:  cpu time  190.5226: real time  190.9738

 eigenvalue-minimisations  : 42560
 total energy-change (2. order) : 0.8388823E+02  (-0.2502500E+02)
 number of electron     607.9999987 magnetization      37.5239052
 augmentation part      224.3312444 magnetization      27.1455160

 Broyden mixing:
  rms(total) = 0.11670E+02    rms(broyden)= 0.11670E+02
  rms(prec ) = 0.15974E+02
  weight for this iteration     100.00

 eigenvalues of (default mixing * dielectric matrix)
  average eigenvalue GAMMA=   0.4940
  1.3738  0.5019  0.2350  0.2350  0.1245

 Free energy of the ion-electron system (eV)
  ---------------------------------------------------
  alpha Z        PSCENC =      1699.99176552
  Ewald energy   TEWEN  =    -35257.53195377
  -Hartree energ DENC   =    -20152.88454843
  -exchange      EXHF   =         0.00000000
  -V(xc)+E(xc)   XCENC  =      2372.39464983
  PAW double counting   =     63391.58962732   -65775.99667030
  entropy T*S    EENTRO =        -0.08628498
  eigenvalues    EBANDS =     -1907.39498094
  atomic energy  EATOM  =     55137.21312455
  Solvation  Ediel_sol  =         0.00000000
  ---------------------------------------------------
  free energy    TOTEN  =      -492.70527121 eV

  energy without entropy =     -492.61898623  energy(sigma->0) =     -492.66212872


--------------------------------------------------------------------------------------------------------




--------------------------------------- Iteration      1(  11)  ---------------------------------------


    POTLOK:  cpu time    0.2866: real time    0.2872
    SETDIJ:  cpu time    0.0296: real time    0.0296
     EDDAV:  cpu time  170.0779: real time  170.4807
    CHARGE:  cpu time    6.8283: real time    6.8445
    MIXING:  cpu time    0.0077: real time    0.0077
    --------------------------------------------
      LOOP:  cpu time  177.2300: real time  177.6497

 eigenvalue-minimisations  : 38640
 total energy-change (2. order) : 0.1812527E+02  (-0.2447915E+02)
 number of electron     607.9999996 magnetization      32.0847709
 augmentation part      220.8173527 magnetization      23.9488788

 Broyden mixing:
  rms(total) = 0.12164E+02    rms(broyden)= 0.12163E+02
  rms(prec ) = 0.16577E+02
  weight for this iteration     100.00

 eigenvalues of (default mixing * dielectric matrix)
  average eigenvalue GAMMA=   0.4849
  1.6133  0.4595  0.2976  0.2976  0.1208  0.1208

 Free energy of the ion-electron system (eV)
  ---------------------------------------------------
  alpha Z        PSCENC =      1699.99176552
  Ewald energy   TEWEN  =    -35257.53195377
  -Hartree energ DENC   =    -20136.31123700
  -exchange      EXHF   =         0.00000000
  -V(xc)+E(xc)   XCENC  =      2372.12735137
  PAW double counting   =     65090.27695481   -67494.15732852
  entropy T*S    EENTRO =        -0.08276744
  eigenvalues    EBANDS =     -1886.10591091
  atomic energy  EATOM  =     55137.21312455
  Solvation  Ediel_sol  =         0.00000000
  ---------------------------------------------------
  free energy    TOTEN  =      -474.58000140 eV

  energy without entropy =     -474.49723396  energy(sigma->0) =     -474.53861768


--------------------------------------------------------------------------------------------------------




--------------------------------------- Iteration      1(  12)  ---------------------------------------


    POTLOK:  cpu time    0.2828: real time    0.2835
    SETDIJ:  cpu time    0.0302: real time    0.0303
     EDDAV:  cpu time  183.2017: real time  183.6357
    CHARGE:  cpu time    6.8019: real time    6.8180
    MIXING:  cpu time    0.0079: real time    0.0080
    --------------------------------------------
      LOOP:  cpu time  190.3245: real time  190.7754

 eigenvalue-minimisations  : 42544
 total energy-change (2. order) : 0.2490821E+02  (-0.1915932E+02)
 number of electron     607.9999986 magnetization      29.3600474
 augmentation part      218.9100635 magnetization      23.3531159

 Broyden mixing:
  rms(total) = 0.11646E+02    rms(broyden)= 0.11645E+02
  rms(prec ) = 0.15774E+02
  weight for this iteration     100.00

 eigenvalues of (default mixing * dielectric matrix)
  average eigenvalue GAMMA=   0.4660
  1.6826  0.4204  0.4003  0.4003  0.1219  0.1219  0.1144

 Free energy of the ion-electron system (eV)
  ---------------------------------------------------
  alpha Z        PSCENC =      1699.99176552
  Ewald energy   TEWEN  =    -35257.53195377
  -Hartree energ DENC   =    -20136.37556914
  -exchange      EXHF   =         0.00000000
  -V(xc)+E(xc)   XCENC  =      2371.35533729
  PAW double counting   =     66300.36753319   -68716.75759356
  entropy T*S    EENTRO =        -0.08131329
  eigenvalues    EBANDS =     -1847.85312007
  atomic energy  EATOM  =     55137.21312455
  Solvation  Ediel_sol  =         0.00000000
  ---------------------------------------------------
  free energy    TOTEN  =      -449.67178929 eV

  energy without entropy =     -449.59047600  energy(sigma->0) =     -449.63113265


--------------------------------------------------------------------------------------------------------




--------------------------------------- Iteration      1(  13)  ---------------------------------------


    POTLOK:  cpu time    0.2800: real time    0.2806
    SETDIJ:  cpu time    0.0301: real time    0.0301
     EDDAV:  cpu time  177.6112: real time  178.0319
    CHARGE:  cpu time    6.8866: real time    6.9030
    MIXING:  cpu time    0.0080: real time    0.0081
    --------------------------------------------
      LOOP:  cpu time  184.8159: real time  185.2537

 eigenvalue-minimisations  : 41008
 total energy-change (2. order) : 0.1131234E+02  (-0.8178904E+01)
 number of electron     607.9999982 magnetization      27.7142325
 augmentation part      220.3972269 magnetization      21.8288043

 Broyden mixing:
  rms(total) = 0.99795E+01    rms(broyden)= 0.99790E+01
  rms(prec ) = 0.13620E+02
  weight for this iteration     100.00

 eigenvalues of (default mixing * dielectric matrix)
  average eigenvalue GAMMA=   0.4416
  1.6620  0.4832  0.4832  0.4167  0.1443  0.1443  0.0996  0.0996

 Free energy of the ion-electron system (eV)
  ---------------------------------------------------
  alpha Z        PSCENC =      1699.99176552
  Ewald energy   TEWEN  =    -35257.53195377
  -Hartree energ DENC   =    -20129.97543290
  -exchange      EXHF   =         0.00000000
  -V(xc)+E(xc)   XCENC  =      2370.26365387
  PAW double counting   =     66716.74946787   -69129.11883153
  entropy T*S    EENTRO =        -0.09607734
  eigenvalues    EBANDS =     -1845.85516327
  atomic energy  EATOM  =     55137.21312455
  Solvation  Ediel_sol  =         0.00000000
  ---------------------------------------------------
  free energy    TOTEN  =      -438.35944701 eV

  energy without entropy =     -438.26336967  energy(sigma->0) =     -438.31140834


--------------------------------------------------------------------------------------------------------




--------------------------------------- Iteration      1(  14)  ---------------------------------------


    POTLOK:  cpu time    0.2804: real time    0.2810
    SETDIJ:  cpu time    0.0298: real time    0.0298
     EDDAV:  cpu time  178.7876: real time  179.2110
    CHARGE:  cpu time    6.8795: real time    6.8958
    MIXING:  cpu time    0.0083: real time    0.0083
    --------------------------------------------
      LOOP:  cpu time  185.9855: real time  186.4260

 eigenvalue-minimisations  : 41216
 total energy-change (2. order) : 0.1653022E+02  (-0.4891329E+01)
 number of electron     607.9999991 magnetization      26.0590312
 augmentation part      223.0926919 magnetization      18.6375842

 Broyden mixing:
  rms(total) = 0.77451E+01    rms(broyden)= 0.77444E+01
  rms(prec ) = 0.10649E+02
  weight for this iteration     100.00

 eigenvalues of (default mixing * dielectric matrix)
  average eigenvalue GAMMA=   0.4205
  1.6331  0.5493  0.5493  0.4265  0.1573  0.1573  0.1070  0.1025  0.1025

 Free energy of the ion-electron system (eV)
  ---------------------------------------------------
  alpha Z        PSCENC =      1699.99176552
  Ewald energy   TEWEN  =    -35257.53195377
  -Hartree energ DENC   =    -20131.93541945
  -exchange      EXHF   =         0.00000000
  -V(xc)+E(xc)   XCENC  =      2369.08020238
  PAW double counting   =     66821.50834087   -69226.12337952
  entropy T*S    EENTRO =        -0.09735906
  eigenvalues    EBANDS =     -1833.93455143
  atomic energy  EATOM  =     55137.21312455
  Solvation  Ediel_sol  =         0.00000000
  ---------------------------------------------------
  free energy    TOTEN  =      -421.82922991 eV

  energy without entropy =     -421.73187085  energy(sigma->0) =     -421.78055038


--------------------------------------------------------------------------------------------------------




--------------------------------------- Iteration      1(  15)  ---------------------------------------


    POTLOK:  cpu time    0.2827: real time    0.2834
    SETDIJ:  cpu time    0.0295: real time    0.0296
     EDDAV:  cpu time  189.3042: real time  189.7635
    CHARGE:  cpu time    6.7570: real time    6.7731
    MIXING:  cpu time    0.0086: real time    0.0086
    --------------------------------------------
      LOOP:  cpu time  196.3821: real time  196.8582

 eigenvalue-minimisations  : 44288
 total energy-change (2. order) : 0.1194030E+01  (-0.5532322E+01)
 number of electron     607.9999988 magnetization      23.6860583
 augmentation part      223.3815901 magnetization      16.9438484

 Broyden mixing:
  rms(total) = 0.64266E+01    rms(broyden)= 0.64260E+01
  rms(prec ) = 0.86743E+01
  weight for this iteration     100.00

 eigenvalues of (default mixing * dielectric matrix)
  average eigenvalue GAMMA=   0.4048
  1.6853  0.5888  0.5888  0.3939  0.2202  0.1538  0.1171  0.1171  0.0916  0.0916

 Free energy of the ion-electron system (eV)
  ---------------------------------------------------
  alpha Z        PSCENC =      1699.99176552
  Ewald energy   TEWEN  =    -35257.53195377
  -Hartree energ DENC   =    -20133.48683574
  -exchange      EXHF   =         0.00000000
  -V(xc)+E(xc)   XCENC  =      2367.76352212
  PAW double counting   =     66916.28150604   -69313.08989499
  entropy T*S    EENTRO =        -0.09893989
  eigenvalues    EBANDS =     -1837.67749417
  atomic energy  EATOM  =     55137.21312455
  Solvation  Ediel_sol  =         0.00000000
  ---------------------------------------------------
  free energy    TOTEN  =      -420.63520034 eV

  energy without entropy =     -420.53626045  energy(sigma->0) =     -420.58573039


--------------------------------------------------------------------------------------------------------




--------------------------------------- Iteration      1(  16)  ---------------------------------------


    POTLOK:  cpu time    0.2770: real time    0.2777
    SETDIJ:  cpu time    0.0293: real time    0.0294
     EDDAV:  cpu time  175.5503: real time  175.9660
    CHARGE:  cpu time    6.7992: real time    6.8153
    MIXING:  cpu time    0.0130: real time    0.0974
    --------------------------------------------
      LOOP:  cpu time  182.6688: real time  183.1857

 eigenvalue-minimisations  : 40592
 total energy-change (2. order) : 0.2187399E+01  (-0.3984985E+01)
 number of electron     607.9999995 magnetization      22.6104384
 augmentation part      223.6930789 magnetization      16.9255188

 Broyden mixing:
  rms(total) = 0.47068E+01    rms(broyden)= 0.47063E+01
  rms(prec ) = 0.62369E+01
  weight for this iteration     100.00

 eigenvalues of (default mixing * dielectric matrix)
  average eigenvalue GAMMA=   0.3856
  1.6806  0.6030  0.6030  0.3221  0.3221  0.1655  0.1308  0.1308  0.0947  0.0947
  0.0943

 Free energy of the ion-electron system (eV)
  ---------------------------------------------------
  alpha Z        PSCENC =      1699.99176552
  Ewald energy   TEWEN  =    -35257.53195377
  -Hartree energ DENC   =    -20146.53786316
  -exchange      EXHF   =         0.00000000
  -V(xc)+E(xc)   XCENC  =      2366.77084232
  PAW double counting   =     67221.81378757   -69617.81030141
  entropy T*S    EENTRO =        -0.08846577
  eigenvalues    EBANDS =     -1822.26873744
  atomic energy  EATOM  =     55137.21312455
  Solvation  Ediel_sol  =         0.00000000
  ---------------------------------------------------
  free energy    TOTEN  =      -418.44780159 eV

  energy without entropy =     -418.35933582  energy(sigma->0) =     -418.40356871


--------------------------------------------------------------------------------------------------------




--------------------------------------- Iteration      1(  17)  ---------------------------------------


    POTLOK:  cpu time    0.2878: real time    0.2885
    SETDIJ:  cpu time    0.0297: real time    0.0298
     EDDAV:  cpu time  188.6939: real time  189.1408
    CHARGE:  cpu time    6.9499: real time    6.9664
    MIXING:  cpu time    0.0093: real time    0.0093
    --------------------------------------------
      LOOP:  cpu time  195.9707: real time  196.4348

 eigenvalue-minimisations  : 42368
 total energy-change (2. order) : 0.5773219E+01  (-0.1271045E+01)
 number of electron     607.9999991 magnetization      21.2545113
 augmentation part      223.8659384 magnetization      15.0854878

 Broyden mixing:
  rms(total) = 0.28089E+01    rms(broyden)= 0.28085E+01
  rms(prec ) = 0.35966E+01
  weight for this iteration     100.00

 eigenvalues of (default mixing * dielectric matrix)
  average eigenvalue GAMMA=   0.3825
  1.6779  0.6397  0.6397  0.3467  0.3467  0.2400  0.1510  0.1309  0.1309  0.0958
  0.0958  0.0950

 Free energy of the ion-electron system (eV)
  ---------------------------------------------------
  alpha Z        PSCENC =      1699.99176552
  Ewald energy   TEWEN  =    -35257.53195377
  -Hartree energ DENC   =    -20145.90974787
  -exchange      EXHF   =         0.00000000
  -V(xc)+E(xc)   XCENC  =      2366.27602062
  PAW double counting   =     67319.82735392   -69714.45041891
  entropy T*S    EENTRO =        -0.09842691
  eigenvalues    EBANDS =     -1817.99229977
  atomic energy  EATOM  =     55137.21312455
  Solvation  Ediel_sol  =         0.00000000
  ---------------------------------------------------
  free energy    TOTEN  =      -412.67458262 eV

  energy without entropy =     -412.57615571  energy(sigma->0) =     -412.62536916


--------------------------------------------------------------------------------------------------------




--------------------------------------- Iteration      1(  18)  ---------------------------------------


    POTLOK:  cpu time    0.2870: real time    0.2877
    SETDIJ:  cpu time    0.0295: real time    0.0296
     EDDAV:  cpu time  175.4728: real time  175.8883
    CHARGE:  cpu time    6.8999: real time    6.9163
    MIXING:  cpu time    0.0097: real time    0.0097
    --------------------------------------------
      LOOP:  cpu time  182.6990: real time  183.1316

 eigenvalue-minimisations  : 39984
 total energy-change (2. order) :-0.2990766E+01  (-0.9146980E+00)
 number of electron     607.9999994 magnetization      18.8943540
 augmentation part      223.5391430 magnetization      13.5133915

 Broyden mixing:
  rms(total) = 0.38894E+01    rms(broyden)= 0.38891E+01
  rms(prec ) = 0.52594E+01
  weight for this iteration     100.00

 eigenvalues of (default mixing * dielectric matrix)
  average eigenvalue GAMMA=   0.3845
  1.7350  0.6890  0.6890  0.4183  0.4183  0.2704  0.1412  0.1412  0.1082  0.1082
  0.1121  0.0839  0.0839

 Free energy of the ion-electron system (eV)
  ---------------------------------------------------
  alpha Z        PSCENC =      1699.99176552
  Ewald energy   TEWEN  =    -35257.53195377
  -Hartree energ DENC   =    -20140.80805894
  -exchange      EXHF   =         0.00000000
  -V(xc)+E(xc)   XCENC  =      2365.41604192
  PAW double counting   =     67443.74954268   -69836.03248630
  entropy T*S    EENTRO =        -0.09985599
  eigenvalues    EBANDS =     -1827.56346847
  atomic energy  EATOM  =     55137.21312455
  Solvation  Ediel_sol  =         0.00000000
  ---------------------------------------------------
  free energy    TOTEN  =      -415.66534881 eV

  energy without entropy =     -415.56549281  energy(sigma->0) =     -415.61542081


--------------------------------------------------------------------------------------------------------




--------------------------------------- Iteration      1(  19)  ---------------------------------------


    POTLOK:  cpu time    0.2840: real time    0.2847
    SETDIJ:  cpu time    0.0296: real time    0.0296
     EDDAV:  cpu time  176.5426: real time  176.9607
    CHARGE:  cpu time    6.7542: real time    6.7702
    MIXING:  cpu time    0.0104: real time    0.0104
    --------------------------------------------
      LOOP:  cpu time  183.6208: real time  184.0557

 eigenvalue-minimisations  : 40912
 total energy-change (2. order) : 0.1578385E+00  (-0.1213175E+01)
 number of electron     607.9999992 magnetization      17.2186438
 augmentation part      223.7408795 magnetization      12.0932210

 Broyden mixing:
  rms(total) = 0.27529E+01    rms(broyden)= 0.27525E+01
  rms(prec ) = 0.35520E+01
  weight for this iteration     100.00

 eigenvalues of (default mixing * dielectric matrix)
  average eigenvalue GAMMA=   0.3897
  1.7964  0.7182  0.7182  0.4936  0.4936  0.2983  0.1658  0.1658  0.1206  0.1206
  0.1087  0.0887  0.0887  0.0788

 Free energy of the ion-electron system (eV)
  ---------------------------------------------------
  alpha Z        PSCENC =      1699.99176552
  Ewald energy   TEWEN  =    -35257.53195377
  -Hartree energ DENC   =    -20140.60448582
  -exchange      EXHF   =         0.00000000
  -V(xc)+E(xc)   XCENC  =      2364.43071936
  PAW double counting   =     67701.15626165   -70092.38063513
  entropy T*S    EENTRO =        -0.09468101
  eigenvalues    EBANDS =     -1827.68762561
  atomic energy  EATOM  =     55137.21312455
  Solvation  Ediel_sol  =         0.00000000
  ---------------------------------------------------
  free energy    TOTEN  =      -415.50751027 eV

  energy without entropy =     -415.41282926  energy(sigma->0) =     -415.46016976


--------------------------------------------------------------------------------------------------------




--------------------------------------- Iteration      1(  20)  ---------------------------------------


    POTLOK:  cpu time    0.2782: real time    0.2789
    SETDIJ:  cpu time    0.0292: real time    0.0293
     EDDAV:  cpu time  177.1351: real time  177.5545
    CHARGE:  cpu time    6.8062: real time    6.8223
    MIXING:  cpu time    0.0102: real time    0.0103
    --------------------------------------------
      LOOP:  cpu time  184.2590: real time  184.6953

 eigenvalue-minimisations  : 40928
 total energy-change (2. order) :-0.3494328E+00  (-0.6499083E+00)
 number of electron     607.9999991 magnetization      15.0351592
 augmentation part      223.8177721 magnetization       9.8085458

 Broyden mixing:
  rms(total) = 0.21512E+01    rms(broyden)= 0.21508E+01
  rms(prec ) = 0.27216E+01
  weight for this iteration     100.00

 eigenvalues of (default mixing * dielectric matrix)
  average eigenvalue GAMMA=   0.4065
  1.8264  0.8185  0.8185  0.5859  0.5859  0.3425  0.2400  0.1253  0.1253  0.1377
  0.1377  0.0925  0.0925  0.0842  0.0842

 Free energy of the ion-electron system (eV)
  ---------------------------------------------------
  alpha Z        PSCENC =      1699.99176552
  Ewald energy   TEWEN  =    -35257.53195377
  -Hartree energ DENC   =    -20140.82490024
  -exchange      EXHF   =         0.00000000
  -V(xc)+E(xc)   XCENC  =      2363.81811525
  PAW double counting   =     67865.03275593   -70255.03342072
  entropy T*S    EENTRO =        -0.09901061
  eigenvalues    EBANDS =     -1828.42341900
  atomic energy  EATOM  =     55137.21312455
  Solvation  Ediel_sol  =         0.00000000
  ---------------------------------------------------
  free energy    TOTEN  =      -415.85694308 eV

  energy without entropy =     -415.75793248  energy(sigma->0) =     -415.80743778


--------------------------------------------------------------------------------------------------------




--------------------------------------- Iteration      1(  21)  ---------------------------------------


    POTLOK:  cpu time    0.2860: real time    0.2867
    SETDIJ:  cpu time    0.0295: real time    0.0296
     EDDAV:  cpu time  188.2180: real time  188.6639
    CHARGE:  cpu time    6.8447: real time    6.8609
    MIXING:  cpu time    0.0106: real time    0.0107
    --------------------------------------------
      LOOP:  cpu time  195.3888: real time  195.8516

 eigenvalue-minimisations  : 43872
 total energy-change (2. order) :-0.1174516E+01  (-0.5392417E+00)
 number of electron     607.9999992 magnetization      13.4264142
 augmentation part      223.6635133 magnetization       8.5929157

 Broyden mixing:
  rms(total) = 0.20790E+01    rms(broyden)= 0.20788E+01
  rms(prec ) = 0.28036E+01
  weight for this iteration     100.00

 eigenvalues of (default mixing * dielectric matrix)
  average eigenvalue GAMMA=   0.4089
  1.7547  0.9696  0.9696  0.5590  0.5590  0.3559  0.3559  0.1523  0.1311  0.1311
  0.1329  0.1113  0.1113  0.0852  0.0852  0.0777

 Free energy of the ion-electron system (eV)
  ---------------------------------------------------
  alpha Z        PSCENC =      1699.99176552
  Ewald energy   TEWEN  =    -35257.53195377
  -Hartree energ DENC   =    -20133.85277630
  -exchange      EXHF   =         0.00000000
  -V(xc)+E(xc)   XCENC  =      2362.88800811
  PAW double counting   =     68011.37382050   -70396.77606476
  entropy T*S    EENTRO =        -0.10419456
  eigenvalues    EBANDS =     -1840.23318794
  atomic energy  EATOM  =     55137.21312455
  Solvation  Ediel_sol  =         0.00000000
  ---------------------------------------------------
  free energy    TOTEN  =      -417.03145865 eV

  energy without entropy =     -416.92726409  energy(sigma->0) =     -416.97936137


--------------------------------------------------------------------------------------------------------




--------------------------------------- Iteration      1(  22)  ---------------------------------------


    POTLOK:  cpu time    0.2855: real time    0.2862
    SETDIJ:  cpu time    0.0294: real time    0.0295
     EDDAV:  cpu time  179.2064: real time  179.6307
    CHARGE:  cpu time    6.7580: real time    6.7740
    MIXING:  cpu time    0.0110: real time    0.0111
    --------------------------------------------
      LOOP:  cpu time  186.2903: real time  186.7314

 eigenvalue-minimisations  : 41376
 total energy-change (2. order) : 0.7507912E-02  (-0.5355397E+00)
 number of electron     607.9999990 magnetization      12.1731364
 augmentation part      223.6943977 magnetization       7.4816881

 Broyden mixing:
  rms(total) = 0.16248E+01    rms(broyden)= 0.16244E+01
  rms(prec ) = 0.21743E+01
  weight for this iteration     100.00

 eigenvalues of (default mixing * dielectric matrix)
  average eigenvalue GAMMA=   0.4220
  1.6196  1.6196  0.7626  0.5725  0.5725  0.4168  0.4168  0.2189  0.1433  0.1433
  0.1201  0.1201  0.1009  0.1009  0.0847  0.0847  0.0772

 Free energy of the ion-electron system (eV)
  ---------------------------------------------------
  alpha Z        PSCENC =      1699.99176552
  Ewald energy   TEWEN  =    -35257.53195377
  -Hartree energ DENC   =    -20127.90692083
  -exchange      EXHF   =         0.00000000
  -V(xc)+E(xc)   XCENC  =      2362.28604355
  PAW double counting   =     68088.44161354   -70469.39486168
  entropy T*S    EENTRO =        -0.10265665
  eigenvalues    EBANDS =     -1850.02010496
  atomic energy  EATOM  =     55137.21312455
  Solvation  Ediel_sol  =         0.00000000
  ---------------------------------------------------
  free energy    TOTEN  =      -417.02395074 eV

  energy without entropy =     -416.92129409  energy(sigma->0) =     -416.97262241


--------------------------------------------------------------------------------------------------------




--------------------------------------- Iteration      1(  23)  ---------------------------------------


    POTLOK:  cpu time    0.2789: real time    0.2796
    SETDIJ:  cpu time    0.0293: real time    0.0294
     EDDAV:  cpu time  181.7885: real time  182.2190
    CHARGE:  cpu time    6.5926: real time    6.6083
    MIXING:  cpu time    0.0116: real time    0.0116
    --------------------------------------------
      LOOP:  cpu time  188.7009: real time  189.1479

 eigenvalue-minimisations  : 42352
 total energy-change (2. order) :-0.2340609E+00  (-0.4052561E+00)
 number of electron     607.9999992 magnetization      11.1690097
 augmentation part      223.5881984 magnetization       6.6551488

 Broyden mixing:
  rms(total) = 0.16603E+01    rms(broyden)= 0.16600E+01
  rms(prec ) = 0.21708E+01
  weight for this iteration     100.00

 eigenvalues of (default mixing * dielectric matrix)
  average eigenvalue GAMMA=   0.4304
  1.7275  1.7275  0.8224  0.5947  0.5947  0.4559  0.4559  0.2671  0.1446  0.1446
  0.1221  0.1221  0.1274  0.0983  0.0983  0.0841  0.0841  0.0770

 Free energy of the ion-electron system (eV)
  ---------------------------------------------------
  alpha Z        PSCENC =      1699.99176552
  Ewald energy   TEWEN  =    -35257.53195377
  -Hartree energ DENC   =    -20125.56337968
  -exchange      EXHF   =         0.00000000
  -V(xc)+E(xc)   XCENC  =      2361.89760668
  PAW double counting   =     68126.61592302   -70503.55183236
  entropy T*S    EENTRO =        -0.10653736
  eigenvalues    EBANDS =     -1856.22272819
  atomic energy  EATOM  =     55137.21312455
  Solvation  Ediel_sol  =         0.00000000
  ---------------------------------------------------
  free energy    TOTEN  =      -417.25801159 eV

  energy without entropy =     -417.15147423  energy(sigma->0) =     -417.20474291


--------------------------------------------------------------------------------------------------------




--------------------------------------- Iteration      1(  24)  ---------------------------------------


    POTLOK:  cpu time    0.2765: real time    0.2771
    SETDIJ:  cpu time    0.0293: real time    0.0293
     EDDAV:  cpu time  193.2569: real time  193.7147
    CHARGE:  cpu time    7.1968: real time    7.2332
    MIXING:  cpu time    0.0129: real time    0.0335
    --------------------------------------------
      LOOP:  cpu time  200.7723: real time  201.2879

 eigenvalue-minimisations  : 43520
 total energy-change (2. order) : 0.4115038E+00  (-0.2628299E+00)
 number of electron     607.9999991 magnetization      10.5732439
 augmentation part      224.0283205 magnetization       5.8288717

 Broyden mixing:
  rms(total) = 0.10751E+01    rms(broyden)= 0.10749E+01
  rms(prec ) = 0.13842E+01
  weight for this iteration     100.00

 eigenvalues of (default mixing * dielectric matrix)
  average eigenvalue GAMMA=   0.4432
  1.8588  1.8588  0.9474  0.5789  0.5789  0.5035  0.5035  0.2852  0.2130  0.1379
  0.1379  0.1219  0.1219  0.1323  0.0978  0.0978  0.0841  0.0841  0.0768

 Free energy of the ion-electron system (eV)
  ---------------------------------------------------
  alpha Z        PSCENC =      1699.99176552
  Ewald energy   TEWEN  =    -35257.53195377
  -Hartree energ DENC   =    -20121.32742538
  -exchange      EXHF   =         0.00000000
  -V(xc)+E(xc)   XCENC  =      2361.66825559
  PAW double counting   =     68162.36883916   -70535.21584681
  entropy T*S    EENTRO =        -0.10429332
  eigenvalues    EBANDS =     -1863.90897333
  atomic energy  EATOM  =     55137.21312455
  Solvation  Ediel_sol  =         0.00000000
  ---------------------------------------------------
  free energy    TOTEN  =      -416.84650780 eV

  energy without entropy =     -416.74221447  energy(sigma->0) =     -416.79436114


--------------------------------------------------------------------------------------------------------




--------------------------------------- Iteration      1(  25)  ---------------------------------------


    POTLOK:  cpu time    0.2733: real time    0.3337
    SETDIJ:  cpu time    0.0401: real time    0.0402
     EDDAV:  cpu time  196.5204: real time  196.9859
    CHARGE:  cpu time    6.7842: real time    6.8167
    MIXING:  cpu time    0.0176: real time    0.0176
    --------------------------------------------
[...]
   -.318E+02 0.418E+02 0.172E+03   0.412E+02 -.412E+02 -.181E+03   -.759E+01 -.215E+01 0.562E+01   -.209E-01 0.168E-01 0.141E-01
   -.591E+02 -.681E+02 0.165E+03   0.616E+02 0.707E+02 -.177E+03   -.167E+01 -.319E+01 0.113E+02   -.233E-01 0.410E-02 -.518E-02
   -.333E+02 0.146E+03 -.402E+02   0.447E+02 -.157E+03 0.507E+02   -.136E+02 0.113E+02 -.118E+02   0.121E-01 -.184E-01 0.105E-01
   0.132E+03 -.918E+02 -.394E+02   -.142E+03 0.104E+03 0.376E+02   0.929E+01 -.114E+02 0.401E+01   0.169E-01 0.292E-01 0.388E-02
   0.162E+02 0.138E+03 0.333E+02   -.190E+02 -.154E+03 -.469E+02   0.259E+01 0.150E+02 0.716E+01   -.108E-01 0.153E-01 0.131E-01
   -.131E+03 -.108E+03 -.192E+03   0.143E+03 0.122E+03 0.206E+03   -.140E+02 -.140E+02 -.147E+02   -.281E-02 -.901E-02 0.865E-02
   0.418E+02 0.137E+03 0.181E+03   -.460E+02 -.144E+03 -.197E+03   0.563E+01 0.686E+01 0.102E+02   -.104E-01 0.120E-01 -.536E-02
   0.672E+02 -.730E+02 0.707E+02   -.752E+02 0.804E+02 -.786E+02   0.490E+01 -.699E+01 0.552E+01   0.211E-01 0.142E-01 0.230E-03
   -.123E+03 0.183E+03 -.162E+03   0.132E+03 -.197E+03 0.174E+03   -.104E+02 0.117E+02 -.114E+02   -.103E-01 0.568E-02 0.592E-02
   0.277E+02 -.241E+03 -.152E+03   -.379E+02 0.267E+03 0.174E+03   0.833E+01 -.147E+02 -.121E+02   0.111E-01 -.793E-02 -.337E-01
   -.274E+02 0.149E+03 0.232E+03   0.282E+02 -.154E+03 -.279E+03   -.334E+00 0.683E+01 0.211E+02   -.132E-01 0.299E-04 0.113E-01
   -.155E+03 -.123E+02 -.246E+03   0.177E+03 0.185E+02 0.256E+03   -.221E+02 -.799E+01 -.934E+01   0.124E-01 -.119E-01 -.368E-02
   0.205E+03 0.532E+02 -.185E+02   -.225E+03 -.510E+02 0.181E+02   0.172E+02 0.982E+00 0.251E+01   -.102E-01 0.460E-01 0.620E-03
   -.549E+02 -.183E+03 0.903E+01   0.660E+02 0.198E+03 -.118E+02   -.678E+01 -.129E+02 0.576E+01   -.310E-01 0.158E-01 -.240E-01
   -.182E+03 0.172E+03 -.139E+03   0.197E+03 -.185E+03 0.140E+03   -.163E+02 0.123E+02 -.504E-01   0.362E-01 0.692E-02 -.137E-01
   0.127E+03 0.201E+01 0.114E+02   -.143E+03 -.526E+01 -.505E+01   0.133E+02 0.784E+00 -.547E+01   0.208E-01 0.173E-01 -.122E-01
   -.164E+03 0.974E+02 -.279E+02   0.190E+03 -.105E+03 0.319E+02   -.194E+02 0.515E+01 -.476E+00   -.341E-01 0.293E-04 -.294E-01
   -.165E+03 0.660E+02 -.246E+03   0.188E+03 -.739E+02 0.284E+03   -.133E+02 0.981E+00 -.257E+02   -.384E-02 -.981E-02 -.236E-01
   0.751E+02 0.191E+03 0.261E+03   -.690E+02 -.206E+03 -.298E+03   -.225E+01 0.125E+02 0.161E+02   0.122E-01 -.156E-01 0.264E-01
   0.999E+02 -.654E+02 0.176E+03   -.102E+03 0.748E+02 -.194E+03   0.156E+00 -.104E+02 0.139E+02   -.936E-02 -.103E-02 -.203E-01
   -.186E+03 0.381E+02 -.365E+02   0.201E+03 -.394E+02 0.446E+02   -.156E+02 0.170E+01 -.920E+01   0.386E-02 0.888E-02 -.232E-02
   0.593E+02 -.949E+02 0.105E+03   -.647E+02 0.105E+03 -.110E+03   0.672E+01 -.801E+01 0.416E+01   -.894E-02 0.351E-01 0.342E-01
   0.115E+02 0.560E+02 -.396E+01   -.810E+01 -.577E+02 0.110E+02   -.220E+01 0.293E+00 -.479E+01   0.512E-02 0.190E-01 -.103E-02
   -.105E+03 -.283E+03 -.171E+03   0.109E+03 0.318E+03 0.195E+03   -.662E+01 -.205E+02 -.184E+02   -.121E-02 0.956E-02 0.296E-02
   0.820E+02 0.108E+03 0.299E+03   -.896E+02 -.121E+03 -.351E+03   0.105E+02 0.893E+01 0.178E+02   0.679E-02 -.224E-01 0.851E-02
   0.735E+02 -.818E+02 0.136E+03   -.836E+02 0.893E+02 -.159E+03   0.826E+01 -.891E+01 0.925E+01   -.119E-01 -.761E-02 0.613E-02
   -.171E+03 0.373E+01 -.732E+02   0.181E+03 -.802E+01 0.811E+02   -.121E+02 0.570E+01 -.952E+01   -.968E-02 0.197E-01 0.106E-01
 -----------------------------------------------------------------------------------------------
   0.115E+03 -.183E+02 0.406E+02   -.171E-12 0.693E-13 -.171E-12   -.115E+03 0.183E+02 -.407E+02   0.681E-04 -.214E-01 0.860E-01
 
 
 POSITION                                       TOTAL-FORCE (eV/Angst)
 -----------------------------------------------------------------------------------
      6.93259      5.11898      2.47809        -3.325298     -2.485925     -0.751286
      5.37830      2.36663      2.20231        -0.207996     -1.238974      3.990077
     -2.69872      3.08895      9.72394         5.251775      4.522521     -2.929654
      2.28534      0.42624      0.11720         1.314897     -0.342853      0.593152
      2.39952      2.34737      2.39627        -2.226852     -1.087453      0.635210
      0.86509      5.07281      2.87507        -0.219649     23.952493     -2.561768
      2.39022      0.52360      9.76742        -1.599452      1.675720      4.617758
      0.54106      3.27657      9.60325         5.950835      1.483721     23.987515
      3.77558      4.75476      7.44963        -6.690703     -6.530002     -5.384315
      2.06215      2.43672      7.22560        -9.139017      1.624862     25.183919
      0.46139      3.54327      5.08914         0.105968     -8.809662     -6.652954
     -0.40111      0.45897      4.52155        -5.141805      5.457094     -1.926950
     -0.80986      2.30370      7.45644        -3.980834     -2.431943     -2.744160
     -2.79247      5.06766      7.69208         3.855613      1.153542     -2.252559
      5.42827      0.53731      5.13933        -4.323812      5.014235     -3.491410
      3.87756      3.04445      5.12094         2.854366     -0.067877     -1.046864
      6.89991     10.68855      2.45271        -2.268217      0.627351     -1.426135
      5.33461      7.90896      2.46053         4.369987     -1.964486     23.432661
     -2.45356      8.85688      9.64412        -2.670805      2.930934     33.563671
     -3.89252      6.15427      9.26638        10.494220     -1.116901     11.163918
      2.21169      7.80158      2.45800         2.895851     -2.978753     -1.356602
      0.99951     10.69334      2.47144        -0.811706     -2.169176      7.080670
      2.10050      6.21869      9.45969        -4.055423     -1.934408     25.408519
      0.67468      8.70089      9.75094        -0.173659      0.178043      3.088773
      3.23434     10.77515      7.68523        13.358134     -6.650139     -6.053290
      2.33663      7.70673      7.39237         1.734748      5.301866     -2.656048
      0.74420      8.79597      5.01915        -3.578844      1.042278     -1.233528
     -0.75366      6.26269      4.91041        -0.150292     -3.113322     -1.514400
     -1.03842      7.89076      7.40587         0.447351     -1.262777      2.321301
     -2.32825     10.46969      7.66751         0.774805      1.939461     -0.867126
      5.27633      6.35048      5.04717         0.601935    -12.459613     -2.710312
      3.71916      8.77013      4.81487         1.022092      2.483774      4.568924
      7.30877      4.65569      0.41214         1.648855      7.754164      2.859804
      1.04429      5.61744      0.93227        -2.153861     -0.394076      0.557826
      3.46450      4.73174      0.22519        -0.246206      1.794483      0.951929
      5.26531      0.58981      3.05650         1.640123      1.103512      0.031139
      3.85776      2.94145      3.02451         1.780248      0.922167      1.959938
      7.33519      3.44686      2.82445        -1.628628     -0.037769     -0.562042
      2.74854      2.10801      0.59108        -6.074074     -5.786806      4.773938
      5.77611      2.37573      0.62422        -2.199820     -1.494697     -0.752638
      8.49863      2.59146      0.91088        -0.632072     -1.346424     -1.248657
      0.91458      3.70920      2.88083         1.956201    -24.284194      0.894504
     -0.91384      0.51108      3.13377        -2.735725      1.075696     -9.735943
      2.26048      0.58489      3.16040         1.939160      2.697268      0.669638
      4.06968      5.41417      5.67298        -2.819760     -2.464927      0.669655
     -2.72082      5.55144      5.83911         3.185738     -1.365518      1.730125
      0.44446      4.78880      5.84258        -0.543943     10.993458      5.188230
      1.99474      0.41800      8.22945       -12.342135      5.117799     -0.014826
      0.37850      3.00221      8.30039         0.540341     -4.277162    -25.212782
      3.57474      3.06940      7.91897        -0.551427      0.303419      0.590185
     -0.78582      2.46824      5.45606         0.014396     -1.234970      0.867122
      2.52525      2.35859      5.97046         8.617171     -1.797266    -25.812811
     -3.50467      2.50533      5.49534        -2.784012     -0.888460     -0.866954
     -2.06532      3.56115      8.26854         1.789177     -1.580679     -3.519335
     -4.18096      0.17639      8.17486         0.801335     -0.544192     -1.504083
     -0.60588      0.64375      8.13009        -2.185676     -0.290360     -1.359628
      7.17526     10.36297      0.41101         0.067795      1.196288      2.204350
      0.74884     10.72064      0.95718        -0.245102     -0.472493     -6.433877
      3.89402     10.38058      0.61784        -1.208384      0.610368      0.164325
      5.55842      6.16287      3.46277         1.440780      0.157932     -5.112379
      4.04160      8.42854      3.28364        -3.067317      0.483776     -2.396931
      6.83980      9.10258      3.01764        -1.121011     -2.158292     -0.059862
      2.18667      7.12001      0.51001        -1.894089     11.159384      9.647527
      5.32710      7.94617      1.10901         0.467843      1.236140    -26.043426
      8.58368      7.99112      0.32483        -0.497714     -1.842896      0.226688
      1.00181      8.79118      2.84012        -2.653897      3.265366      2.087720
     -0.94057      5.81451      2.96603         4.259878      2.298116      2.945072
      2.47796      6.12223      2.71478        -0.811764     -0.587228      1.414325
      4.11468     10.57144      5.62188        -2.670316     -2.439649      0.900183
     -2.41628      0.13637      5.61706         6.635960     -2.545055      3.550058
      0.33151     10.83738      5.62340         8.901362     -6.906410     12.526535
      2.36914      6.29230      8.12389         3.874527     -2.063010    -21.197334
      0.90898      8.57897      8.15992        -1.464411     -0.941041     -4.202534
      3.69245      8.83729      8.01953        -1.416251      0.415702     -1.090493
     -0.72884      7.68298      5.75909         1.289276      2.322085     -0.684392
      2.24212      8.50023      5.63804         1.211078     -1.348082      2.297005
      5.14742      7.64790      5.62331        -2.116319     15.140792      5.286454
     -2.33343      8.72266      8.34883         2.977033     -3.646444    -33.699940
     -4.46094      5.64649      8.11480        -1.816775     -1.491905    -14.003824
     -1.08349      5.94261      8.32328        -1.625801      1.438464     -1.556289
 -----------------------------------------------------------------------------------
    total drift:                                0.001581     -0.016917     -0.005832


--------------------------------------------------------------------------------------------------------



  FREE ENERGIE OF THE ION-ELECTRON SYSTEM (eV)
  ---------------------------------------------------
  free  energy   TOTEN  =      -416.7815630205 eV

  energy  without entropy=     -416.6903711578  energy(sigma->0) =     -416.73596709
 


--------------------------------------------------------------------------------------------------------


    POTLOK:  cpu time    0.2836: real time    0.2842


--------------------------------------------------------------------------------------------------------


     LOOP+:  cpu time14702.8350: real time14738.2297
    4ORBIT:  cpu time    0.0000: real time    0.0000

volume of typ            1:    20.8 %

volume of typ            2:     8.0 %
 
total charge     
 
# of ion       s       p       d       tot
------------------------------------------
    1        0.294   0.328   7.923   8.544
    2        0.279   0.314   7.895   8.489
    3        0.391   0.521   7.979   8.891
    4        0.274   0.336   7.905   8.515
    5        0.256   0.285   7.929   8.471
    6        0.383   0.491   8.012   8.887
    7        0.300   0.389   7.978   8.666
    8        0.488   0.740   8.066   9.295
    9        0.337   0.418   8.009   8.765
   10        0.398   0.491   8.125   9.014
   11        0.383   0.417   8.009   8.809
   12        0.437   0.659   8.035   9.131
   13        0.287   0.336   7.925   8.549
   14        0.263   0.312   7.926   8.501
   15        0.359   0.449   7.897   8.706
   16        0.230   0.216   7.907   8.352
   17        0.291   0.344   7.868   8.504
   18        0.425   0.595   8.049   9.070
   19        0.444   0.555   8.135   9.134
   20        0.467   0.734   8.131   9.333
   21        0.301   0.357   7.910   8.568
   22        0.353   0.456   7.977   8.786
   23        0.369   0.440   8.066   8.874
   24        0.331   0.394   7.924   8.649
   25        0.335   0.409   8.003   8.747
   26        0.298   0.372   7.930   8.600
   27        0.236   0.245   7.963   8.444
   28        0.241   0.243   7.947   8.431
   29        0.248   0.271   7.945   8.464
   30        0.200   0.190   7.931   8.321
   31        0.470   0.716   7.968   9.154
   32        0.296   0.370   7.944   8.610
   33        1.280   2.774   0.012   4.066
   34        1.315   2.611   0.004   3.930
   35        1.288   2.727   0.009   4.024
   36        1.284   2.674   0.005   3.963
   37        1.267   2.761   0.010   4.038
   38        1.302   2.626   0.005   3.933
   39        1.269   2.860   0.020   4.149
   40        1.282   2.793   0.015   4.090
   41        1.306   2.585   0.002   3.893
   42        1.300   2.820   0.027   4.148
   43        1.280   2.849   0.021   4.150
   44        1.284   2.729   0.010   4.023
   45        1.279   2.747   0.009   4.036
   46        1.283   2.731   0.009   4.023
   47        1.294   2.767   0.018   4.079
   48        1.295   2.855   0.030   4.179
   49        1.295   2.939   0.040   4.273
   50        1.281   2.726   0.009   4.015
   51        1.288   2.699   0.008   3.995
   52        1.297   2.883   0.034   4.214
   53        1.295   2.623   0.003   3.922
   54        1.271   2.800   0.013   4.084
   55        1.269   2.750   0.008   4.027
   56        1.289   2.655   0.005   3.950
   57        1.279   2.720   0.008   4.008
   58        1.270   2.865   0.022   4.157
   59        1.284   2.711   0.008   4.003
   60        1.274   2.775   0.010   4.059
   61        1.272   2.840   0.019   4.130
   62        1.285   2.705   0.007   3.997
   63        1.310   2.760   0.020   4.091
   64        1.299   2.851   0.028   4.178
   65        1.292   2.690   0.008   3.990
   66        1.274   2.760   0.011   4.045
   67        1.274   2.766   0.012   4.052
   68        1.288   2.695   0.007   3.990
   69        1.277   2.740   0.009   4.025
   70        1.292   2.748   0.014   4.053
   71        1.300   2.794   0.020   4.115
   72        1.295   2.911   0.038   4.245
   73        1.283   2.759   0.012   4.055
   74        1.291   2.649   0.004   3.945
   75        1.261   2.807   0.015   4.083
   76        1.261   2.820   0.015   4.096
   77        1.299   2.800   0.021   4.120
   78        1.291   2.925   0.040   4.256
   79        1.294   2.975   0.047   4.316
   80        1.295   2.611   0.002   3.909
--------------------------------------------------
tot          72.40  146.06  255.94  474.39
 
magnetization (x)
 
# of ion       s       p       d       tot
------------------------------------------
    1        0.002   0.010   0.542   0.554
    2        0.007   0.007   0.700   0.714
    3        0.001   0.001   0.075   0.077
    4        0.000   0.018   0.808   0.826
    5        0.003   0.005   0.222   0.230
    6        0.001   0.005   0.208   0.214
    7       -0.004   0.000   0.121   0.117
    8       -0.001   0.003   0.196   0.198
    9        0.002   0.001   0.040   0.043
   10        0.006   0.006   0.060   0.072
   11        0.013   0.008   0.493   0.514
   12       -0.003  -0.002  -0.290  -0.295
   13        0.001  -0.004  -0.308  -0.311
   14       -0.002   0.004   0.444   0.446
   15       -0.000   0.006   0.545   0.551
   16        0.006   0.013   0.987   1.006
   17       -0.001   0.020   0.878   0.897
   18        0.003   0.006   0.308   0.318
   19        0.001  -0.001   0.013   0.013
   20       -0.002  -0.002  -0.057  -0.062
   21        0.016   0.017   0.883   0.917
   22        0.000  -0.002  -0.245  -0.247
   23       -0.004  -0.001  -0.088  -0.093
   24        0.000   0.003   0.107   0.111
   25       -0.001  -0.002  -0.073  -0.076
   26       -0.002   0.006   0.297   0.301
   27        0.003   0.007   0.626   0.636
   28        0.005   0.009   0.563   0.578
   29       -0.001   0.005   0.249   0.254
   30        0.002   0.005   0.689   0.695
   31       -0.001  -0.003   0.009   0.005
   32        0.002   0.003   0.283   0.288
   33        0.004   0.130   0.000   0.134
   34        0.002   0.060   0.000   0.062
   35        0.000   0.045  -0.000   0.045
   36        0.007   0.220   0.000   0.227
   37        0.006   0.173   0.000   0.179
   38        0.011   0.513  -0.000   0.524
   39        0.003   0.051   0.000   0.054
   40        0.003   0.121   0.000   0.125
   41        0.012   0.505   0.000   0.518
   42        0.003   0.080   0.000   0.083
   43        0.002  -0.023  -0.000  -0.022
   44       -0.001  -0.105   0.000  -0.106
   45        0.001   0.028  -0.000   0.028
   46        0.001   0.035  -0.000   0.036
   47        0.005   0.249   0.000   0.255
   48       -0.000  -0.054   0.000  -0.055
   49       -0.001  -0.014   0.001  -0.014
   50       -0.000  -0.003   0.000  -0.003
   51        0.002   0.005   0.000   0.007
   52        0.003   0.102  -0.000   0.105
   53        0.009   0.447  -0.000   0.456
   54        0.002   0.035   0.000   0.037
   55        0.005   0.186   0.000   0.191
   56       -0.000  -0.020  -0.000  -0.020
   57        0.002   0.083   0.000   0.085
   58        0.003   0.051  -0.000   0.054
   59        0.003   0.122   0.000   0.125
   60        0.003   0.031   0.000   0.033
   61        0.005   0.066   0.000   0.072
   62        0.008   0.325   0.000   0.333
   63        0.001   0.004  -0.000   0.005
   64        0.002   0.081   0.001   0.083
   65        0.001   0.048   0.000   0.049
   66        0.004   0.152   0.000   0.156
   67        0.003   0.053   0.000   0.056
   68        0.008   0.354   0.000   0.362
   69        0.003   0.053   0.000   0.056
   70        0.005   0.186   0.000   0.191
   71       -0.001  -0.087  -0.000  -0.088
   72       -0.000  -0.022  -0.000  -0.022
   73        0.003   0.064  -0.000   0.067
   74        0.005   0.226  -0.000   0.230
   75        0.003   0.097   0.000   0.100
   76        0.005   0.120   0.000   0.124
   77        0.001   0.044  -0.000   0.045
   78        0.001   0.014  -0.000   0.015
   79        0.001   0.005   0.000   0.006
   80        0.006   0.300  -0.000   0.306
--------------------------------------------------
tot           0.21    5.29    9.29   14.78
 

 total amount of memory used by VASP MPI-rank0   567384. kBytes
=======================================================================

   base      :      30000. kBytes
   nonlr-proj:      52671. kBytes
   fftplans  :      10810. kBytes
   grid      :      61419. kBytes
   one-center:       2488. kBytes
   wavefun   :     409996. kBytes
 
  
  
 General timing and accounting informations for this job:
 ========================================================
  
                  Total CPU time used (sec):    14818.998
                            User time (sec):    14805.672
                          System time (sec):       13.326
                         Elapsed time (sec):    14859.343
  
                   Maximum memory used (kb):      680244.
                   Average memory used (kb):           0.
  
                          Minor page faults:        45863
                          Major page faults:           62
                 Voluntary context switches:         1253
