 vasp.5.4.4.18Apr17-6-g9f103f2a35 (build May 12 2020 04:58:55) complex          
  
 MD_VERSION_INFO: Compiled 2020-05-12T11:58:55-UTC in devlin.sd.materialsdesign.
 com:/home/medea2/data/build/wwolf/vasp-gpu5.4.4/13047/x86_64/src/src/build/std 
 from svn 13047
 
 This VASP executable licensed from Materials Design, Inc.
 
 executed on                        Lin64 date 2023.03.25  21:18:34
 running on   16 total cores
 distrk:  each k-point on   16 cores,    1 groups
 distr:  one band on NCORES_PER_BAND=   1 cores,   16 groups


--------------------------------------------------------------------------------------------------------


 INCAR:
 POTCAR:    PAW_PBE Ni 02Aug2007                  
 POTCAR:    PAW_PBE O 08Apr2002                   

 ----------------------------------------------------------------------------- 
|                                                                             |
|           W    W    AA    RRRRR   N    N  II  N    N   GGGG   !!!           |
|           W    W   A  A   R    R  NN   N  II  NN   N  G    G  !!!           |
|           W    W  A    A  R    R  N N  N  II  N N  N  G       !!!           |
|           W WW W  AAAAAA  RRRRR   N  N N  II  N  N N  G  GGG   !            |
|           WW  WW  A    A  R   R   N   NN  II  N   NN  G    G                |
|           W    W  A    A  R    R  N    N  II  N    N   GGGG   !!!           |
|                                                                             |
|      For optimal performance we recommend to set                            |
|        NCORE= 4 - approx SQRT( number of cores)                             |
|      NCORE specifies how many cores store one orbital (NPAR=cpu/NCORE).     |
|      This setting can  greatly improve the performance of VASP for DFT.     |
|      The default,   NCORE=1            might be grossly inefficient         |
|      on modern multi-core architectures or massively parallel machines.     |
|      Do your own testing !!!!                                               |
|      Unfortunately you need to use the default for GW and RPA calculations. |
|      (for HF NCORE is supported but not extensively tested yet)             |
|                                                                             |
 ----------------------------------------------------------------------------- 

 POTCAR:    PAW_PBE Ni 02Aug2007                  
  local pseudopotential read in
  partial core-charges read in
  partial kinetic energy density read in
  atomic valenz-charges read in
  non local Contribution for L=           2  read in
    real space projection operators read in
  non local Contribution for L=           2  read in
    real space projection operators read in
  non local Contribution for L=           0  read in
    real space projection operators read in
  non local Contribution for L=           0  read in
    real space projection operators read in
  non local Contribution for L=           1  read in
    real space projection operators read in
  non local Contribution for L=           1  read in
    real space projection operators read in
    PAW grid and wavefunctions read in
 
   number of l-projection  operators is LMAX  =           6
   number of lm-projection operators is LMMAX =          18
 
 POTCAR:    PAW_PBE O 08Apr2002                   
  local pseudopotential read in
  partial core-charges read in
  partial kinetic energy density read in
  kinetic energy density of atom read in
  atomic valenz-charges read in
  non local Contribution for L=           0  read in
    real space projection operators read in
  non local Contribution for L=           0  read in
    real space projection operators read in
  non local Contribution for L=           1  read in
    real space projection operators read in
  non local Contribution for L=           1  read in
    real space projection operators read in
    PAW grid and wavefunctions read in
 
   number of l-projection  operators is LMAX  =           4
   number of lm-projection operators is LMMAX =           8
 
 Optimization of the real space projectors (new method)

 maximal supplied QI-value         = 16.25
 optimisation between [QCUT,QGAM] = [ 11.38, 22.75] = [ 36.24,144.96] Ry 
 Optimized for a Real-space Cutoff    1.47 Angstroem

   l    n(q)    QCUT    max X(q) W(low)/X(q) W(high)/X(q)  e(spline) 
   2      9    11.376    60.317    0.17E-03    0.16E-04    0.16E-06
   2      9    11.376    55.921    0.17E-03    0.16E-04    0.17E-06
   0     10    11.376    51.690    0.45E-04    0.60E-04    0.21E-06
   0     10    11.376    30.015    0.37E-04    0.55E-04    0.19E-06
   1     10    11.376    18.849    0.83E-04    0.11E-03    0.92E-07
   1     10    11.376    14.624    0.69E-04    0.92E-04    0.82E-07
 Optimization of the real space projectors (new method)

 maximal supplied QI-value         = 24.76
 optimisation between [QCUT,QGAM] = [ 11.39, 22.77] = [ 36.31,145.25] Ry 
 Optimized for a Real-space Cutoff    1.10 Angstroem

   l    n(q)    QCUT    max X(q) W(low)/X(q) W(high)/X(q)  e(spline) 
   0      7    11.387    20.381    0.22E-03    0.48E-03    0.18E-06
   0      7    11.387    15.268    0.22E-03    0.52E-03    0.19E-06
   1      7    11.387     5.964    0.22E-03    0.73E-03    0.24E-06
   1      7    11.387     5.382    0.19E-03    0.60E-03    0.21E-06

 ----------------------------------------------------------------------------- 
|                                                                             |
|  ADVICE TO THIS USER RUNNING 'VASP/VAMP'   (HEAR YOUR MASTER'S VOICE ...):  |
|                                                                             |
|      You enforced a specific xc-type in the INCAR file,                     |
|      a different type was found on the POTCAR file                          |
|          I HOPE YOU KNOW, WHAT YOU ARE  DOING                               |
|                                                                             |
 ----------------------------------------------------------------------------- 

  PAW_PBE Ni 02Aug2007                  :
 energy of atom  1       EATOM=-1077.6739
 kinetic energy error for atom=    0.0030 (will be added to EATOM!!)
  PAW_PBE O 08Apr2002                   :
 energy of atom  2       EATOM= -432.3788
 kinetic energy error for atom=    0.0224 (will be added to EATOM!!)
 
 
 POSCAR: Ni2O3_Cc_scale_0_975_disp_0_10_round_1  
  positions in direct lattice
  No initial velocities read in
 exchange correlation table for  LEXCH =       14
   RHO(1)=    0.500       N(1)  =     2000
   RHO(2)=  100.500       N(2)  =     4000
 


--------------------------------------------------------------------------------------------------------


 ion  position               nearest neighbor table
   1  0.927  0.462  0.245-  67 1.59  33 1.76  38 1.87  60 2.05   8 2.86  23 2.91   6 3.03
   2  0.770  0.210  0.256-  36 1.89  40 1.90  37 1.91  38 1.93  17 2.76  15 2.99
   3  0.404  0.300  0.998-  54 1.53  39 1.73  40 1.87  35 2.04  14 2.81  13 3.00  20 3.01
   4  0.266  0.049  0.023-  59 1.67  58 1.73  55 1.75  39 1.80  19 2.72   7 2.94  22 2.96  25 2.99
                             5 3.06
   5  0.438  0.215  0.275-  44 1.74  42 1.76  37 1.96  39 2.09  22 2.84  11 3.02  16 3.03   4 3.06

   6  0.259  0.484  0.252-  68 1.67  67 1.90  34 2.00  42 2.06  23 2.86   1 3.03  21 3.05
   7  0.938  0.060  0.007-  58 1.69  41 1.71  57 1.82  48 1.85  10 2.72  25 2.82  17 2.94   4 2.94
                            22 3.02  24 3.03   8 3.08
   8  0.777  0.308  0.009-  49 1.73  41 1.74  33 1.76  40 1.91  10 2.76   1 2.86  23 3.06   7 3.08

   9  0.934  0.449  0.741-  45 1.56  50 1.71  79 1.92  72 2.24  16 2.66  14 2.84  31 3.03  10 3.09

  10  0.783  0.217  0.791-  49 1.67  48 1.83  50 1.93  52 1.96  41 2.44   7 2.72   8 2.76  25 2.99
                             9 3.09
  11  0.416  0.301  0.511-  51 1.74  52 1.83  47 1.87  42 2.06   5 3.02  28 3.05
  12  0.290  0.026  0.521-  71 1.42  70 1.86  51 2.02  43 2.04  27 2.54  22 2.83  30 3.00  13 3.07

  13  0.419  0.200  0.765-  54 1.92  51 1.96  56 1.96  49 2.06  30 2.76   3 3.00  12 3.07
  14  0.262  0.462  0.774-  80 1.78  54 1.80  79 1.85  46 1.99  35 2.47  20 2.69   3 2.81   9 2.84

  15  0.939  0.055  0.508-  70 1.65  36 1.79  53 1.81  69 1.89  30 2.97   2 2.99  17 3.07
  16  0.777  0.300  0.526-  37 1.85  53 1.88  52 1.94  45 1.98   9 2.66   5 3.03
  17  0.922  0.996  0.244-  43 1.38  36 1.74  57 1.82  62 1.97   2 2.76   7 2.94  24 3.00  22 3.04
                            15 3.07
  18  0.786  0.724  0.264-  60 1.79  62 1.84  61 1.89  64 2.06  31 2.97
  19  0.408  0.839  0.997-  78 1.55  59 1.64  63 1.96  64 2.08   4 2.72  30 2.77  29 2.95
  20  0.275  0.555  0.992-  79 1.47  35 1.48  63 1.92  34 2.02  14 2.69   3 3.01
  21  0.409  0.733  0.251-  63 1.78  68 2.00  61 2.03  66 2.06   6 3.05  27 3.06  32 3.07
  22  0.270  0.996  0.272-  44 1.55  66 1.84  58 1.92  43 1.97  12 2.83   5 2.84  27 2.91   4 2.96
                             7 3.02  17 3.04
  23  0.935  0.558  0.016-  65 1.66  33 1.71  34 1.72  72 1.85   6 2.86   1 2.91  26 3.06   8 3.06

  24  0.770  0.821  0.007-  73 1.68  57 1.79  64 1.89  65 2.05  26 2.98  17 3.00   7 3.03
  25  0.926  0.976  0.773-  48 1.58  74 1.76  55 1.77  69 1.83   7 2.82  10 2.99   4 2.99  26 3.02

  26  0.774  0.729  0.768-  76 1.70  74 1.74  72 1.78  73 1.84  24 2.98  25 3.02  32 3.05  23 3.06

  27  0.411  0.824  0.499-  66 1.55  71 1.64  76 1.86  75 2.07  12 2.54  22 2.91  21 3.06
  28  0.278  0.552  0.527-  47 1.77  75 1.85  46 2.01  67 2.09  31 3.00  29 3.01  11 3.05
  29  0.399  0.725  0.763-  75 1.79  78 1.92  80 1.94  73 2.24  19 2.95  28 3.01  30 3.04
  30  0.265  0.982  0.763-  56 1.49  78 1.77  70 1.77  55 1.87  13 2.76  19 2.77  15 2.97  12 3.00
                            29 3.04
  31  0.936  0.553  0.501-  46 1.46  60 1.64  45 1.88  77 2.03  18 2.97  28 3.00   9 3.03
  32  0.757  0.804  0.509-  77 1.88  61 1.88  76 2.03  69 2.11  26 3.05  21 3.07
  33  0.837  0.459  0.068-  23 1.71   8 1.76   1 1.76
  34  0.119  0.485  0.048-  23 1.72   6 2.00  20 2.02
  35  0.431  0.486  0.025-  20 1.48   3 2.04  14 2.47
  36  0.822  0.048  0.325-  17 1.74  15 1.79   2 1.89
  37  0.664  0.289  0.339-  16 1.85   2 1.91   5 1.96
  38  0.978  0.300  0.308-   1 1.87   2 1.93
  39  0.309  0.210  0.062-   3 1.73   4 1.80   5 2.09
  40  0.632  0.251  0.067-   3 1.87   2 1.90   8 1.91
  41  0.948  0.214  0.040-   7 1.71   8 1.74  10 2.44
  42  0.298  0.300  0.302-   5 1.76  11 2.06   6 2.06
  43  0.096  0.023  0.319-  17 1.38  22 1.97  12 2.04
  44  0.437  0.057  0.300-  22 1.55   5 1.74
  45  0.835  0.474  0.584-   9 1.56  31 1.88  16 1.98
  46  0.108  0.499  0.575-  31 1.46  14 1.99  28 2.01
  47  0.463  0.463  0.575-  28 1.77  11 1.87
  48  0.819  0.051  0.818-  25 1.58  10 1.83   7 1.85
  49  0.655  0.280  0.834-  10 1.67   8 1.73  13 2.06
  50  0.979  0.311  0.824-   9 1.71  10 1.93
  51  0.315  0.207  0.568-  11 1.74  13 1.96  12 2.02
  52  0.636  0.242  0.593-  11 1.83  16 1.94  10 1.96
  53  0.977  0.210  0.575-  15 1.81  16 1.88
  54  0.337  0.310  0.845-   3 1.53  14 1.80  13 1.92
  55  0.145  0.018  0.846-   4 1.75  25 1.77  30 1.87
  56  0.445  0.029  0.829-  30 1.49  13 1.96
  57  0.812  0.978  0.060-  24 1.79  17 1.82   7 1.82
  58  0.136  0.995  0.075-   7 1.69   4 1.73  22 1.92
  59  0.443  0.984  0.042-  19 1.64   4 1.67
  60  0.837  0.573  0.335-  31 1.64  18 1.79   1 2.05
  61  0.649  0.800  0.318-  32 1.88  18 1.89  21 2.03
  62  0.970  0.825  0.312-  18 1.84  17 1.97
  63  0.330  0.715  0.074-  21 1.78  20 1.92  19 1.96
  64  0.629  0.738  0.054-  24 1.89  18 2.06  19 2.08
  65  0.969  0.708  0.042-  23 1.66  24 2.05
  66  0.313  0.838  0.342-  27 1.55  22 1.84  21 2.06
  67  0.116  0.519  0.317-   1 1.59   6 1.90  28 2.09
  68  0.447  0.558  0.313-   6 1.67  21 2.00
  69  0.829  0.983  0.588-  25 1.83  15 1.89  32 2.11
  70  0.147  0.020  0.587-  15 1.65  30 1.77  12 1.86
  71  0.446  0.964  0.561-  12 1.42  27 1.64
  72  0.825  0.575  0.829-  26 1.78  23 1.85   9 2.24
  73  0.658  0.807  0.836-  24 1.68  26 1.84  29 2.24
  74  0.954  0.819  0.814-  26 1.74  25 1.76
  75  0.308  0.714  0.584-  29 1.79  28 1.85  27 2.07
  76  0.629  0.752  0.598-  26 1.70  27 1.86  32 2.03
  77  0.967  0.735  0.550-  32 1.88  31 2.03
  78  0.308  0.834  0.839-  19 1.55  30 1.77  29 1.92
  79  0.148  0.538  0.844-  20 1.47  14 1.85   9 1.92
  80  0.447  0.558  0.831-  14 1.78  29 1.94
 
  LATTYP: Found a simple monoclinic cell.
 ALAT       =    15.5489632352
 B/A-ratio  =     0.6987547874
 C/A-ratio  =     1.5833429408
 COS(beta)  =    -0.9717709890
  
  Lattice vectors:
  
 A1 = ( -12.0843842100,   0.0000000000,  -9.7845754100)
 A2 = (   0.0000000000, -10.8649125000,   0.0000000000)
 A3 = (  14.9385506700,   0.0000000000,  19.5691508200)


Analysis of symmetry for initial positions (statically):
=====================================================================
 Subroutine PRICEL returns:
 Original cell was already a primitive cell.
 

 Routine SETGRP: Setting up the symmetry group for a 
 simple monoclinic supercell.


 Subroutine GETGRP returns: Found  1 space group operations
 (whereof  1 operations were pure point group operations)
 out of a pool of  4 trial point group operations.


The static configuration has the point symmetry C_1 .


Analysis of symmetry for dynamics (positions and initial velocities):
=====================================================================
 Subroutine PRICEL returns:
 Original cell was already a primitive cell.
 

 Routine SETGRP: Setting up the symmetry group for a 
 simple monoclinic supercell.


 Subroutine GETGRP returns: Found  1 space group operations
 (whereof  1 operations were pure point group operations)
 out of a pool of  4 trial point group operations.


The dynamic configuration has the point symmetry C_1 .


Analysis of structural, dynamic, and magnetic symmetry:
=====================================================================
 Subroutine PRICEL returns:
 Original cell was already a primitive cell.
 

 Routine SETGRP: Setting up the symmetry group for a 
 simple monoclinic supercell.


 Subroutine GETGRP returns: Found  1 space group operations
 (whereof  1 operations were pure point group operations)
 out of a pool of  4 trial point group operations.


The magnetic configuration has the point symmetry C_1 .


 Subroutine INISYM returns: Found  1 space group operations
 (whereof  1 operations are pure point group operations),
 and found     1 'primitive' translations

 
 
 KPOINTS: Automatic mesh                          

Automatic generation of k-mesh.
Space group operators:
 irot       det(A)        alpha          n_x          n_y          n_z        tau_x        tau_y        tau_z
    1     1.000000     0.000000     1.000000     0.000000     0.000000     0.000000     0.000000     0.000000
 
 Subroutine IBZKPT returns following result:
 ===========================================
 
 Found     19 irreducible k-points:
 
 Following reciprocal coordinates:
            Coordinates               Weight
  0.000000  0.000000  0.000000      1.000000
  0.250000  0.000000  0.000000      2.000000
  0.500000  0.000000  0.000000      1.000000
  0.000000  0.333333  0.000000      2.000000
  0.250000  0.333333  0.000000      2.000000
  0.500000  0.333333  0.000000      2.000000
 -0.250000  0.333333 -0.000000      2.000000
  0.000000  0.000000  0.333333      2.000000
  0.250000  0.000000  0.333333      2.000000
  0.500000  0.000000  0.333333      2.000000
 -0.250000  0.000000  0.333333      2.000000
  0.000000  0.333333  0.333333      2.000000
  0.250000  0.333333  0.333333      2.000000
  0.500000  0.333333  0.333333      2.000000
 -0.250000  0.333333  0.333333      2.000000
  0.000000 -0.333333  0.333333      2.000000
  0.250000 -0.333333  0.333333      2.000000
  0.500000 -0.333333  0.333333      2.000000
 -0.250000 -0.333333  0.333333      2.000000
 
 Following cartesian coordinates:
            Coordinates               Weight
  0.000000  0.000000  0.000000      1.000000
  0.027085  0.000000  0.017650      2.000000
  0.054170  0.000000  0.035299      1.000000
  0.000000  0.030680  0.000000      2.000000
  0.027085  0.030680  0.017650      2.000000
  0.054170  0.030680  0.035299      2.000000
 -0.027085  0.030680 -0.017650      2.000000
  0.000000  0.000000  0.034067      2.000000
  0.027085  0.000000  0.051717      2.000000
  0.054170  0.000000  0.069367      2.000000
 -0.027085  0.000000  0.016418      2.000000
  0.000000  0.030680  0.034067      2.000000
  0.027085  0.030680  0.051717      2.000000
  0.054170  0.030680  0.069367      2.000000
 -0.027085  0.030680  0.016418      2.000000
  0.000000 -0.030680  0.034067      2.000000
  0.027085 -0.030680  0.051717      2.000000
  0.054170 -0.030680  0.069367      2.000000
 -0.027085 -0.030680  0.016418      2.000000
 


--------------------------------------------------------------------------------------------------------




 Dimension of arrays:
   k-points           NKPTS =     19   k-points in BZ     NKDIM =     19   number of bands    NBANDS=    416
   number of dos      NEDOS =    301   number of ions     NIONS =     80
   non local maximal  LDIM  =      6   non local SUM 2l+1 LMDIM =     18
   total plane-waves  NPLWV = 504000
   max r-space proj   IRMAX =   6945   max aug-charges    IRDMAX=  16847
   dimension x,y,z NGX =    70 NGY =   80 NGZ =   90
   dimension x,y,z NGXF=   140 NGYF=  160 NGZF=  180
   support grid    NGXF=   140 NGYF=  160 NGZF=  180
   ions per type =              32  48
   NGX,Y,Z   is equivalent  to a cutoff of  12.61, 12.24, 12.81 a.u.
   NGXF,Y,Z  is equivalent  to a cutoff of  25.22, 24.48, 25.62 a.u.

 SYSTEM =  unknown system                          
 POSCAR =  Ni2O3_Cc_scale_0_975_disp_0_10_round_1  

 Startparameter for this run:
   NWRITE =      1    write-flag & timer
   PREC   = accura    normal or accurate (medium, high low for compatibility)
   ISTART =      0    job   : 0-new  1-cont  2-samecut
   ICHARG =      2    charge: 1-file 2-atom 10-const
   ISPIN  =      2    spin polarized calculation?
   LNONCOLLINEAR =      F non collinear calculations
   LSORBIT =      F    spin-orbit coupling
   INIWAV =      1    electr: 0-lowe 1-rand  2-diag
   LASPH  =      F    aspherical Exc in radial PAW
   METAGGA=      F    non-selfconsistent MetaGGA calc.

 Electronic Relaxation 1
   ENCUT  =  500.0 eV  36.75 Ry    6.06 a.u.  16.83 19.81 21.29*2*pi/ulx,y,z
   ENINI  =  500.0     initial cutoff
   ENAUG  =  605.4 eV  augmentation charge cutoff
   NELM   =     80;   NELMIN=  2; NELMDL= -5     # of ELM steps 
   EDIFF  = 0.1E-04   stopping-criterion for ELM
   LREAL  =      T    real-space projection
   NLSPLINE    = F    spline interpolate recip. space projectors
   LCOMPAT=      F    compatible to vasp.4.4
   GGA_COMPAT  = T    GGA compatible to vasp.4.4-vasp.4.6
   LMAXPAW     = -100 max onsite density
   LMAXMIX     =    2 max onsite mixed and CHGCAR
   VOSKOWN=      1    Vosko Wilk Nusair interpolation
   ROPT   =   -0.00025  -0.00025
 Ionic relaxation
   EDIFFG = 0.1E-03   stopping-criterion for IOM
   NSW    =      0    number of steps for IOM
   NBLOCK =      1;   KBLOCK =      1    inner block; outer block 
   IBRION =     -1    ionic relax: 0-MD 1-quasi-New 2-CG
   NFREE  =      0    steps in history (QN), initial steepest desc. (CG)
   ISIF   =      2    stress and relaxation
   IWAVPR =     10    prediction:  0-non 1-charg 2-wave 3-comb
   ISYM   =      2    0-nonsym 1-usesym 2-fastsym
   LCORR  =      T    Harris-Foulkes like correction to forces

   POTIM  = 0.5000    time-step for ionic-motion
   TEIN   =    0.0    initial temperature
   TEBEG  =    0.0;   TEEND  =   0.0 temperature during run
   SMASS  =  -3.00    Nose mass-parameter (am)
   estimated Nose-frequenzy (Omega)   =  0.10E-29 period in steps =****** mass=  -0.195E-26a.u.
   SCALEE = 1.0000    scale energy and forces
   NPACO  =    256;   APACO  = 16.0  distance and # of slots for P.C.
   PSTRESS=    0.0 pullay stress

  Mass of Ions in am
   POMASS =  58.69 16.00
  Ionic Valenz
   ZVAL   =  10.00  6.00
  Atomic Wigner-Seitz radii
   RWIGS  =   1.15  0.73
  virtual crystal weights 
   VCA    =   1.00  1.00
   NELECT =     608.0000    total number of electrons
   NUPDOWN=      -1.0000    fix difference up-down

 DOS related values:
   EMIN   =  10.00;   EMAX   =-10.00  energy-range for DOS
   EFERMI =   0.00
   ISMEAR =     0;   SIGMA  =   0.05  broadening in eV -4-tet -1-fermi 0-gaus

 Electronic relaxation 2 (details)
   IALGO  =     38    algorithm
   LDIAG  =      T    sub-space diagonalisation (order eigenvalues)
   LSUBROT=      F    optimize rotation matrix (better conditioning)
   TURBO    =      0    0=normal 1=particle mesh
   IRESTART =      0    0=no restart 2=restart with 2 vectors
   NREBOOT  =      0    no. of reboots
   NMIN     =      0    reboot dimension
   EREF     =   0.00    reference energy to select bands
   IMIX   =      4    mixing-type and parameters
     AMIX     =   0.40;   BMIX     =  1.00
     AMIX_MAG =   1.60;   BMIX_MAG =  1.00
     AMIN     =   0.10
     WC   =   100.;   INIMIX=   1;  MIXPRE=   1;  MAXMIX= -45

 Intra band minimization:
   WEIMIN = 0.0000     energy-eigenvalue tresh-hold
   EBREAK =  0.60E-08  absolut break condition
   DEPER  =   0.30     relativ break condition  

   TIME   =   0.40     timestep for ELM

  volume/ion in A,a.u.               =      12.27        82.77
  Fermi-wavevector in a.u.,A,eV,Ry     =   1.395670  2.637433 26.502704  1.947894
  Thomas-Fermi vector in A             =   2.519099
 
 Write flags
   LWAVE        =      F    write WAVECAR
   LDOWNSAMPLE  =      F    k-point downsampling of WAVECAR
   LCHARG       =      T    write CHGCAR
   LVTOT        =      F    write LOCPOT, total local potential
   LVHAR        =      F    write LOCPOT, Hartree potential only
   LELF         =      F    write electronic localiz. function (ELF)
   LORBIT       =      0    0 simple, 1 ext, 2 COOP (PROOUT), +10 PAW based schemes


 Dipole corrections
   LMONO  =      F    monopole corrections only (constant potential shift)
   LDIPOL =      F    correct potential (dipole corrections)
   IDIPOL =      0    1-x, 2-y, 3-z, 4-all directions 
   EPSILON=  1.0000000 bulk dielectric constant

 Exchange correlation treatment:
   GGA     =    PS    GGA type
   LEXCH   =    14    internal setting for exchange type
   VOSKOWN=      1    Vosko Wilk Nusair interpolation
   LHFCALC =     F    Hartree Fock is set to
   LHFONE  =     F    Hartree Fock one center treatment
   AEXX    =    0.0000 exact exchange contribution

 Linear response parameters
   LEPSILON=     F    determine dielectric tensor
   LRPA    =     F    only Hartree local field effects (RPA)
   LNABLA  =     F    use nabla operator in PAW spheres
   LVEL    =     F    velocity operator in full k-point grid
   LINTERFAST=   F  fast interpolation
   KINTER  =     0    interpolate to denser k-point grid
   CSHIFT  =0.1000    complex shift for real part using Kramers Kronig
   OMEGAMAX=  -1.0    maximum frequency
   DEG_THRESHOLD= 0.2000000E-02 threshold for treating states as degnerate
   RTIME   =   -0.100 relaxation time in fs
  (WPLASMAI=    0.000 imaginary part of plasma frequency in eV, 0.658/RTIME)
   DFIELD  = 0.0000000 0.0000000 0.0000000 field for delta impulse in time
 
 Orbital magnetization related:
   ORBITALMAG=     F  switch on orbital magnetization
   LCHIMAG   =     F  perturbation theory with respect to B field
   DQ        =  0.001000  dq finite difference perturbation B field
   LLRAUG    =     F  two centre corrections for induced B field



--------------------------------------------------------------------------------------------------------


 Static calculation
 charge density and potential will be updated during run
 spin polarized calculation
 Variant of blocked Davidson
 Davidson routine will perform the subspace rotation
 perform sub-space diagonalisation
    after iterative eigenvector-optimisation
 modified Broyden-mixing scheme, WC =      100.0
 initial mixing is a Kerker type mixing with AMIX =  0.4000 and BMIX =      1.0000
 Hartree-type preconditioning will be used
 using additional bands          112
 real space projection scheme for non local part
 use partial core corrections
 calculate Harris-corrections to forces 
   (improved forces if not selfconsistent)
 use gradient corrections 
 use of overlap-Matrix (Vanderbilt PP)
 Gauss-broadening in eV      SIGMA  =   0.05


--------------------------------------------------------------------------------------------------------


  energy-cutoff  :      500.00
  volume of cell :      981.25
      direct lattice vectors                 reciprocal lattice vectors
     9.230217750  0.000000000  0.000000000     0.108339806  0.000000000  0.070598890
     0.000000000 10.864912500  0.000000000     0.000000000  0.092039397  0.000000000
    -6.376051290  0.000000000  9.784575410     0.000000000  0.000000000  0.102201675

  length of vectors
     9.230217750 10.864912500 11.678696246     0.129312477  0.092039397  0.102201675


 
 k-points in units of 2pi/SCALE and weight: Automatic mesh                          
   0.00000000  0.00000000  0.00000000       0.028
   0.02708495  0.00000000  0.01764972       0.056
   0.05416990  0.00000000  0.03529944       0.028
   0.00000000  0.03067980  0.00000000       0.056
   0.02708495  0.03067980  0.01764972       0.056
   0.05416990  0.03067980  0.03529944       0.056
  -0.02708495  0.03067980 -0.01764972       0.056
   0.00000000  0.00000000  0.03406723       0.056
   0.02708495  0.00000000  0.05171695       0.056
   0.05416990  0.00000000  0.06936667       0.056
  -0.02708495  0.00000000  0.01641750       0.056
   0.00000000  0.03067980  0.03406723       0.056
   0.02708495  0.03067980  0.05171695       0.056
   0.05416990  0.03067980  0.06936667       0.056
  -0.02708495  0.03067980  0.01641750       0.056
   0.00000000 -0.03067980  0.03406723       0.056
   0.02708495 -0.03067980  0.05171695       0.056
   0.05416990 -0.03067980  0.06936667       0.056
  -0.02708495 -0.03067980  0.01641750       0.056
 
 k-points in reciprocal lattice and weights: Automatic mesh                          
   0.00000000  0.00000000  0.00000000       0.028
   0.25000000  0.00000000  0.00000000       0.056
   0.50000000  0.00000000  0.00000000       0.028
   0.00000000  0.33333333  0.00000000       0.056
   0.25000000  0.33333333  0.00000000       0.056
   0.50000000  0.33333333  0.00000000       0.056
  -0.25000000  0.33333333 -0.00000000       0.056
   0.00000000  0.00000000  0.33333333       0.056
   0.25000000  0.00000000  0.33333333       0.056
   0.50000000  0.00000000  0.33333333       0.056
  -0.25000000  0.00000000  0.33333333       0.056
   0.00000000  0.33333333  0.33333333       0.056
   0.25000000  0.33333333  0.33333333       0.056
   0.50000000  0.33333333  0.33333333       0.056
  -0.25000000  0.33333333  0.33333333       0.056
   0.00000000 -0.33333333  0.33333333       0.056
   0.25000000 -0.33333333  0.33333333       0.056
   0.50000000 -0.33333333  0.33333333       0.056
  -0.25000000 -0.33333333  0.33333333       0.056
 
 position of ions in fractional coordinates (direct lattice) 
   0.92712758  0.46223762  0.24504490
   0.77040213  0.21000476  0.25621092
   0.40403644  0.29981025  0.99758123
   0.26638313  0.04877578  0.02250224
   0.43825749  0.21500413  0.27508076
   0.25942590  0.48409663  0.25192268
   0.93827660  0.05986079  0.00694241
   0.77697105  0.30778389  0.00860682
   0.93362283  0.44928039  0.74072308
   0.78320567  0.21714509  0.79091117
   0.41562677  0.30086662  0.51112677
   0.28970344  0.02627462  0.52101078
   0.41922336  0.19965655  0.76535630
   0.26230616  0.46202657  0.77395098
   0.93889844  0.05481613  0.50810080
   0.77692104  0.29966007  0.52620742
   0.92185680  0.99558167  0.24373326
   0.78602680  0.72409131  0.26389590
   0.40832917  0.83925053  0.99718030
   0.27451624  0.55498942  0.99226338
   0.40934761  0.73344400  0.25053750
   0.26964485  0.99556582  0.27218520
   0.93499037  0.55805093  0.01597793
   0.76951098  0.82099507  0.00687656
   0.92648800  0.97649045  0.77320532
   0.77356111  0.72946131  0.76784420
   0.41077288  0.82359447  0.49931344
   0.27784337  0.55159547  0.52705476
   0.39860932  0.72527418  0.76347396
   0.26541834  0.98160418  0.76339328
   0.93567873  0.55289744  0.50075124
   0.75695250  0.80373330  0.50911492
   0.83691441  0.45944835  0.06811322
   0.11865695  0.48489129  0.04753451
   0.43121481  0.48568453  0.02534700
   0.82185304  0.04801038  0.32514219
   0.66413933  0.28934801  0.33864824
   0.97845044  0.30010164  0.30849171
   0.30895651  0.21032447  0.06213861
   0.63162563  0.25071292  0.06737670
   0.94832650  0.21426806  0.04028144
   0.29763362  0.30005243  0.30221236
   0.09646191  0.02281269  0.31861674
   0.43745857  0.05681437  0.29987869
   0.83515982  0.47384205  0.58393585
   0.10809734  0.49889286  0.57505939
   0.46332157  0.46301376  0.57492837
   0.81867644  0.05140971  0.81830956
   0.65471592  0.27998492  0.83410169
   0.97940234  0.31130955  0.82433721
   0.31466716  0.20687606  0.56785918
   0.63634085  0.24153499  0.59251478
   0.97650251  0.20952153  0.57539929
   0.33659020  0.31040249  0.84542234
   0.14518641  0.01846367  0.84646418
   0.44472536  0.02894866  0.82883643
   0.81212932  0.97834148  0.05986394
   0.13574578  0.99501862  0.07549353
   0.44262875  0.98431316  0.04151053
   0.83668653  0.57272784  0.33503444
   0.64856473  0.80049607  0.31783748
   0.97041333  0.82491044  0.31174346
   0.33029187  0.71510929  0.07409245
   0.62941778  0.73815899  0.05378996
   0.96854023  0.70848258  0.04215794
   0.31334714  0.83813676  0.34170570
   0.11573513  0.51936887  0.31739168
   0.44660764  0.55806845  0.31290193
   0.82854497  0.98343143  0.58848041
   0.14653959  0.01976729  0.58709677
   0.44610128  0.96402097  0.56062728
   0.82518049  0.57496365  0.82855120
   0.65822814  0.80697418  0.83550613
   0.95432625  0.81905424  0.81381395
   0.30846535  0.71393931  0.58371946
   0.62941069  0.75226798  0.59833613
   0.96663267  0.73467570  0.55029044
   0.30809828  0.83391771  0.83917630
   0.14806109  0.53810586  0.84447841
   0.44672375  0.55765173  0.83145354
 
 position of ions in cartesian coordinates  (Angst):
   6.99517059  5.02217130  2.39766030
   5.47736545  2.28168334  2.50691507
  -2.63128477  3.25741213  9.76090877
   2.31529886  0.52994458  0.22017486
   2.29128303  2.33600106  2.69154844
   0.78828562  5.25966753  2.46495646
   8.61623217  0.65038225  0.06792853
   7.11673445  3.34404503  0.08421408
   3.89465367  4.88139213  7.24766083
   2.18626869  2.35926240  7.73872999
   0.57735509  3.26888950  5.00115843
  -0.64796562  0.28547145  5.09786927
  -1.01042813  2.16925095  7.48868643
  -2.51360817  5.01987826  7.57278173
   5.42656029  0.59557246  4.97155059
   3.81602487  3.25578044  5.14871618
   6.95488323 10.81690773  2.38482646
   5.57258473  7.86718873  2.58210933
  -2.58910559  9.11838357  9.75698584
  -3.79287753  6.02991149  9.70887587
   2.18092763  7.96880488  2.45140306
   0.75341389 10.81673552  2.66321661
   8.52828861  6.06317452  0.15633726
   7.05890861  8.92003960  0.06728422
   3.62168920 10.60948330  7.56548576
   2.24432349  7.92553331  7.51302948
   0.60787502  8.94828185  4.88557001
  -0.79597338  5.99303652  5.15700704
  -1.18869831  7.88004050  7.47026854
  -2.41756563 10.66504353  7.46947912
   5.44370283  6.00718231  4.89963827
   3.74069356  8.73249198  4.98147333
   7.29060886  4.99186612  0.66645894
   0.79214701  5.26830144  0.46510500
   3.81859282  5.27691992  0.24800963
   5.51275924  0.52162858  3.18137828
   3.97091208  3.14374081  3.31352924
   7.06435165  3.26057806  3.01846040
   2.45553690  2.28515696  0.60799992
   5.40044481  2.72397394  0.65925240
   8.49642357  2.32800372  0.39413679
   0.82030161  3.26004340  2.95701963
  -1.14115224  0.24785788  3.11752952
   2.12579595  0.61728316  2.93418566
   3.98550206  5.14825241  5.71356436
  -2.66884618  5.42042727  5.62671197
   0.61078620  5.03060399  5.62542999
   2.33897808  0.55856200  8.00681160
   0.72489535  3.04201166  8.16133089
   3.78408053  3.38235102  8.06578959
  -0.71625285  2.24769029  5.55626097
   2.09565998  2.62425653  5.79750555
   5.34455542  2.27643309  5.63003774
  -2.28365536  3.37249589  8.27209864
  -4.05699685  0.20060616  8.28229260
  -1.17979168  0.31452466  8.10981255
   7.11443491 10.62959458  0.58574324
   0.77161249 10.81079024  0.73867214
   3.82088648 10.69447636  0.40616291
   5.58660209  6.22263787  3.27816974
   3.95984561  8.69731976  3.10990479
   6.96943405  8.96257975  3.05027739
   2.57624862  7.76959986  0.72496316
   5.46669562  8.02003284  0.52631192
   8.67103603  7.69760124  0.41249754
   0.71352926  9.10628256  3.34344519
  -0.95544518  5.64289733  3.10554283
   2.12720701  6.06336488  3.06161253
   3.89546921 10.68489644  5.75803095
  -2.39076679  0.21476988  5.74449262
   0.54302366 10.47400349  5.48549990
   2.33371066  6.24692975  8.10702170
   0.74835912  8.76770386  8.17507273
   3.61971961  8.89895265  7.96282396
  -0.87462287  7.75688813  5.71144707
   1.99457587  8.17332578  5.85446498
   5.41354996  7.98218720  5.38435831
  -2.50681692  9.06044295  8.21098379
  -4.01780155  5.84647308  8.26286268
  -1.17803293  6.05883725  8.13541986
 


--------------------------------------------------------------------------------------------------------


 k-point  1 :   0.0000 0.0000 0.0000  plane waves:   24843
 k-point  2 :   0.2500 0.0000 0.0000  plane waves:   24890
 k-point  3 :   0.5000 0.0000 0.0000  plane waves:   24924
 k-point  4 :   0.0000 0.3333 0.0000  plane waves:   24968
 k-point  5 :   0.2500 0.3333 0.0000  plane waves:   24927
 k-point  6 :   0.5000 0.3333 0.0000  plane waves:   24910
 k-point  7 :  -0.2500 0.3333-0.0000  plane waves:   24927
 k-point  8 :   0.0000 0.0000 0.3333  plane waves:   24872
 k-point  9 :   0.2500 0.0000 0.3333  plane waves:   24913
 k-point 10 :   0.5000 0.0000 0.3333  plane waves:   24924
 k-point 11 :  -0.2500 0.0000 0.3333  plane waves:   24928
 k-point 12 :   0.0000 0.3333 0.3333  plane waves:   24903
 k-point 13 :   0.2500 0.3333 0.3333  plane waves:   24901
 k-point 14 :   0.5000 0.3333 0.3333  plane waves:   24924
 k-point 15 :  -0.2500 0.3333 0.3333  plane waves:   24916
 k-point 16 :   0.0000-0.3333 0.3333  plane waves:   24903
 k-point 17 :   0.2500-0.3333 0.3333  plane waves:   24901
 k-point 18 :   0.5000-0.3333 0.3333  plane waves:   24924
 k-point 19 :  -0.2500-0.3333 0.3333  plane waves:   24916

 maximum and minimum number of plane-waves per node :     24968    24843

 maximum number of plane-waves:     24968
 maximum index in each direction: 
   IXMAX=   17   IYMAX=   20   IZMAX=   21
   IXMIN=  -17   IYMIN=  -20   IZMIN=  -21

 The following grids will avoid any aliasing or wrap around errors in the Hartre
 e energy
  - symmetry arguments have not been applied
  - exchange correlation energies might require even more grid points
  - we recommend to set PREC=Normal or Accurate and rely on VASP defaults
 NGX is ok and might be reduce to    70
 WARNING: aliasing errors must be expected set NGY to    84 to avoid them
 NGZ is ok and might be reduce to    90

 serial   3D FFT for wavefunctions
 parallel 3D FFT for charge:
    minimum data exchange during FFTs selected (reduces bandwidth)


 total amount of memory used by VASP MPI-rank0   567375. kBytes
=======================================================================

   base      :      30000. kBytes
   nonlr-proj:      52662. kBytes
   fftplans  :      10810. kBytes
   grid      :      61419. kBytes
   one-center:       2488. kBytes
   wavefun   :     409996. kBytes
 
     INWAV:  cpu time    0.0000: real time    0.0000
 Broyden mixing: mesh for mixing (old mesh)
   NGX = 33   NGY = 39   NGZ = 43
  (NGX  =140   NGY  =160   NGZ  =180)
  gives a total of  55341 points

 initial charge density was supplied:
 charge density of overlapping atoms calculated
 number of electron     608.0000000 magnetization      80.0000000
 keeping initial charge density in first step


--------------------------------------------------------------------------------------------------------


 Maximum index for non-local projection operator         6705
 Maximum index for augmentation-charges         1184 (set IRDMAX)


--------------------------------------------------------------------------------------------------------


 First call to EWALD:  gamma=   0.178
 Maximum number of real-space cells 3x 3x 3
 Maximum number of reciprocal cells 3x 3x 3

    FEWALD:  cpu time    0.0037: real time    0.0037


--------------------------------------- Iteration      1(   1)  ---------------------------------------


    POTLOK:  cpu time    0.2838: real time    0.2859
    SETDIJ:  cpu time    0.0272: real time    0.0272
     EDDAV:  cpu time  126.4336: real time  127.0452
    --------------------------------------------
      LOOP:  cpu time  126.7471: real time  127.3609

 eigenvalue-minimisations  : 31616
 total energy-change (2. order) : 0.7518502E+04  (-0.2577531E+05)
 number of electron     608.0000000 magnetization      80.0000000
 augmentation part      608.0000000 magnetization      80.0000000

 Free energy of the ion-electron system (eV)
  ---------------------------------------------------
  alpha Z        PSCENC =      1699.99176552
  Ewald energy   TEWEN  =    -35870.00655956
  -Hartree energ DENC   =    -20138.66437749
  -exchange      EXHF   =         0.00000000
  -V(xc)+E(xc)   XCENC  =      2383.39884213
  PAW double counting   =     47387.14975297   -49597.44882166
  entropy T*S    EENTRO =        -0.01329667
  eigenvalues    EBANDS =      6516.88128406
  atomic energy  EATOM  =     55137.21312455
  Solvation  Ediel_sol  =         0.00000000
  ---------------------------------------------------
  free energy    TOTEN  =      7518.50171384 eV

  energy without entropy =     7518.51501051  energy(sigma->0) =     7518.50836218


--------------------------------------------------------------------------------------------------------




--------------------------------------- Iteration      1(   2)  ---------------------------------------


     EDDAV:  cpu time  125.8994: real time  126.1983
    --------------------------------------------
      LOOP:  cpu time  125.8994: real time  126.1983

 eigenvalue-minimisations  : 31616
 total energy-change (2. order) :-0.6378490E+04  (-0.5766713E+04)
 number of electron     608.0000000 magnetization      80.0000000
 augmentation part      608.0000000 magnetization      80.0000000

 Free energy of the ion-electron system (eV)
  ---------------------------------------------------
  alpha Z        PSCENC =      1699.99176552
  Ewald energy   TEWEN  =    -35870.00655956
  -Hartree energ DENC   =    -20138.66437749
  -exchange      EXHF   =         0.00000000
  -V(xc)+E(xc)   XCENC  =      2383.39884213
  PAW double counting   =     47387.14975297   -49597.44882166
  entropy T*S    EENTRO =        -0.04087934
  eigenvalues    EBANDS =       138.41898240
  atomic energy  EATOM  =     55137.21312455
  Solvation  Ediel_sol  =         0.00000000
  ---------------------------------------------------
  free energy    TOTEN  =      1140.01182951 eV

  energy without entropy =     1140.05270885  energy(sigma->0) =     1140.03226918


--------------------------------------------------------------------------------------------------------




--------------------------------------- Iteration      1(   3)  ---------------------------------------


     EDDAV:  cpu time  128.1111: real time  128.4151
    --------------------------------------------
      LOOP:  cpu time  128.1112: real time  128.4152

 eigenvalue-minimisations  : 32288
 total energy-change (2. order) :-0.1582286E+04  (-0.1414862E+04)
 number of electron     608.0000000 magnetization      80.0000000
 augmentation part      608.0000000 magnetization      80.0000000

 Free energy of the ion-electron system (eV)
  ---------------------------------------------------
  alpha Z        PSCENC =      1699.99176552
  Ewald energy   TEWEN  =    -35870.00655956
  -Hartree energ DENC   =    -20138.66437749
  -exchange      EXHF   =         0.00000000
  -V(xc)+E(xc)   XCENC  =      2383.39884213
  PAW double counting   =     47387.14975297   -49597.44882166
  entropy T*S    EENTRO =        -0.11120613
  eigenvalues    EBANDS =     -1443.79655577
  atomic energy  EATOM  =     55137.21312455
  Solvation  Ediel_sol  =         0.00000000
  ---------------------------------------------------
  free energy    TOTEN  =      -442.27403545 eV

  energy without entropy =     -442.16282932  energy(sigma->0) =     -442.21843239


--------------------------------------------------------------------------------------------------------




--------------------------------------- Iteration      1(   4)  ---------------------------------------


     EDDAV:  cpu time  138.5267: real time  138.8554
    --------------------------------------------
      LOOP:  cpu time  138.5267: real time  138.8555

 eigenvalue-minimisations  : 35760
 total energy-change (2. order) :-0.1892585E+03  (-0.1815615E+03)
 number of electron     608.0000000 magnetization      80.0000000
 augmentation part      608.0000000 magnetization      80.0000000

 Free energy of the ion-electron system (eV)
  ---------------------------------------------------
  alpha Z        PSCENC =      1699.99176552
  Ewald energy   TEWEN  =    -35870.00655956
  -Hartree energ DENC   =    -20138.66437749
  -exchange      EXHF   =         0.00000000
  -V(xc)+E(xc)   XCENC  =      2383.39884213
  PAW double counting   =     47387.14975297   -49597.44882166
  entropy T*S    EENTRO =        -0.12968950
  eigenvalues    EBANDS =     -1633.03653074
  atomic energy  EATOM  =     55137.21312455
  Solvation  Ediel_sol  =         0.00000000
  ---------------------------------------------------
  free energy    TOTEN  =      -631.53249379 eV

  energy without entropy =     -631.40280429  energy(sigma->0) =     -631.46764904


--------------------------------------------------------------------------------------------------------




--------------------------------------- Iteration      1(   5)  ---------------------------------------


     EDDAV:  cpu time  136.6837: real time  137.0082
    CHARGE:  cpu time    5.7676: real time    5.7813
    MIXING:  cpu time    0.0054: real time    0.0054
    --------------------------------------------
      LOOP:  cpu time  142.4540: real time  142.7921

 eigenvalue-minimisations  : 35152
 total energy-change (2. order) :-0.5730019E+01  (-0.5683091E+01)
 number of electron     608.0000001 magnetization      84.3390717
 augmentation part      200.9694132 magnetization      59.9106310

 Broyden mixing:
  rms(total) = 0.16691E+02    rms(broyden)= 0.16689E+02
  rms(prec ) = 0.18708E+02
  weight for this iteration     100.00

 Free energy of the ion-electron system (eV)
  ---------------------------------------------------
  alpha Z        PSCENC =      1699.99176552
  Ewald energy   TEWEN  =    -35870.00655956
  -Hartree energ DENC   =    -20138.66437749
  -exchange      EXHF   =         0.00000000
  -V(xc)+E(xc)   XCENC  =      2383.39884213
  PAW double counting   =     47387.14975297   -49597.44882166
  entropy T*S    EENTRO =        -0.12980320
  eigenvalues    EBANDS =     -1638.76643559
  atomic energy  EATOM  =     55137.21312455
  Solvation  Ediel_sol  =         0.00000000
  ---------------------------------------------------
  free energy    TOTEN  =      -637.26251234 eV

  energy without entropy =     -637.13270914  energy(sigma->0) =     -637.19761074


--------------------------------------------------------------------------------------------------------




--------------------------------------- Iteration      1(   6)  ---------------------------------------


    POTLOK:  cpu time    0.2626: real time    0.2633
    SETDIJ:  cpu time    0.0285: real time    0.0285
     EDDAV:  cpu time  172.2671: real time  172.6761
    CHARGE:  cpu time    5.6301: real time    5.6435
    MIXING:  cpu time    0.0055: real time    0.0055
    --------------------------------------------
      LOOP:  cpu time  178.1938: real time  178.6169

 eigenvalue-minimisations  : 47152
 total energy-change (2. order) :-0.4656705E+02  (-0.1250592E+03)
 number of electron     608.0000023 magnetization      75.0129888
 augmentation part      257.5913664 magnetization      67.7261475

 Broyden mixing:
  rms(total) = 0.24105E+02    rms(broyden)= 0.24104E+02
  rms(prec ) = 0.26363E+02
  weight for this iteration     100.00

 eigenvalues of (default mixing * dielectric matrix)
  average eigenvalue GAMMA=   0.2771
  0.2771

 Free energy of the ion-electron system (eV)
  ---------------------------------------------------
  alpha Z        PSCENC =      1699.99176552
  Ewald energy   TEWEN  =    -35870.00655956
  -Hartree energ DENC   =    -19335.15989061
  -exchange      EXHF   =         0.00000000
  -V(xc)+E(xc)   XCENC  =      2397.94585865
  PAW double counting   =     53016.05224848   -54949.07628350
  entropy T*S    EENTRO =        -0.07054952
  eigenvalues    EBANDS =     -2780.71927666
  atomic energy  EATOM  =     55137.21312455
  Solvation  Ediel_sol  =         0.00000000
  ---------------------------------------------------
  free energy    TOTEN  =      -683.82956264 eV

  energy without entropy =     -683.75901313  energy(sigma->0) =     -683.79428788


--------------------------------------------------------------------------------------------------------




--------------------------------------- Iteration      1(   7)  ---------------------------------------


    POTLOK:  cpu time    0.2550: real time    0.2556
    SETDIJ:  cpu time    0.0278: real time    0.0279
     EDDAV:  cpu time  161.7288: real time  162.1126
    CHARGE:  cpu time    5.7121: real time    5.7257
    MIXING:  cpu time    0.0055: real time    0.0055
    --------------------------------------------
      LOOP:  cpu time  167.7293: real time  168.1273

 eigenvalue-minimisations  : 43728
 total energy-change (2. order) : 0.2077026E+03  (-0.4514715E+02)
 number of electron     608.0000009 magnetization      65.4310250
 augmentation part      230.4303212 magnetization      50.4156369

 Broyden mixing:
  rms(total) = 0.83118E+01    rms(broyden)= 0.83098E+01
  rms(prec ) = 0.96789E+01
  weight for this iteration     100.00

 eigenvalues of (default mixing * dielectric matrix)
  average eigenvalue GAMMA=   0.5875
  0.5875  0.5875

 Free energy of the ion-electron system (eV)
  ---------------------------------------------------
  alpha Z        PSCENC =      1699.99176552
  Ewald energy   TEWEN  =    -35870.00655956
  -Hartree energ DENC   =    -19719.00566261
  -exchange      EXHF   =         0.00000000
  -V(xc)+E(xc)   XCENC  =      2377.04215327
  PAW double counting   =     55487.02257597   -57660.20339715
  entropy T*S    EENTRO =        -0.08843698
  eigenvalues    EBANDS =     -1928.09256303
  atomic energy  EATOM  =     55137.21312455
  Solvation  Ediel_sol  =         0.00000000
  ---------------------------------------------------
  free energy    TOTEN  =      -476.12700002 eV

  energy without entropy =     -476.03856304  energy(sigma->0) =     -476.08278153


--------------------------------------------------------------------------------------------------------




--------------------------------------- Iteration      1(   8)  ---------------------------------------


    POTLOK:  cpu time    0.2598: real time    0.2604
    SETDIJ:  cpu time    0.0279: real time    0.0280
     EDDAV:  cpu time  173.5087: real time  173.9203
    CHARGE:  cpu time    5.7271: real time    5.7407
    MIXING:  cpu time    0.0057: real time    0.0058
    --------------------------------------------
      LOOP:  cpu time  179.5293: real time  179.9552

 eigenvalue-minimisations  : 47360
 total energy-change (2. order) :-0.1354606E+03  (-0.2273721E+02)
 number of electron     608.0000022 magnetization      59.2430821
 augmentation part      222.4112575 magnetization      50.8782941

 Broyden mixing:
  rms(total) = 0.18162E+02    rms(broyden)= 0.18161E+02
  rms(prec ) = 0.23780E+02
  weight for this iteration     100.00

 eigenvalues of (default mixing * dielectric matrix)
  average eigenvalue GAMMA=   0.4858
  0.7802  0.5389  0.1384

 Free energy of the ion-electron system (eV)
  ---------------------------------------------------
  alpha Z        PSCENC =      1699.99176552
  Ewald energy   TEWEN  =    -35870.00655956
  -Hartree energ DENC   =    -19653.74168180
  -exchange      EXHF   =         0.00000000
  -V(xc)+E(xc)   XCENC  =      2364.91493730
  PAW double counting   =     57907.00738946   -60170.76083423
  entropy T*S    EENTRO =        -0.06707437
  eigenvalues    EBANDS =     -2026.13867209
  atomic energy  EATOM  =     55137.21312455
  Solvation  Ediel_sol  =         0.00000000
  ---------------------------------------------------
  free energy    TOTEN  =      -611.58760522 eV

  energy without entropy =     -611.52053085  energy(sigma->0) =     -611.55406804


--------------------------------------------------------------------------------------------------------




--------------------------------------- Iteration      1(   9)  ---------------------------------------


    POTLOK:  cpu time    0.2629: real time    0.2636
    SETDIJ:  cpu time    0.0281: real time    0.0282
     EDDAV:  cpu time  164.1012: real time  164.4905
    CHARGE:  cpu time    5.7071: real time    5.7206
    MIXING:  cpu time    0.0059: real time    0.0059
    --------------------------------------------
      LOOP:  cpu time  170.1051: real time  170.5088

 eigenvalue-minimisations  : 44432
 total energy-change (2. order) : 0.7956943E+02  (-0.2422125E+02)
 number of electron     608.0000012 magnetization      53.7493867
 augmentation part      224.0904219 magnetization      43.6557024

 Broyden mixing:
  rms(total) = 0.12220E+02    rms(broyden)= 0.12219E+02
  rms(prec ) = 0.16144E+02
  weight for this iteration     100.00

 eigenvalues of (default mixing * dielectric matrix)
  average eigenvalue GAMMA=   0.4577
  0.9455  0.5282  0.1785  0.1785

 Free energy of the ion-electron system (eV)
  ---------------------------------------------------
  alpha Z        PSCENC =      1699.99176552
  Ewald energy   TEWEN  =    -35870.00655956
  -Hartree energ DENC   =    -19648.30992686
  -exchange      EXHF   =         0.00000000
  -V(xc)+E(xc)   XCENC  =      2361.58880484
  PAW double counting   =     59346.89123041   -61648.13441625
  entropy T*S    EENTRO =        -0.08907270
  eigenvalues    EBANDS =     -1911.16312421
  atomic energy  EATOM  =     55137.21312455
  Solvation  Ediel_sol  =         0.00000000
  ---------------------------------------------------
  free energy    TOTEN  =      -532.01817427 eV

  energy without entropy =     -531.92910157  energy(sigma->0) =     -531.97363792


--------------------------------------------------------------------------------------------------------




--------------------------------------- Iteration      1(  10)  ---------------------------------------


    POTLOK:  cpu time    0.2526: real time    0.2532
    SETDIJ:  cpu time    0.0278: real time    0.0279
     EDDAV:  cpu time  156.9934: real time  157.3660
    CHARGE:  cpu time    5.7167: real time    5.7302
    MIXING:  cpu time    0.0061: real time    0.0061
    --------------------------------------------
      LOOP:  cpu time  162.9966: real time  163.3835

 eigenvalue-minimisations  : 42128
 total energy-change (2. order) : 0.2729233E+02  (-0.1461896E+02)
 number of electron     608.0000008 magnetization      47.2772958
 augmentation part      221.8984634 magnetization      36.1416654

 Broyden mixing:
  rms(total) = 0.10093E+02    rms(broyden)= 0.10092E+02
  rms(prec ) = 0.13435E+02
  weight for this iteration     100.00

 eigenvalues of (default mixing * dielectric matrix)
  average eigenvalue GAMMA=   0.4701
  1.2189  0.5096  0.2567  0.2567  0.1087

 Free energy of the ion-electron system (eV)
  ---------------------------------------------------
  alpha Z        PSCENC =      1699.99176552
  Ewald energy   TEWEN  =    -35870.00655956
  -Hartree energ DENC   =    -19645.53696555
  -exchange      EXHF   =         0.00000000
  -V(xc)+E(xc)   XCENC  =      2360.72576884
  PAW double counting   =     60535.24457859   -62858.32216968
  entropy T*S    EENTRO =        -0.09119625
  eigenvalues    EBANDS =     -1863.94418632
  atomic energy  EATOM  =     55137.21312455
  Solvation  Ediel_sol  =         0.00000000
  ---------------------------------------------------
  free energy    TOTEN  =      -504.72583986 eV

  energy without entropy =     -504.63464361  energy(sigma->0) =     -504.68024173


--------------------------------------------------------------------------------------------------------




--------------------------------------- Iteration      1(  11)  ---------------------------------------


    POTLOK:  cpu time    0.2611: real time    0.2617
    SETDIJ:  cpu time    0.0277: real time    0.0278
     EDDAV:  cpu time  154.0012: real time  154.3667
    CHARGE:  cpu time    5.8319: real time    5.8457
    MIXING:  cpu time    0.0064: real time    0.0064
    --------------------------------------------
      LOOP:  cpu time  160.1283: real time  160.5083

 eigenvalue-minimisations  : 40928
 total energy-change (2. order) : 0.7142868E+01  (-0.1136929E+02)
 number of electron     608.0000006 magnetization      42.3917564
 augmentation part      220.8687584 magnetization      33.5027120

 Broyden mixing:
  rms(total) = 0.10955E+02    rms(broyden)= 0.10954E+02
  rms(prec ) = 0.15024E+02
  weight for this iteration     100.00

 eigenvalues of (default mixing * dielectric matrix)
  average eigenvalue GAMMA=   0.4832
  1.4890  0.4868  0.3520  0.3520  0.1097  0.1097

 Free energy of the ion-electron system (eV)
  ---------------------------------------------------
  alpha Z        PSCENC =      1699.99176552
  Ewald energy   TEWEN  =    -35870.00655956
  -Hartree energ DENC   =    -19624.55283559
  -exchange      EXHF   =         0.00000000
  -V(xc)+E(xc)   XCENC  =      2360.48048811
  PAW double counting   =     61891.04009779   -64229.99504341
  entropy T*S    EENTRO =        -0.10066699
  eigenvalues    EBANDS =     -1861.65334216
  atomic energy  EATOM  =     55137.21312455
  Solvation  Ediel_sol  =         0.00000000
  ---------------------------------------------------
  free energy    TOTEN  =      -497.58297173 eV

  energy without entropy =     -497.48230474  energy(sigma->0) =     -497.53263823


--------------------------------------------------------------------------------------------------------




--------------------------------------- Iteration      1(  12)  ---------------------------------------


    POTLOK:  cpu time    0.2619: real time    0.2625
    SETDIJ:  cpu time    0.0284: real time    0.0284
     EDDAV:  cpu time  154.3267: real time  154.6928
    CHARGE:  cpu time    5.7463: real time    5.7600
    MIXING:  cpu time    0.0066: real time    0.0067
    --------------------------------------------
      LOOP:  cpu time  160.3699: real time  160.7504

 eigenvalue-minimisations  : 41056
 total energy-change (2. order) : 0.1866475E+02  (-0.1030367E+02)
 number of electron     608.0000010 magnetization      39.7651068
 augmentation part      223.2743476 magnetization      31.2385419

 Broyden mixing:
  rms(total) = 0.89766E+01    rms(broyden)= 0.89759E+01
  rms(prec ) = 0.12095E+02
  weight for this iteration     100.00

 eigenvalues of (default mixing * dielectric matrix)
  average eigenvalue GAMMA=   0.4580
  1.5716  0.4946  0.3998  0.3998  0.1165  0.1165  0.1069

 Free energy of the ion-electron system (eV)
  ---------------------------------------------------
  alpha Z        PSCENC =      1699.99176552
  Ewald energy   TEWEN  =    -35870.00655956
  -Hartree energ DENC   =    -19614.55415001
  -exchange      EXHF   =         0.00000000
  -V(xc)+E(xc)   XCENC  =      2360.44719789
  PAW double counting   =     62736.11961886   -65081.43008838
  entropy T*S    EENTRO =        -0.09842677
  eigenvalues    EBANDS =     -1846.60070575
  atomic energy  EATOM  =     55137.21312455
  Solvation  Ediel_sol  =         0.00000000
  ---------------------------------------------------
  free energy    TOTEN  =      -478.91822366 eV

  energy without entropy =     -478.81979689  energy(sigma->0) =     -478.86901028


--------------------------------------------------------------------------------------------------------




--------------------------------------- Iteration      1(  13)  ---------------------------------------


    POTLOK:  cpu time    0.2552: real time    0.2559
    SETDIJ:  cpu time    0.0273: real time    0.0274
     EDDAV:  cpu time  152.1465: real time  152.5076
    CHARGE:  cpu time    5.7787: real time    5.7925
    MIXING:  cpu time    0.0073: real time    0.0073
    --------------------------------------------
      LOOP:  cpu time  158.2151: real time  158.5906

 eigenvalue-minimisations  : 40416
 total energy-change (2. order) : 0.1658085E+02  (-0.5881356E+01)
 number of electron     608.0000016 magnetization      36.8867008
 augmentation part      224.2376691 magnetization      27.2151821

 Broyden mixing:
  rms(total) = 0.72390E+01    rms(broyden)= 0.72384E+01
  rms(prec ) = 0.98383E+01
  weight for this iteration     100.00

 eigenvalues of (default mixing * dielectric matrix)
  average eigenvalue GAMMA=   0.4474
  1.7014  0.4822  0.4822  0.4336  0.1373  0.1299  0.1299  0.0830

 Free energy of the ion-electron system (eV)
  ---------------------------------------------------
  alpha Z        PSCENC =      1699.99176552
  Ewald energy   TEWEN  =    -35870.00655956
  -Hartree energ DENC   =    -19609.60694232
  -exchange      EXHF   =         0.00000000
  -V(xc)+E(xc)   XCENC  =      2360.33922886
  PAW double counting   =     63064.37732622   -65410.18971928
  entropy T*S    EENTRO =        -0.09712214
  eigenvalues    EBANDS =     -1834.35847060
  atomic energy  EATOM  =     55137.21312455
  Solvation  Ediel_sol  =         0.00000000
  ---------------------------------------------------
  free energy    TOTEN  =      -462.33736876 eV

  energy without entropy =     -462.24024662  energy(sigma->0) =     -462.28880769


--------------------------------------------------------------------------------------------------------




--------------------------------------- Iteration      1(  14)  ---------------------------------------


    POTLOK:  cpu time    0.2559: real time    0.2565
    SETDIJ:  cpu time    0.0283: real time    0.0284
     EDDAV:  cpu time  146.0426: real time  146.3891
    CHARGE:  cpu time    5.7838: real time    5.7976
    MIXING:  cpu time    0.0072: real time    0.0072
    --------------------------------------------
      LOOP:  cpu time  152.1179: real time  152.4788

 eigenvalue-minimisations  : 38240
 total energy-change (2. order) : 0.3457334E+01  (-0.4288330E+01)
 number of electron     608.0000010 magnetization      33.9112713
 augmentation part      224.4778517 magnetization      24.6414319

 Broyden mixing:
  rms(total) = 0.54338E+01    rms(broyden)= 0.54333E+01
  rms(prec ) = 0.74123E+01
  weight for this iteration     100.00

 eigenvalues of (default mixing * dielectric matrix)
  average eigenvalue GAMMA=   0.4368
  1.7881  0.5298  0.5298  0.3996  0.2418  0.1302  0.1302  0.1036  0.0778

 Free energy of the ion-electron system (eV)
  ---------------------------------------------------
  alpha Z        PSCENC =      1699.99176552
  Ewald energy   TEWEN  =    -35870.00655956
  -Hartree energ DENC   =    -19630.74148739
  -exchange      EXHF   =         0.00000000
  -V(xc)+E(xc)   XCENC  =      2360.17747444
  PAW double counting   =     63440.48800513   -65792.69100570
  entropy T*S    EENTRO =        -0.10247387
  eigenvalues    EBANDS =     -1803.20887799
  atomic energy  EATOM  =     55137.21312455
  Solvation  Ediel_sol  =         0.00000000
  ---------------------------------------------------
  free energy    TOTEN  =      -458.88003487 eV

  energy without entropy =     -458.77756100  energy(sigma->0) =     -458.82879793


--------------------------------------------------------------------------------------------------------




--------------------------------------- Iteration      1(  15)  ---------------------------------------


    POTLOK:  cpu time    0.2564: real time    0.2570
    SETDIJ:  cpu time    0.0279: real time    0.0279
     EDDAV:  cpu time  147.9182: real time  148.2691
    CHARGE:  cpu time    5.8102: real time    5.8240
    MIXING:  cpu time    0.0078: real time    0.0078
    --------------------------------------------
      LOOP:  cpu time  154.0204: real time  154.3859

 eigenvalue-minimisations  : 38960
 total energy-change (2. order) :-0.6383686E+00  (-0.3206409E+01)
 number of electron     608.0000008 magnetization      30.8959937
 augmentation part      224.3322095 magnetization      21.9168867

 Broyden mixing:
  rms(total) = 0.42161E+01    rms(broyden)= 0.42154E+01
  rms(prec ) = 0.57095E+01
  weight for this iteration     100.00

 eigenvalues of (default mixing * dielectric matrix)
  average eigenvalue GAMMA=   0.4364
  1.8318  0.5894  0.5894  0.3990  0.3990  0.1306  0.1306  0.1192  0.0918  0.0833

 Free energy of the ion-electron system (eV)
  ---------------------------------------------------
  alpha Z        PSCENC =      1699.99176552
  Ewald energy   TEWEN  =    -35870.00655956
  -Hartree energ DENC   =    -19649.59773021
  -exchange      EXHF   =         0.00000000
  -V(xc)+E(xc)   XCENC  =      2359.84166512
  PAW double counting   =     63776.56185961   -66133.75938912
  entropy T*S    EENTRO =        -0.09948718
  eigenvalues    EBANDS =     -1779.66365225
  atomic energy  EATOM  =     55137.21312455
  Solvation  Ediel_sol  =         0.00000000
  ---------------------------------------------------
  free energy    TOTEN  =      -459.51840351 eV

  energy without entropy =     -459.41891633  energy(sigma->0) =     -459.46865992


--------------------------------------------------------------------------------------------------------




--------------------------------------- Iteration      1(  16)  ---------------------------------------


    POTLOK:  cpu time    0.2582: real time    0.2588
    SETDIJ:  cpu time    0.0278: real time    0.0278
     EDDAV:  cpu time  149.2015: real time  149.5555
    CHARGE:  cpu time    5.8344: real time    5.8482
    MIXING:  cpu time    0.0120: real time    0.5489
    --------------------------------------------
      LOOP:  cpu time  155.3339: real time  156.2392

 eigenvalue-minimisations  : 39344
 total energy-change (2. order) : 0.3485295E+01  (-0.1552968E+01)
 number of electron     608.0000007 magnetization      29.3516223
 augmentation part      224.1733258 magnetization      21.1466389

 Broyden mixing:
  rms(total) = 0.25383E+01    rms(broyden)= 0.25376E+01
  rms(prec ) = 0.33381E+01
  weight for this iteration     100.00

 eigenvalues of (default mixing * dielectric matrix)
  average eigenvalue GAMMA=   0.4287
  1.8795  0.6323  0.6323  0.4124  0.4124  0.2019  0.1269  0.1269  0.1104  0.1008
  0.0804

 Free energy of the ion-electron system (eV)
  ---------------------------------------------------
  alpha Z        PSCENC =      1699.99176552
  Ewald energy   TEWEN  =    -35870.00655956
  -Hartree energ DENC   =    -19656.39239937
  -exchange      EXHF   =         0.00000000
  -V(xc)+E(xc)   XCENC  =      2359.17795956
  PAW double counting   =     64069.70088065   -66429.06378927
  entropy T*S    EENTRO =        -0.10505198
  eigenvalues    EBANDS =     -1766.54903899
  atomic energy  EATOM  =     55137.21312455
  Solvation  Ediel_sol  =         0.00000000
  ---------------------------------------------------
  free energy    TOTEN  =      -456.03310890 eV

  energy without entropy =     -455.92805693  energy(sigma->0) =     -455.98058292


--------------------------------------------------------------------------------------------------------




--------------------------------------- Iteration      1(  17)  ---------------------------------------


    POTLOK:  cpu time    0.2592: real time    0.2599
    SETDIJ:  cpu time    0.0281: real time    0.0282
     EDDAV:  cpu time  155.4955: real time  155.8645
    CHARGE:  cpu time    5.7796: real time    5.7934
    MIXING:  cpu time    0.0083: real time    0.0083
    --------------------------------------------
      LOOP:  cpu time  161.5707: real time  161.9541

 eigenvalue-minimisations  : 41456
 total energy-change (2. order) : 0.8401524E-01  (-0.8349106E+00)
 number of electron     608.0000010 magnetization      27.3057625
 augmentation part      223.8901936 magnetization      19.3681855

 Broyden mixing:
  rms(total) = 0.21053E+01    rms(broyden)= 0.21049E+01
  rms(prec ) = 0.27159E+01
  weight for this iteration     100.00

 eigenvalues of (default mixing * dielectric matrix)
  average eigenvalue GAMMA=   0.4302
  1.9292  0.6886  0.6886  0.4486  0.4486  0.3002  0.1348  0.1348  0.1095  0.1095
  0.0850  0.0850

 Free energy of the ion-electron system (eV)
  ---------------------------------------------------
  alpha Z        PSCENC =      1699.99176552
  Ewald energy   TEWEN  =    -35870.00655956
  -Hartree energ DENC   =    -19658.30749055
  -exchange      EXHF   =         0.00000000
  -V(xc)+E(xc)   XCENC  =      2358.70065329
  PAW double counting   =     64209.58733081   -66569.44148854
  entropy T*S    EENTRO =        -0.10809372
  eigenvalues    EBANDS =     -1763.57833548
  atomic energy  EATOM  =     55137.21312455
  Solvation  Ediel_sol  =         0.00000000
  ---------------------------------------------------
  free energy    TOTEN  =      -455.94909367 eV

  energy without entropy =     -455.84099995  energy(sigma->0) =     -455.89504681


--------------------------------------------------------------------------------------------------------




--------------------------------------- Iteration      1(  18)  ---------------------------------------


    POTLOK:  cpu time    0.2547: real time    0.2553
    SETDIJ:  cpu time    0.0276: real time    0.0276
     EDDAV:  cpu time  159.4339: real time  159.8121
    CHARGE:  cpu time    5.8285: real time    5.8423
    MIXING:  cpu time    0.0085: real time    0.0085
    --------------------------------------------
      LOOP:  cpu time  165.5532: real time  165.9459

 eigenvalue-minimisations  : 42864
 total energy-change (2. order) :-0.3093473E+00  (-0.4360405E+00)
 number of electron     608.0000008 magnetization      26.2032936
 augmentation part      223.8189752 magnetization      18.5479763

 Broyden mixing:
  rms(total) = 0.16813E+01    rms(broyden)= 0.16811E+01
  rms(prec ) = 0.20895E+01
  weight for this iteration     100.00

 eigenvalues of (default mixing * dielectric matrix)
  average eigenvalue GAMMA=   0.4207
  1.9483  0.6999  0.6999  0.4862  0.4862  0.3053  0.1869  0.1437  0.1210  0.1210
  0.0819  0.0963  0.0919

 Free energy of the ion-electron system (eV)
  ---------------------------------------------------
  alpha Z        PSCENC =      1699.99176552
  Ewald energy   TEWEN  =    -35870.00655956
  -Hartree energ DENC   =    -19658.79794141
  -exchange      EXHF   =         0.00000000
  -V(xc)+E(xc)   XCENC  =      2358.20099228
  PAW double counting   =     64369.87602602   -66728.98140605
  entropy T*S    EENTRO =        -0.10716413
  eigenvalues    EBANDS =     -1763.64727819
  atomic energy  EATOM  =     55137.21312455
  Solvation  Ediel_sol  =         0.00000000
  ---------------------------------------------------
  free energy    TOTEN  =      -456.25844097 eV

  energy without entropy =     -456.15127684  energy(sigma->0) =     -456.20485890


--------------------------------------------------------------------------------------------------------




--------------------------------------- Iteration      1(  19)  ---------------------------------------


    POTLOK:  cpu time    0.2625: real time    0.2631
    SETDIJ:  cpu time    0.0283: real time    0.0284
     EDDAV:  cpu time  151.0750: real time  151.4335
    CHARGE:  cpu time    5.8289: real time    5.8428
    MIXING:  cpu time    0.0087: real time    0.0088
    --------------------------------------------
      LOOP:  cpu time  157.2035: real time  157.5765

 eigenvalue-minimisations  : 39936
 total energy-change (2. order) :-0.3891300E+00  (-0.3325207E+00)
 number of electron     608.0000008 magnetization      23.7972379
 augmentation part      223.8630769 magnetization      16.1739030

 Broyden mixing:
  rms(total) = 0.14365E+01    rms(broyden)= 0.14363E+01
  rms(prec ) = 0.18175E+01
  weight for this iteration     100.00

 eigenvalues of (default mixing * dielectric matrix)
  average eigenvalue GAMMA=   0.4406
  1.9268  0.8238  0.8238  0.5525  0.5525  0.3646  0.3646  0.1288  0.1288  0.1313
  0.1018  0.1018  0.0838  0.0838

 Free energy of the ion-electron system (eV)
  ---------------------------------------------------
  alpha Z        PSCENC =      1699.99176552
  Ewald energy   TEWEN  =    -35870.00655956
  -Hartree energ DENC   =    -19658.33288848
  -exchange      EXHF   =         0.00000000
  -V(xc)+E(xc)   XCENC  =      2357.94054710
  PAW double counting   =     64440.03389133   -66797.93727167
  entropy T*S    EENTRO =        -0.10730347
  eigenvalues    EBANDS =     -1765.44287631
  atomic energy  EATOM  =     55137.21312455
  Solvation  Ediel_sol  =         0.00000000
  ---------------------------------------------------
  free energy    TOTEN  =      -456.64757098 eV

  energy without entropy =     -456.54026751  energy(sigma->0) =     -456.59391924


--------------------------------------------------------------------------------------------------------




--------------------------------------- Iteration      1(  20)  ---------------------------------------


    POTLOK:  cpu time    0.2585: real time    0.2591
    SETDIJ:  cpu time    0.0283: real time    0.0284
     EDDAV:  cpu time  157.3663: real time  157.7397
    CHARGE:  cpu time    5.7956: real time    5.8094
    MIXING:  cpu time    0.0091: real time    0.0091
    --------------------------------------------
      LOOP:  cpu time  163.4578: real time  163.8457

 eigenvalue-minimisations  : 42064
 total energy-change (2. order) :-0.8982793E+00  (-0.3006548E+00)
 number of electron     608.0000009 magnetization      22.6704595
 augmentation part      223.9624783 magnetization      15.2923576

 Broyden mixing:
  rms(total) = 0.15151E+01    rms(broyden)= 0.15149E+01
  rms(prec ) = 0.20707E+01
  weight for this iteration     100.00

 eigenvalues of (default mixing * dielectric matrix)
  average eigenvalue GAMMA=   0.4348
  1.9031  0.8839  0.8839  0.5687  0.5687  0.3853  0.3853  0.2006  0.1318  0.1318
  0.1101  0.1101  0.0918  0.0837  0.0837

 Free energy of the ion-electron system (eV)
  ---------------------------------------------------
  alpha Z        PSCENC =      1699.99176552
  Ewald energy   TEWEN  =    -35870.00655956
  -Hartree energ DENC   =    -19653.77158873
  -exchange      EXHF   =         0.00000000
  -V(xc)+E(xc)   XCENC  =      2357.27477277
  PAW double counting   =     64525.69512747   -66877.90727703
  entropy T*S    EENTRO =        -0.10533481
  eigenvalues    EBANDS =     -1775.92988044
  atomic energy  EATOM  =     55137.21312455
  Solvation  Ediel_sol  =         0.00000000
  ---------------------------------------------------
  free energy    TOTEN  =      -457.54585025 eV

  energy without entropy =     -457.44051545  energy(sigma->0) =     -457.49318285


--------------------------------------------------------------------------------------------------------




--------------------------------------- Iteration      1(  21)  ---------------------------------------


    POTLOK:  cpu time    0.2530: real time    0.2536
    SETDIJ:  cpu time    0.0273: real time    0.0274
     EDDAV:  cpu time  160.0834: real time  160.4633
    CHARGE:  cpu time    5.8361: real time    5.8500
    MIXING:  cpu time    0.0095: real time    0.0095
    --------------------------------------------
      LOOP:  cpu time  166.2093: real time  166.6038

 eigenvalue-minimisations  : 43024
 total energy-change (2. order) : 0.3498472E-01  (-0.2838552E+00)
 number of electron     608.0000009 magnetization      20.4996251
 augmentation part      223.9241591 magnetization      13.4368862

 Broyden mixing:
  rms(total) = 0.12967E+01    rms(broyden)= 0.12964E+01
  rms(prec ) = 0.17377E+01
  weight for this iteration     100.00

 eigenvalues of (default mixing * dielectric matrix)
  average eigenvalue GAMMA=   0.4605
  1.5422  1.5422  0.8402  0.8402  0.4866  0.4866  0.4760  0.3135  0.1313  0.1313
  0.1145  0.1145  0.0942  0.0865  0.0865  0.0815

 Free energy of the ion-electron system (eV)
  ---------------------------------------------------
  alpha Z        PSCENC =      1699.99176552
  Ewald energy   TEWEN  =    -35870.00655956
  -Hartree energ DENC   =    -19653.39478105
  -exchange      EXHF   =         0.00000000
  -V(xc)+E(xc)   XCENC  =      2357.09168660
  PAW double counting   =     64569.26239148   -66919.45474647
  entropy T*S    EENTRO =        -0.10565160
  eigenvalues    EBANDS =     -1778.10809500
  atomic energy  EATOM  =     55137.21312455
  Solvation  Ediel_sol  =         0.00000000
  ---------------------------------------------------
  free energy    TOTEN  =      -457.51086553 eV

  energy without entropy =     -457.40521393  energy(sigma->0) =     -457.45803973


--------------------------------------------------------------------------------------------------------




--------------------------------------- Iteration      1(  22)  ---------------------------------------


    POTLOK:  cpu time    0.2605: real time    0.2612
    SETDIJ:  cpu time    0.0279: real time    0.0279
     EDDAV:  cpu time  157.7513: real time  158.1255
    CHARGE:  cpu time    5.8134: real time    5.8272
    MIXING:  cpu time    0.0098: real time    0.0098
    --------------------------------------------
      LOOP:  cpu time  163.8629: real time  164.2516

 eigenvalue-minimisations  : 42224
 total energy-change (2. order) :-0.7626920E+00  (-0.3122806E+00)
 number of electron     608.0000008 magnetization      19.6137106
 augmentation part      223.9669223 magnetization      12.6399925

 Broyden mixing:
  rms(total) = 0.17816E+01    rms(broyden)= 0.17813E+01
  rms(prec ) = 0.24743E+01
  weight for this iteration     100.00

 eigenvalues of (default mixing * dielectric matrix)
  average eigenvalue GAMMA=   0.4554
  1.6601  1.6601  0.8543  0.8543  0.4862  0.4862  0.4809  0.3160  0.1306  0.1306
  0.1218  0.1218  0.0981  0.0981  0.0856  0.0818  0.0759

 Free energy of the ion-electron system (eV)
  ---------------------------------------------------
  alpha Z        PSCENC =      1699.99176552
  Ewald energy   TEWEN  =    -35870.00655956
  -Hartree energ DENC   =    -19650.90272017
  -exchange      EXHF   =         0.00000000
  -V(xc)+E(xc)   XCENC  =      2356.83401994
  PAW double counting   =     64623.89193307   -66968.63617536
  entropy T*S    EENTRO =        -0.10605240
  eigenvalues    EBANDS =     -1786.55289315
  atomic energy  EATOM  =     55137.21312455
  Solvation  Ediel_sol  =         0.00000000
  ---------------------------------------------------
  free energy    TOTEN  =      -458.27355756 eV

  energy without entropy =     -458.16750516  energy(sigma->0) =     -458.22053136


--------------------------------------------------------------------------------------------------------




--------------------------------------- Iteration      1(  23)  ---------------------------------------


    POTLOK:  cpu time    0.2526: real time    0.2532
    SETDIJ:  cpu time    0.0276: real time    0.0277
     EDDAV:  cpu time  159.1365: real time  159.5142
    CHARGE:  cpu time    5.8847: real time    5.8987
    MIXING:  cpu time    0.0109: real time    0.0109
    --------------------------------------------
      LOOP:  cpu time  165.3123: real time  165.7046

 eigenvalue-minimisations  : 42592
 total energy-change (2. order) : 0.6926894E+00  (-0.2366742E+00)
 number of electron     608.0000009 magnetization      18.8551982
 augmentation part      224.0751421 magnetization      11.9894598

 Broyden mixing:
  rms(total) = 0.84474E+00    rms(broyden)= 0.84441E+00
  rms(prec ) = 0.11184E+01
  weight for this iteration     100.00

 eigenvalues of (default mixing * dielectric matrix)
  average eigenvalue GAMMA=   0.4647
  1.6167  1.6167  1.2600  0.7712  0.5619  0.4807  0.4807  0.3262  0.3262  0.1310
  0.1310  0.1105  0.1105  0.1106  0.0870  0.0870  0.0810  0.0763

 Free energy of the ion-electron system (eV)
  ---------------------------------------------------
  alpha Z        PSCENC =      1699.99176552
  Ewald energy   TEWEN  =    -35870.00655956
  -Hartree energ DENC   =    -19651.45169883
  -exchange      EXHF   =         0.00000000
  -V(xc)+E(xc)   XCENC  =      2356.81589495
  PAW double counting   =     64658.46644388   -67001.64705583
  entropy T*S    EENTRO =        -0.10355603
  eigenvalues    EBANDS =     -1786.85922678
  atomic energy  EATOM  =     55137.21312455
  Solvation  Ediel_sol  =         0.00000000
  ---------------------------------------------------
  free energy    TOTEN  =      -457.58086813 eV

  energy without entropy =     -457.47731210  energy(sigma->0) =     -457.52909012


--------------------------------------------------------------------------------------------------------




--------------------------------------- Iteration      1(  24)  ---------------------------------------


    POTLOK:  cpu time    0.2649: real time    0.2656
    SETDIJ:  cpu time    0.0268: real time    0.0268
     EDDAV:  cpu time  159.0466: real time  159.4238
    CHARGE:  cpu time    5.8813: real time    5.8953
    MIXING:  cpu time    0.0107: real time    0.0107
    --------------------------------------------
      LOOP:  cpu time  165.2303: real time  165.6223

 eigenvalue-minimisations  : 42688
 total energy-change (2. order) :-0.2082824E+00  (-0.1221087E+00)
 number of electron     608.0000009 magnetization      18.5374456
 augmentation part      224.1523633 magnetization      11.8868391

 Broyden mixing:
  rms(total) = 0.11650E+01    rms(broyden)= 0.11648E+01
  rms(prec ) = 0.15782E+01
  weight for this iteration     100.00

 eigenvalues of (default mixing * dielectric matrix)
  average eigenvalue GAMMA=   0.4605
  1.6995  1.6995  1.3291  0.7397  0.4974  0.4974  0.5350  0.3533  0.3533  0.1310
  0.1310  0.1378  0.1127  0.1127  0.0950  0.0869  0.0869  0.0801  0.0720

 Free energy of the ion-electron system (eV)
  ---------------------------------------------------
  alpha Z        PSCENC =      1699.99176552
  Ewald energy   TEWEN  =    -35870.00655956
  -Hartree energ DENC   =    -19652.25794982
  -exchange      EXHF   =         0.00000000
  -V(xc)+E(xc)   XCENC  =      2356.89589614
  PAW double counting   =     64709.86879534   -67052.55102934
  entropy T*S    EENTRO =        -0.10415415
  eigenvalues    EBANDS =     -1786.83903925
  atomic energy  EATOM  =     55137.21312455
  Solvation  Ediel_sol  =         0.00000000
  ---------------------------------------------------
  free energy    TOTEN  =      -457.78915056 eV

  energy without entropy =     -457.68499641  energy(sigma->0) =     -457.73707349


--------------------------------------------------------------------------------------------------------




--------------------------------------- Iteration      1(  25)  ---------------------------------------


    POTLOK:  cpu time    0.2639: real time    0.2645
    SETDIJ:  cpu time    0.0279: real time    0.0280
     EDDAV:  cpu time  161.6532: real time  162.0367
    CHARGE:  cpu time    5.7712: real time    5.7849
[...]
   -.191E+01 0.485E+02 0.196E+03   0.250E+01 -.528E+02 -.215E+03   0.166E+01 0.463E+01 0.111E+02   0.792E-03 -.393E-01 -.954E-02
   0.299E+01 -.898E+02 0.967E+02   0.326E+00 0.949E+02 -.102E+03   -.337E+01 -.454E+01 0.363E+01   -.214E-01 -.115E-02 -.212E-01
   -.306E+03 -.334E+02 -.156E+03   0.337E+03 0.346E+02 0.177E+03   -.220E+02 0.445E+01 -.176E+02   -.177E-01 -.221E-02 -.289E-01
   0.162E+03 -.410E+02 0.661E+02   -.174E+03 0.485E+02 -.739E+02   0.127E+02 -.770E+01 0.818E+01   0.406E-01 0.361E-01 -.779E-01
   0.225E+01 0.205E+03 -.560E+02   -.177E+01 -.222E+03 0.572E+02   -.481E+00 0.161E+02 0.840E+00   -.157E-01 0.255E-01 -.895E-01
   -.234E+03 -.109E+03 -.236E+03   0.257E+03 0.123E+03 0.246E+03   -.208E+02 -.128E+02 -.875E+01   -.244E-01 0.248E-01 -.331E-01
   0.124E+03 0.901E+02 0.160E+03   -.129E+03 -.972E+02 -.174E+03   0.587E+01 0.670E+01 0.980E+01   -.504E-01 0.583E-01 0.925E-02
   0.322E+02 -.773E+02 0.430E+02   -.322E+02 0.889E+02 -.495E+02   -.103E+01 -.125E+02 0.750E+01   -.115E-01 -.128E-02 -.283E-01
   -.108E+03 0.137E+03 -.101E+03   0.120E+03 -.140E+03 0.112E+03   -.138E+02 0.287E+01 -.120E+02   -.165E-02 -.179E-01 0.287E-01
   0.620E+02 -.519E+01 0.120E+02   -.666E+02 0.754E+01 -.190E+02   0.508E+01 -.260E+01 0.647E+01   -.201E-01 0.277E-02 0.516E-02
   0.258E+02 0.187E+03 -.348E+02   -.310E+02 -.200E+03 0.303E+02   0.521E+01 0.137E+02 0.574E+01   -.156E-01 0.598E-02 -.207E-01
   -.100E+03 -.148E+03 -.158E+03   0.111E+03 0.165E+03 0.164E+03   -.121E+02 -.150E+02 -.556E+01   0.301E-01 0.372E-01 -.316E-01
   0.348E+02 0.189E+03 0.186E+03   -.420E+02 -.195E+03 -.207E+03   0.892E+01 0.601E+01 0.138E+02   0.118E-01 -.437E-01 0.323E-01
   -.891E+02 -.153E+03 -.974E+02   0.980E+02 0.166E+03 0.105E+03   -.426E+01 -.111E+02 -.463E+01   0.129E+00 0.623E-01 0.669E-01
   -.207E+03 0.261E+02 -.174E+03   0.226E+03 -.272E+02 0.186E+03   -.178E+02 0.318E+01 -.127E+02   -.234E-01 -.188E-02 -.219E-02
   0.126E+03 -.248E+02 0.150E+03   -.136E+03 0.280E+02 -.158E+03   0.997E+01 -.448E+01 0.695E+01   0.224E-01 0.506E-01 0.533E-01
   -.170E+02 0.583E+02 0.526E+02   0.230E+02 -.604E+02 -.539E+02   -.339E+01 0.979E+00 0.151E+01   -.387E-01 0.426E-02 0.375E-01
   -.294E+03 -.636E+02 -.205E+03   0.331E+03 0.663E+02 0.227E+03   -.239E+02 -.726E+01 -.169E+02   0.168E-02 -.180E-01 0.402E-01
   0.909E+02 0.127E+03 0.154E+03   -.934E+02 -.139E+03 -.161E+03   0.300E+01 0.110E+02 0.730E+01   0.703E-02 0.298E-01 -.529E-01
   0.737E+02 -.425E+02 0.133E+03   -.798E+02 0.513E+02 -.147E+03   0.523E+01 -.973E+01 0.125E+02   0.185E-01 0.226E-02 -.583E-01
   -.167E+03 0.163E+03 -.772E+02   0.183E+03 -.172E+03 0.884E+02   -.169E+02 0.822E+01 -.114E+02   -.232E-01 0.314E-01 -.115E-01
   0.450E+02 -.339E+02 0.116E+03   -.516E+02 0.419E+02 -.125E+03   0.754E+01 -.814E+01 0.875E+01   0.163E-01 0.394E-02 0.327E-01
   -.173E+02 0.162E+03 0.123E+03   0.165E+02 -.170E+03 -.132E+03   0.162E+01 0.825E+01 0.631E+01   -.366E-01 -.446E-03 0.586E-01
   -.101E+03 -.448E+02 -.895E+02   0.115E+03 0.509E+02 0.952E+02   -.165E+02 -.689E+01 -.663E+01   0.340E-01 0.260E-01 0.413E-01
   0.906E+02 0.205E+03 0.184E+03   -.100E+03 -.216E+03 -.203E+03   0.110E+02 0.869E+01 0.120E+02   0.580E-02 0.225E-01 -.495E-01
   0.961E+02 -.167E+03 0.190E+03   -.105E+03 0.176E+03 -.217E+03   0.685E+01 -.107E+02 0.150E+02   -.208E-01 0.668E-02 -.269E-02
   -.233E+03 0.207E+02 -.902E+02   0.248E+03 -.231E+02 0.102E+03   -.158E+02 0.369E+01 -.127E+02   0.139E-01 0.311E-01 -.270E-01
 -----------------------------------------------------------------------------------------------
   0.146E+03 0.578E+00 -.140E+02   0.540E-12 -.853E-13 0.796E-12   -.146E+03 -.584E+00 0.140E+02   0.116E+00 0.151E-01 -.831E-01
 
 
 POSITION                                       TOTAL-FORCE (eV/Angst)
 -----------------------------------------------------------------------------------
      6.99517      5.02217      2.39766        -4.531204     -2.908734     -0.229201
      5.47737      2.28168      2.50692         0.847482      1.207580      0.127902
     -2.63128      3.25741      9.76091        -0.881309     -0.345433      7.605359
      2.31530      0.52994      0.22017         0.507481      1.206111      0.100961
      2.29128      2.33600      2.69155         0.930340      0.589022     -0.735752
      0.78829      5.25967      2.46496        -1.009482     -1.683330     -0.604750
      8.61623      0.65038      0.06793        -1.734499      0.226259     -0.686550
      7.11673      3.34405      0.08421        -0.894933     -0.520962      1.007291
      3.89465      4.88139      7.24766        -1.107396     -0.507700      6.575528
      2.18627      2.35926      7.73873         3.420083      0.270898     -1.567100
      0.57736      3.26889      5.00116         0.648201      1.572833     -0.661059
     -0.64797      0.28547      5.09787       -13.276632      8.634712     -4.247451
     -1.01043      2.16925      7.48869         0.406957     -0.109124     -0.107620
     -2.51361      5.01988      7.57278         1.595871      0.423870     -1.653471
      5.42656      0.59557      4.97155        -3.696902      1.524429      0.009571
      3.81602      3.25578      5.14872         0.525394     -0.546329      0.493668
      6.95488     10.81691      2.38483       -17.213224     -6.144333    -11.318231
      5.57258      7.86719      2.58211         0.585792      1.713534     -0.862059
     -2.58911      9.11838      9.75699        -0.376109     -3.801959      7.773554
     -3.79288      6.02991      9.70888        -7.049995      7.315773     10.295954
      2.18093      7.96880      2.45140         0.490701     -0.514777      1.053452
      0.75341     10.81674      2.66322        -5.410688     -2.762880     -1.463959
      8.52829      6.06317      0.15634         0.214386      0.481383     -1.866747
      7.05891      8.92004      0.06728         0.259348     -1.385514      1.732457
      3.62169     10.60948      7.56549         3.539962     -3.261685     -2.868698
      2.24432      7.92553      7.51303         0.071156     -0.387778      1.433742
      0.60788      8.94828      4.88557        -0.911327     -4.695546      6.783040
     -0.79597      5.99304      5.15701         0.287770     -0.333320     -0.163742
     -1.18870      7.88004      7.47027         0.393635     -0.963909      0.756987
     -2.41757     10.66504      7.46948        -8.102107     -3.140058     -4.115964
      5.44370      6.00718      4.89964       -10.718961      6.513633     -3.069106
      3.74069      8.73249      4.98147         1.329021      0.140899     -0.024139
      7.29061      4.99187      0.66646        -0.933842     -0.111654     -0.100986
      0.79215      5.26830      0.46510         1.249096     -0.099535      1.757512
      3.81859      5.27692      0.24801         8.012786     -5.730112      2.809881
      5.51276      0.52163      3.18138        -0.689277      1.112414      0.103734
      3.97091      3.14374      3.31353        -0.739270     -1.077750     -0.469268
      7.06435      3.26058      3.01846        -1.943431      0.359827     -1.123462
      2.45554      2.28516      0.60800        -0.105537     -0.027525      1.745357
      5.40044      2.72397      0.65925        -0.035475      0.187182      0.847313
      8.49642      2.32800      0.39414         0.114812      0.615254      0.231397
      0.82030      3.26004      2.95702         0.034140      1.404513      1.637933
     -1.14115      0.24786      3.11753        19.010442      5.238459     11.870412
      2.12580      0.61728      2.93419         5.141430      2.704932      1.326736
      3.98550      5.14825      5.71356         0.618474      0.744848     -6.277782
     -2.66885      5.42043      5.62671        11.238588     -5.401117      7.340715
      0.61079      5.03060      5.62543        -1.130266     -0.832669     -1.074906
      2.33898      0.55856      8.00681        -4.113442      2.706297      1.248079
      0.72490      3.04201      8.16133        -3.716952      0.165961     -0.853593
      3.78408      3.38235      8.06579        -1.070356     -0.752735     -0.321904
     -0.71625      2.24769      5.55626        -0.090667     -1.245316      1.202057
      2.09566      2.62426      5.79751         0.776390      0.375122      0.002501
      5.34456      2.27643      5.63004        -1.477668      0.279337     -0.702746
     -2.28366      3.37250      8.27210         2.252698      0.289295     -8.371376
     -4.05700      0.20061      8.28229        -0.082072      0.518820     -1.402073
     -1.17979      0.31452      8.10981         8.996687      5.615362      3.421985
      7.11443     10.62959      0.58574        -0.048447     -0.240822      0.265375
      0.77161     10.81079      0.73867        -0.016709     -1.004832      1.939477
      3.82089     10.69448      0.40616         1.819591      1.524988      1.477756
      5.58660      6.22264      3.27817         0.728711     -0.359805     -3.620785
      3.95985      8.69732      3.10990        -1.102566     -0.871198      0.987673
      6.96943      8.96258      3.05028        -1.580128     -0.470699     -1.218716
      2.57625      7.76960      0.72496         0.422103     -0.244805     -0.506854
      5.46670      8.02003      0.52631         0.035098      1.094765      1.211714
      8.67104      7.69760      0.41250        -1.254179      2.225960      0.524184
      0.71353      9.10628      3.34345         1.730755     -0.100054     -7.369184
     -0.95545      5.64290      3.10554         4.805188      2.242893      3.284131
      2.12721      6.06336      3.06161         0.592687      2.126589     -0.315792
      3.89547     10.68490      5.75803         0.609790     -1.275376     -0.538496
     -2.39077      0.21477      5.74449         2.581488     -1.174472      0.244937
      0.54302     10.47400      5.48550        12.592716     -4.622975      5.207276
      2.33371      6.24693      8.10702         0.499239     -0.326703     -0.160015
      0.74836      8.76770      8.17507        -0.809093     -0.915948     -1.853903
      3.61972      8.89895      7.96282        -0.106721     -0.076399     -0.153965
     -0.87462      7.75689      5.71145         0.953812     -0.110122     -0.327332
      1.99458      8.17333      5.85446         0.807562      0.650315     -2.452921
      5.41355      7.98219      5.38436        -2.251444     -0.772653     -0.952703
     -2.50682      9.06044      8.21098         1.206283     -1.843100     -6.923911
     -4.01780      5.84647      8.26286        -2.306327     -1.679452    -11.816040
     -1.17803      6.05884      8.13542        -0.365514      1.377127     -1.283287
 -----------------------------------------------------------------------------------
    total drift:                               -0.009002      0.009204     -0.002753


--------------------------------------------------------------------------------------------------------



  FREE ENERGIE OF THE ION-ELECTRON SYSTEM (eV)
  ---------------------------------------------------
  free  energy   TOTEN  =      -457.7090447696 eV

  energy  without entropy=     -457.6127092523  energy(sigma->0) =     -457.66087701
 


--------------------------------------------------------------------------------------------------------


    POTLOK:  cpu time    0.2694: real time    0.2701


--------------------------------------------------------------------------------------------------------


     LOOP+:  cpu time13478.0494: real time13510.9665
    4ORBIT:  cpu time    0.0000: real time    0.0000

volume of typ            1:    20.8 %

volume of typ            2:     8.0 %
 
total charge     
 
# of ion       s       p       d       tot
------------------------------------------
    1        0.307   0.375   7.929   8.612
    2        0.245   0.265   7.840   8.351
    3        0.331   0.422   7.936   8.690
    4        0.327   0.437   7.904   8.668
    5        0.269   0.302   7.878   8.448
    6        0.270   0.300   7.846   8.416
    7        0.312   0.409   7.911   8.633
    8        0.300   0.372   7.895   8.567
    9        0.329   0.402   7.927   8.659
   10        0.281   0.339   7.869   8.488
   11        0.271   0.305   7.828   8.404
   12        0.357   0.450   8.015   8.821
   13        0.209   0.211   7.909   8.329
   14        0.263   0.299   7.918   8.480
   15        0.304   0.381   7.873   8.558
   16        0.243   0.262   7.847   8.352
   17        0.398   0.554   8.018   8.970
   18        0.260   0.286   7.815   8.361
   19        0.343   0.427   7.948   8.717
   20        0.429   0.572   8.005   9.007
   21        0.225   0.225   7.879   8.330
   22        0.309   0.383   7.961   8.653
   23        0.338   0.447   7.867   8.653
   24        0.286   0.329   7.861   8.476
   25        0.343   0.462   7.892   8.697
   26        0.316   0.399   7.844   8.559
   27        0.345   0.443   7.954   8.742
   28        0.250   0.261   7.857   8.368
   29        0.234   0.235   7.876   8.345
   30        0.367   0.490   7.970   8.827
   31        0.378   0.513   7.967   8.858
   32        0.228   0.217   7.872   8.317
   33        1.264   2.815   0.014   4.094
   34        1.282   2.727   0.008   4.017
   35        1.299   2.765   0.017   4.080
   36        1.268   2.777   0.011   4.055
   37        1.268   2.731   0.007   4.006
   38        1.288   2.663   0.005   3.956
   39        1.272   2.751   0.009   4.032
   40        1.271   2.736   0.007   4.014
   41        1.282   2.740   0.011   4.033
   42        1.277   2.705   0.007   3.989
   43        1.289   2.861   0.027   4.178
   44        1.281   2.789   0.017   4.087
   45        1.274   2.795   0.015   4.084
   46        1.282   2.822   0.020   4.124
   47        1.284   2.689   0.007   3.980
   48        1.272   2.814   0.017   4.103
   49        1.271   2.783   0.013   4.068
   50        1.282   2.707   0.007   3.997
   51        1.272   2.730   0.008   4.010
   52        1.270   2.730   0.006   4.006
   53        1.285   2.683   0.006   3.974
   54        1.270   2.827   0.018   4.115
   55        1.275   2.786   0.011   4.072
   56        1.292   2.770   0.017   4.079
   57        1.267   2.776   0.011   4.054
   58        1.269   2.802   0.013   4.084
   59        1.285   2.772   0.015   4.072
   60        1.269   2.790   0.012   4.070
   61        1.275   2.703   0.006   3.984
   62        1.291   2.661   0.005   3.957
   63        1.267   2.745   0.007   4.020
   64        1.281   2.683   0.005   3.969
   65        1.287   2.707   0.008   4.002
   66        1.271   2.804   0.015   4.091
   67        1.274   2.778   0.013   4.065
   68        1.283   2.704   0.008   3.995
   69        1.274   2.715   0.006   3.996
   70        1.268   2.812   0.014   4.094
   71        1.295   2.852   0.029   4.176
   72        1.281   2.712   0.007   4.000
   73        1.280   2.736   0.010   4.026
   74        1.285   2.719   0.009   4.013
   75        1.267   2.737   0.007   4.011
   76        1.272   2.759   0.010   4.040
   77        1.291   2.644   0.004   3.939
   78        1.274   2.823   0.018   4.115
   79        1.284   2.834   0.021   4.139
   80        1.287   2.674   0.006   3.967
--------------------------------------------------
tot          71.02  143.92  253.45  468.39
 
magnetization (x)
 
# of ion       s       p       d       tot
------------------------------------------
    1        0.000  -0.007  -0.092  -0.098
    2        0.000   0.018   1.102   1.120
    3        0.000  -0.006  -0.341  -0.347
    4        0.002   0.003   0.175   0.180
    5        0.004   0.010   0.663   0.678
    6        0.009   0.025   1.186   1.220
    7        0.001   0.013   0.557   0.571
    8        0.001   0.009   0.352   0.363
    9        0.006   0.010   0.366   0.382
   10        0.004   0.019   1.024   1.046
   11       -0.002  -0.017  -0.882  -0.901
   12       -0.004  -0.008  -0.107  -0.119
   13        0.002   0.009   0.751   0.762
   14        0.000   0.007   0.540   0.547
   15       -0.001   0.013   0.644   0.656
   16       -0.000   0.018   1.108   1.125
   17       -0.002  -0.002  -0.077  -0.081
   18        0.001   0.018   1.186   1.204
   19        0.000  -0.001   0.059   0.058
   20       -0.003  -0.002  -0.235  -0.240
   21        0.001   0.015   1.017   1.033
   22        0.003   0.003   0.288   0.294
   23        0.002   0.008   0.445   0.455
   24        0.001   0.019   0.822   0.841
   25        0.001  -0.010  -0.362  -0.371
   26        0.000  -0.008  -0.481  -0.489
   27       -0.000  -0.002  -0.132  -0.134
   28        0.005   0.011   0.919   0.935
   29        0.002   0.015   1.019   1.037
   30        0.002  -0.000   0.156   0.157
   31        0.002  -0.005  -0.226  -0.229
   32        0.001   0.002   0.210   0.213
   33        0.003   0.013   0.000   0.016
   34        0.004   0.131   0.000   0.134
   35       -0.002  -0.122  -0.000  -0.124
   36        0.004   0.099   0.000   0.104
   37        0.009   0.245   0.000   0.254
   38        0.006   0.289  -0.000   0.295
   39        0.002   0.015  -0.000   0.017
   40        0.003   0.104   0.000   0.107
   41        0.007   0.241   0.000   0.249
   42        0.003   0.048   0.000   0.051
   43       -0.001  -0.032  -0.000  -0.032
   44        0.004   0.175   0.000   0.179
   45        0.004   0.081   0.000   0.085
   46        0.002   0.033  -0.000   0.035
   47        0.001   0.083   0.000   0.084
   48        0.004   0.059  -0.000   0.063
   49        0.008   0.186   0.000   0.195
   50        0.006   0.264   0.000   0.271
   51       -0.001  -0.071  -0.000  -0.073
   52        0.004   0.100   0.000   0.104
   53        0.009   0.394   0.000   0.403
   54        0.001   0.004  -0.000   0.005
   55        0.002   0.002   0.000   0.004
   56        0.004   0.159  -0.000   0.163
   57        0.005   0.077   0.000   0.082
   58        0.004   0.076   0.000   0.080
   59        0.000   0.002   0.000   0.003
   60        0.002   0.018   0.000   0.020
   61        0.008   0.231   0.000   0.239
   62        0.007   0.337   0.000   0.344
   63        0.004   0.106   0.000   0.109
   64        0.008   0.286   0.000   0.294
   65        0.006   0.238   0.000   0.244
   66        0.002   0.013  -0.000   0.015
   67        0.005   0.103  -0.000   0.108
   68        0.010   0.454   0.000   0.464
   69        0.002   0.039   0.000   0.040
   70        0.002   0.034   0.000   0.036
   71       -0.001  -0.050  -0.000  -0.051
   72        0.002  -0.016   0.000  -0.015
   73        0.004   0.127   0.000   0.132
   74       -0.004  -0.159  -0.000  -0.163
   75        0.006   0.169   0.000   0.175
   76       -0.002  -0.064  -0.000  -0.066
   77       -0.001  -0.007  -0.000  -0.008
   78        0.003   0.043   0.000   0.046
   79        0.002   0.016  -0.000   0.018
   80        0.007   0.344  -0.000   0.351
--------------------------------------------------
tot           0.20    5.10   11.66   16.95
 

 total amount of memory used by VASP MPI-rank0   567375. kBytes
=======================================================================

   base      :      30000. kBytes
   nonlr-proj:      52662. kBytes
   fftplans  :      10810. kBytes
   grid      :      61419. kBytes
   one-center:       2488. kBytes
   wavefun   :     409996. kBytes
 
  
  
 General timing and accounting informations for this job:
 ========================================================
  
                  Total CPU time used (sec):    13585.118
                            User time (sec):    13574.985
                          System time (sec):       10.134
                         Elapsed time (sec):    13625.094
  
                   Maximum memory used (kb):      674380.
                   Average memory used (kb):           0.
  
                          Minor page faults:        44065
                          Major page faults:           41
                 Voluntary context switches:         1256
