 vasp.5.4.4.18Apr17-6-g9f103f2a35 (build May 12 2020 04:58:55) complex          
  
 MD_VERSION_INFO: Compiled 2020-05-12T11:58:55-UTC in devlin.sd.materialsdesign.
 com:/home/medea2/data/build/wwolf/vasp-gpu5.4.4/13047/x86_64/src/src/build/std 
 from svn 13047
 
 This VASP executable licensed from Materials Design, Inc.
 
 executed on                        Lin64 date 2023.03.25  22:59:58
 running on   16 total cores
 distrk:  each k-point on   16 cores,    1 groups
 distr:  one band on NCORES_PER_BAND=   1 cores,   16 groups


--------------------------------------------------------------------------------------------------------


 INCAR:
 POTCAR:    PAW_PBE Ni 02Aug2007                  
 POTCAR:    PAW_PBE O 08Apr2002                   

 ----------------------------------------------------------------------------- 
|                                                                             |
|           W    W    AA    RRRRR   N    N  II  N    N   GGGG   !!!           |
|           W    W   A  A   R    R  NN   N  II  NN   N  G    G  !!!           |
|           W    W  A    A  R    R  N N  N  II  N N  N  G       !!!           |
|           W WW W  AAAAAA  RRRRR   N  N N  II  N  N N  G  GGG   !            |
|           WW  WW  A    A  R   R   N   NN  II  N   NN  G    G                |
|           W    W  A    A  R    R  N    N  II  N    N   GGGG   !!!           |
|                                                                             |
|      For optimal performance we recommend to set                            |
|        NCORE= 4 - approx SQRT( number of cores)                             |
|      NCORE specifies how many cores store one orbital (NPAR=cpu/NCORE).     |
|      This setting can  greatly improve the performance of VASP for DFT.     |
|      The default,   NCORE=1            might be grossly inefficient         |
|      on modern multi-core architectures or massively parallel machines.     |
|      Do your own testing !!!!                                               |
|      Unfortunately you need to use the default for GW and RPA calculations. |
|      (for HF NCORE is supported but not extensively tested yet)             |
|                                                                             |
 ----------------------------------------------------------------------------- 

 POTCAR:    PAW_PBE Ni 02Aug2007                  
  local pseudopotential read in
  partial core-charges read in
  partial kinetic energy density read in
  atomic valenz-charges read in
  non local Contribution for L=           2  read in
    real space projection operators read in
  non local Contribution for L=           2  read in
    real space projection operators read in
  non local Contribution for L=           0  read in
    real space projection operators read in
  non local Contribution for L=           0  read in
    real space projection operators read in
  non local Contribution for L=           1  read in
    real space projection operators read in
  non local Contribution for L=           1  read in
    real space projection operators read in
    PAW grid and wavefunctions read in
 
   number of l-projection  operators is LMAX  =           6
   number of lm-projection operators is LMMAX =          18
 
 POTCAR:    PAW_PBE O 08Apr2002                   
  local pseudopotential read in
  partial core-charges read in
  partial kinetic energy density read in
  kinetic energy density of atom read in
  atomic valenz-charges read in
  non local Contribution for L=           0  read in
    real space projection operators read in
  non local Contribution for L=           0  read in
    real space projection operators read in
  non local Contribution for L=           1  read in
    real space projection operators read in
  non local Contribution for L=           1  read in
    real space projection operators read in
    PAW grid and wavefunctions read in
 
   number of l-projection  operators is LMAX  =           4
   number of lm-projection operators is LMMAX =           8
 
 Optimization of the real space projectors (new method)

 maximal supplied QI-value         = 16.25
 optimisation between [QCUT,QGAM] = [ 11.38, 22.75] = [ 36.24,144.96] Ry 
 Optimized for a Real-space Cutoff    1.47 Angstroem

   l    n(q)    QCUT    max X(q) W(low)/X(q) W(high)/X(q)  e(spline) 
   2      9    11.376    60.317    0.17E-03    0.16E-04    0.16E-06
   2      9    11.376    55.921    0.17E-03    0.16E-04    0.17E-06
   0     10    11.376    51.690    0.45E-04    0.60E-04    0.21E-06
   0     10    11.376    30.015    0.37E-04    0.55E-04    0.19E-06
   1     10    11.376    18.849    0.83E-04    0.11E-03    0.92E-07
   1     10    11.376    14.624    0.69E-04    0.92E-04    0.82E-07
 Optimization of the real space projectors (new method)

 maximal supplied QI-value         = 24.76
 optimisation between [QCUT,QGAM] = [ 11.39, 22.77] = [ 36.31,145.25] Ry 
 Optimized for a Real-space Cutoff    1.10 Angstroem

   l    n(q)    QCUT    max X(q) W(low)/X(q) W(high)/X(q)  e(spline) 
   0      7    11.387    20.381    0.22E-03    0.48E-03    0.18E-06
   0      7    11.387    15.268    0.22E-03    0.52E-03    0.19E-06
   1      7    11.387     5.964    0.22E-03    0.73E-03    0.24E-06
   1      7    11.387     5.382    0.19E-03    0.60E-03    0.21E-06

 ----------------------------------------------------------------------------- 
|                                                                             |
|  ADVICE TO THIS USER RUNNING 'VASP/VAMP'   (HEAR YOUR MASTER'S VOICE ...):  |
|                                                                             |
|      You enforced a specific xc-type in the INCAR file,                     |
|      a different type was found on the POTCAR file                          |
|          I HOPE YOU KNOW, WHAT YOU ARE  DOING                               |
|                                                                             |
 ----------------------------------------------------------------------------- 

  PAW_PBE Ni 02Aug2007                  :
 energy of atom  1       EATOM=-1077.6739
 kinetic energy error for atom=    0.0030 (will be added to EATOM!!)
  PAW_PBE O 08Apr2002                   :
 energy of atom  2       EATOM= -432.3788
 kinetic energy error for atom=    0.0224 (will be added to EATOM!!)
 
 
 POSCAR: Ni2O3_Cc_scale_0_950_disp_0_20_round_1  
  positions in direct lattice
  No initial velocities read in
 exchange correlation table for  LEXCH =       14
   RHO(1)=    0.500       N(1)  =     2000
   RHO(2)=  100.500       N(2)  =     4000
 


--------------------------------------------------------------------------------------------------------


 ion  position               nearest neighbor table
   1  0.001  0.485  0.265-  67 0.92  33 1.80  60 2.12  38 2.27   6 2.33  28 2.44   8 2.92  23 3.02

   2  0.748  0.214  0.261-  37 1.80  40 1.83  36 1.93  38 2.05   5 2.69  15 2.69  17 2.77  16 2.92
                             3 2.93
   3  0.431  0.300  0.999-  54 1.21  40 1.84  39 2.01  35 2.26  13 2.37  14 2.80   2 2.93   5 2.97

   4  0.270  0.019  0.023-  59 1.37  55 1.44  58 1.67  39 1.72  30 2.33  44 2.47  19 2.47   7 2.50
                            25 2.54  22 3.00
   5  0.454  0.246  0.264-  37 1.54  42 1.89  39 2.12  44 2.28   2 2.69  16 2.89   3 2.97   6 2.99

   6  0.237  0.472  0.236-  34 1.63  67 1.78  42 1.87  68 2.20   1 2.33  20 2.60  23 2.78   5 2.99

   7  0.964  0.028  0.975-  48 1.17  58 1.36  57 1.99  41 2.24  55 2.29  25 2.38   4 2.50  10 2.53
                            24 2.70
   8  0.793  0.335  0.010-  33 1.50  49 1.64  41 1.82  40 2.16  23 2.66  13 2.91   1 2.92  10 2.98

   9  0.980  0.502  0.785-  72 1.59  79 1.76  45 1.83  50 1.85  23 2.51  14 2.67  20 2.79  26 2.79
                            31 2.97
  10  0.836  0.206  0.797-  48 1.84  50 2.02  49 2.04  52 2.09  25 2.52   7 2.53   8 2.98
  11  0.443  0.292  0.536-  52 1.78  51 1.81  42 1.83  47 1.86  12 3.06  13 3.07
  12  0.324  0.025  0.550-  71 0.97  43 1.91  70 2.07  27 2.13  51 2.21  22 2.78  11 3.06
  13  0.437  0.247  0.800-  54 1.68  51 1.75  49 1.85  56 2.35   3 2.37  30 2.70   8 2.91  14 2.94
                            11 3.07
  14  0.287  0.494  0.800-  79 1.50  80 1.53  54 2.11  35 2.19  46 2.20   9 2.67   3 2.80  20 2.93
                            13 2.94  29 2.98  31 3.05
  15  0.909  0.075  0.498-  69 1.58  70 1.68  53 1.69  36 2.15   2 2.69  16 2.84  32 2.87  25 2.93
                            17 3.05
  16  0.787  0.319  0.514-  37 1.60  53 1.94  52 2.00  45 2.04  15 2.84   5 2.89   2 2.92  31 2.99

  17  0.934  0.012  0.247-  36 1.44  57 1.65  43 1.85  62 2.10   2 2.77  24 2.79  22 2.81  15 3.05

  18  0.760  0.750  0.274-  61 1.66  64 1.70  60 1.99  62 2.19  21 2.71  32 2.98  31 3.05
  19  0.422  0.844  0.986-  78 1.15  59 1.94  64 2.24  63 2.38  29 2.45   4 2.47  30 2.69
  20  0.279  0.567  0.045-  34 1.74  63 1.74  79 1.75  35 1.84   6 2.60  23 2.78   9 2.79  21 2.80
                            14 2.93
  21  0.460  0.730  0.275-  63 1.45  68 1.53  61 1.64  66 2.05  18 2.71  20 2.80
  22  0.270  1.000  0.286-  44 1.25  43 1.38  66 1.80  58 2.01  12 2.78  17 2.81  27 2.94   4 3.00

  23  0.935  0.544  0.981-  72 1.24  34 1.56  33 1.97  65 2.31   9 2.51  26 2.63   8 2.66  20 2.78
                             6 2.78   1 3.02
  24  0.814  0.836  0.031-  73 1.57  65 1.60  57 1.95  64 2.06   7 2.70  17 2.79  26 3.07
  25  0.991  0.017  0.779-  55 1.16  69 1.54  48 1.83  74 2.10  30 2.30   7 2.38  10 2.52   4 2.54
                            15 2.93  32 2.99
  26  0.778  0.707  0.774-  76 1.73  72 1.76  73 2.00  74 2.04  23 2.63   9 2.79  24 3.07
  27  0.420  0.844  0.540-  75 1.61  71 2.07  66 2.13  12 2.13  22 2.94  29 3.05
  28  0.233  0.559  0.499-  47 1.84  67 1.87  46 2.19  75 2.39   1 2.44  31 2.66
  29  0.437  0.745  0.799-  78 1.69  80 1.76  75 2.01  73 2.09  19 2.45  14 2.98  27 3.05
  30  0.268  0.046  0.819-  55 1.70  56 1.78  59 2.01  70 2.20  25 2.30  78 2.31   4 2.33  19 2.69
                            13 2.70
  31  0.953  0.566  0.520-  46 1.67  45 1.68  60 1.74  77 1.94  28 2.66   9 2.97  16 2.99  14 3.05
                            18 3.05
  32  0.805  0.833  0.541-  76 1.89  77 1.95  61 2.02  69 2.19  15 2.87  18 2.98  25 2.99
  33  0.838  0.461  0.081-   8 1.50   1 1.80  23 1.97
  34  0.126  0.488  0.066-  23 1.56   6 1.63  20 1.74
  35  0.461  0.513  0.028-  20 1.84  14 2.19   3 2.26
  36  0.803  0.036  0.280-  17 1.44   2 1.93  15 2.15
  37  0.655  0.268  0.357-   5 1.54  16 1.60   2 1.80
  38  0.996  0.284  0.331-   2 2.05   1 2.27
  39  0.309  0.179  0.055-   4 1.72   3 2.01   5 2.12
  40  0.647  0.223  0.071-   2 1.83   3 1.84   8 2.16
  41  0.954  0.207  0.075-   8 1.82   7 2.24
  42  0.361  0.336  0.354-  11 1.83   6 1.87   5 1.89
  43  0.179  0.003  0.352-  22 1.38  17 1.85  12 1.91
  44  0.394  0.040  0.277-  22 1.25   5 2.28   4 2.47
  45  0.855  0.497  0.594-  31 1.68   9 1.83  16 2.04
  46  0.099  0.447  0.577-  31 1.67  28 2.19  14 2.20
  47  0.436  0.466  0.560-  28 1.84  11 1.86
  48  0.858  0.041  0.855-   7 1.17  25 1.83  10 1.84
  49  0.670  0.271  0.854-   8 1.64  13 1.85  10 2.04
  50  0.018  0.331  0.816-   9 1.85  10 2.02
  51  0.341  0.222  0.620-  13 1.75  11 1.81  12 2.21
  52  0.652  0.229  0.582-  11 1.78  16 2.00  10 2.09
  53  0.996  0.218  0.570-  15 1.69  16 1.94
  54  0.332  0.307  0.872-   3 1.21  13 1.68  14 2.11
  55  0.130  0.033  0.878-  25 1.16   4 1.44  30 1.70   7 2.29
  56  0.493  0.035  0.872-  30 1.78  13 2.35
  57  0.842  0.015  0.077-  17 1.65  24 1.95   7 1.99
  58  0.137  0.044  0.081-   7 1.36   4 1.67  22 2.01
  59  0.426  0.022  0.028-   4 1.37  19 1.94  30 2.01
  60  0.859  0.578  0.340-  31 1.74  18 1.99   1 2.12
  61  0.641  0.813  0.331-  21 1.64  18 1.66  32 2.02
  62  0.012  0.825  0.319-  17 2.10  18 2.19
  63  0.358  0.714  0.124-  21 1.45  20 1.74  19 2.38
  64  0.678  0.737  0.100-  18 1.70  24 2.06  19 2.24
  65  0.978  0.745  0.072-  24 1.60  23 2.31
  66  0.303  0.833  0.320-  22 1.80  21 2.05  27 2.13
  67  0.113  0.520  0.308-   1 0.92   6 1.78  28 1.87
  68  0.469  0.597  0.330-  21 1.53   6 2.20
  69  0.885  0.027  0.618-  25 1.54  15 1.58  32 2.19
  70  0.125  0.036  0.589-  15 1.68  12 2.07  30 2.20
  71  0.443  0.038  0.571-  12 0.97  27 2.07
  72  0.900  0.571  0.862-  23 1.24   9 1.59  26 1.76
  73  0.690  0.814  0.868-  24 1.57  26 2.00  29 2.09
  74  0.981  0.832  0.840-  26 2.04  25 2.10
  75  0.308  0.769  0.591-  27 1.61  29 2.01  28 2.39
  76  0.698  0.715  0.597-  26 1.73  32 1.89
  77  0.018  0.733  0.603-  31 1.94  32 1.95
  78  0.346  0.836  0.866-  19 1.15  29 1.69  30 2.31
  79  0.200  0.555  0.866-  14 1.50  20 1.75   9 1.76
  80  0.434  0.580  0.816-  14 1.53  29 1.76
 

 ----------------------------------------------------------------------------- 
|                                                                             |
|           W    W    AA    RRRRR   N    N  II  N    N   GGGG   !!!           |
|           W    W   A  A   R    R  NN   N  II  NN   N  G    G  !!!           |
|           W    W  A    A  R    R  N N  N  II  N N  N  G       !!!           |
|           W WW W  AAAAAA  RRRRR   N  N N  II  N  N N  G  GGG   !            |
|           WW  WW  A    A  R   R   N   NN  II  N   NN  G    G                |
|           W    W  A    A  R    R  N    N  II  N    N   GGGG   !!!           |
|                                                                             |
|      The distance between some ions is very small                           |
|      please check the nearest neigbor list in the OUTCAR file               |
|          I HOPE YOU KNOW, WHAT YOU ARE  DOING                               |
|                                                                             |
 ----------------------------------------------------------------------------- 

  LATTYP: Found a simple monoclinic cell.
 ALAT       =    15.1502718722
 B/A-ratio  =     0.6987547873
 C/A-ratio  =     1.5833429412
 COS(beta)  =    -0.9717709890
  
  Lattice vectors:
  
 A1 = ( -11.7745282000,   0.0000000000,  -9.5336888700)
 A2 = (   0.0000000000, -10.5863250000,   0.0000000000)
 A3 = (  14.5555109000,   0.0000000000,  19.0673777400)


Analysis of symmetry for initial positions (statically):
=====================================================================
 Subroutine PRICEL returns:
 Original cell was already a primitive cell.
 

 Routine SETGRP: Setting up the symmetry group for a 
 simple monoclinic supercell.


 Subroutine GETGRP returns: Found  1 space group operations
 (whereof  1 operations were pure point group operations)
 out of a pool of  4 trial point group operations.


The static configuration has the point symmetry C_1 .


Analysis of symmetry for dynamics (positions and initial velocities):
=====================================================================
 Subroutine PRICEL returns:
 Original cell was already a primitive cell.
 

 Routine SETGRP: Setting up the symmetry group for a 
 simple monoclinic supercell.


 Subroutine GETGRP returns: Found  1 space group operations
 (whereof  1 operations were pure point group operations)
 out of a pool of  4 trial point group operations.


The dynamic configuration has the point symmetry C_1 .


Analysis of structural, dynamic, and magnetic symmetry:
=====================================================================
 Subroutine PRICEL returns:
 Original cell was already a primitive cell.
 

 Routine SETGRP: Setting up the symmetry group for a 
 simple monoclinic supercell.


 Subroutine GETGRP returns: Found  1 space group operations
 (whereof  1 operations were pure point group operations)
 out of a pool of  4 trial point group operations.


The magnetic configuration has the point symmetry C_1 .


 Subroutine INISYM returns: Found  1 space group operations
 (whereof  1 operations are pure point group operations),
 and found     1 'primitive' translations

 
 
 KPOINTS: Automatic mesh                          

Automatic generation of k-mesh.
Space group operators:
 irot       det(A)        alpha          n_x          n_y          n_z        tau_x        tau_y        tau_z
    1     1.000000     0.000000     1.000000     0.000000     0.000000     0.000000     0.000000     0.000000
 
 Subroutine IBZKPT returns following result:
 ===========================================
 
 Found     19 irreducible k-points:
 
 Following reciprocal coordinates:
            Coordinates               Weight
  0.000000  0.000000  0.000000      1.000000
  0.250000  0.000000  0.000000      2.000000
  0.500000  0.000000  0.000000      1.000000
  0.000000  0.333333  0.000000      2.000000
  0.250000  0.333333  0.000000      2.000000
  0.500000  0.333333  0.000000      2.000000
 -0.250000  0.333333 -0.000000      2.000000
  0.000000  0.000000  0.333333      2.000000
  0.250000  0.000000  0.333333      2.000000
  0.500000  0.000000  0.333333      2.000000
 -0.250000  0.000000  0.333333      2.000000
  0.000000  0.333333  0.333333      2.000000
  0.250000  0.333333  0.333333      2.000000
  0.500000  0.333333  0.333333      2.000000
 -0.250000  0.333333  0.333333      2.000000
  0.000000 -0.333333  0.333333      2.000000
  0.250000 -0.333333  0.333333      2.000000
  0.500000 -0.333333  0.333333      2.000000
 -0.250000 -0.333333  0.333333      2.000000
 
 Following cartesian coordinates:
            Coordinates               Weight
  0.000000  0.000000  0.000000      1.000000
  0.027798  0.000000  0.018114      2.000000
  0.055595  0.000000  0.036228      1.000000
  0.000000  0.031487  0.000000      2.000000
  0.027798  0.031487  0.018114      2.000000
  0.055595  0.031487  0.036228      2.000000
 -0.027798  0.031487 -0.018114      2.000000
  0.000000  0.000000  0.034964      2.000000
  0.027798  0.000000  0.053078      2.000000
  0.055595  0.000000  0.071192      2.000000
 -0.027798  0.000000  0.016850      2.000000
  0.000000  0.031487  0.034964      2.000000
  0.027798  0.031487  0.053078      2.000000
  0.055595  0.031487  0.071192      2.000000
 -0.027798  0.031487  0.016850      2.000000
  0.000000 -0.031487  0.034964      2.000000
  0.027798 -0.031487  0.053078      2.000000
  0.055595 -0.031487  0.071192      2.000000
 -0.027798 -0.031487  0.016850      2.000000
 


--------------------------------------------------------------------------------------------------------




 Dimension of arrays:
   k-points           NKPTS =     19   k-points in BZ     NKDIM =     19   number of bands    NBANDS=    416
   number of dos      NEDOS =    301   number of ions     NIONS =     80
   non local maximal  LDIM  =      6   non local SUM 2l+1 LMDIM =     18
   total plane-waves  NPLWV = 470400
   max r-space proj   IRMAX =   7007   max aug-charges    IRDMAX=  16996
   dimension x,y,z NGX =    70 NGY =   80 NGZ =   84
   dimension x,y,z NGXF=   140 NGYF=  160 NGZF=  168
   support grid    NGXF=   140 NGYF=  160 NGZF=  168
   ions per type =              32  48
   NGX,Y,Z   is equivalent  to a cutoff of  12.94, 12.56, 12.27 a.u.
   NGXF,Y,Z  is equivalent  to a cutoff of  25.88, 25.13, 24.54 a.u.

 SYSTEM =  unknown system                          
 POSCAR =  Ni2O3_Cc_scale_0_950_disp_0_20_round_1  

 Startparameter for this run:
   NWRITE =      1    write-flag & timer
   PREC   = accura    normal or accurate (medium, high low for compatibility)
   ISTART =      0    job   : 0-new  1-cont  2-samecut
   ICHARG =      2    charge: 1-file 2-atom 10-const
   ISPIN  =      2    spin polarized calculation?
   LNONCOLLINEAR =      F non collinear calculations
   LSORBIT =      F    spin-orbit coupling
   INIWAV =      1    electr: 0-lowe 1-rand  2-diag
   LASPH  =      F    aspherical Exc in radial PAW
   METAGGA=      F    non-selfconsistent MetaGGA calc.

 Electronic Relaxation 1
   ENCUT  =  500.0 eV  36.75 Ry    6.06 a.u.  16.40 19.30 20.75*2*pi/ulx,y,z
   ENINI  =  500.0     initial cutoff
   ENAUG  =  605.4 eV  augmentation charge cutoff
   NELM   =     80;   NELMIN=  2; NELMDL= -5     # of ELM steps 
   EDIFF  = 0.1E-04   stopping-criterion for ELM
   LREAL  =      T    real-space projection
   NLSPLINE    = F    spline interpolate recip. space projectors
   LCOMPAT=      F    compatible to vasp.4.4
   GGA_COMPAT  = T    GGA compatible to vasp.4.4-vasp.4.6
   LMAXPAW     = -100 max onsite density
   LMAXMIX     =    2 max onsite mixed and CHGCAR
   VOSKOWN=      1    Vosko Wilk Nusair interpolation
   ROPT   =   -0.00025  -0.00025
 Ionic relaxation
   EDIFFG = 0.1E-03   stopping-criterion for IOM
   NSW    =      0    number of steps for IOM
   NBLOCK =      1;   KBLOCK =      1    inner block; outer block 
   IBRION =     -1    ionic relax: 0-MD 1-quasi-New 2-CG
   NFREE  =      0    steps in history (QN), initial steepest desc. (CG)
   ISIF   =      2    stress and relaxation
   IWAVPR =     10    prediction:  0-non 1-charg 2-wave 3-comb
   ISYM   =      2    0-nonsym 1-usesym 2-fastsym
   LCORR  =      T    Harris-Foulkes like correction to forces

   POTIM  = 0.5000    time-step for ionic-motion
   TEIN   =    0.0    initial temperature
   TEBEG  =    0.0;   TEEND  =   0.0 temperature during run
   SMASS  =  -3.00    Nose mass-parameter (am)
   estimated Nose-frequenzy (Omega)   =  0.10E-29 period in steps =****** mass=  -0.185E-26a.u.
   SCALEE = 1.0000    scale energy and forces
   NPACO  =    256;   APACO  = 16.0  distance and # of slots for P.C.
   PSTRESS=    0.0 pullay stress

  Mass of Ions in am
   POMASS =  58.69 16.00
  Ionic Valenz
   ZVAL   =  10.00  6.00
  Atomic Wigner-Seitz radii
   RWIGS  =   1.15  0.73
  virtual crystal weights 
   VCA    =   1.00  1.00
   NELECT =     608.0000    total number of electrons
   NUPDOWN=      -1.0000    fix difference up-down

 DOS related values:
   EMIN   =  10.00;   EMAX   =-10.00  energy-range for DOS
   EFERMI =   0.00
   ISMEAR =     0;   SIGMA  =   0.05  broadening in eV -4-tet -1-fermi 0-gaus

 Electronic relaxation 2 (details)
   IALGO  =     38    algorithm
   LDIAG  =      T    sub-space diagonalisation (order eigenvalues)
   LSUBROT=      F    optimize rotation matrix (better conditioning)
   TURBO    =      0    0=normal 1=particle mesh
   IRESTART =      0    0=no restart 2=restart with 2 vectors
   NREBOOT  =      0    no. of reboots
   NMIN     =      0    reboot dimension
   EREF     =   0.00    reference energy to select bands
   IMIX   =      4    mixing-type and parameters
     AMIX     =   0.40;   BMIX     =  1.00
     AMIX_MAG =   1.60;   BMIX_MAG =  1.00
     AMIN     =   0.10
     WC   =   100.;   INIMIX=   1;  MIXPRE=   1;  MAXMIX= -45

 Intra band minimization:
   WEIMIN = 0.0000     energy-eigenvalue tresh-hold
   EBREAK =  0.60E-08  absolut break condition
   DEPER  =   0.30     relativ break condition  

   TIME   =   0.40     timestep for ELM

  volume/ion in A,a.u.               =      11.35        76.57
  Fermi-wavevector in a.u.,A,eV,Ry     =   1.432398  2.706839 27.915937  2.051763
  Thomas-Fermi vector in A             =   2.552030
 
 Write flags
   LWAVE        =      F    write WAVECAR
   LDOWNSAMPLE  =      F    k-point downsampling of WAVECAR
   LCHARG       =      T    write CHGCAR
   LVTOT        =      F    write LOCPOT, total local potential
   LVHAR        =      F    write LOCPOT, Hartree potential only
   LELF         =      F    write electronic localiz. function (ELF)
   LORBIT       =      0    0 simple, 1 ext, 2 COOP (PROOUT), +10 PAW based schemes


 Dipole corrections
   LMONO  =      F    monopole corrections only (constant potential shift)
   LDIPOL =      F    correct potential (dipole corrections)
   IDIPOL =      0    1-x, 2-y, 3-z, 4-all directions 
   EPSILON=  1.0000000 bulk dielectric constant

 Exchange correlation treatment:
   GGA     =    PS    GGA type
   LEXCH   =    14    internal setting for exchange type
   VOSKOWN=      1    Vosko Wilk Nusair interpolation
   LHFCALC =     F    Hartree Fock is set to
   LHFONE  =     F    Hartree Fock one center treatment
   AEXX    =    0.0000 exact exchange contribution

 Linear response parameters
   LEPSILON=     F    determine dielectric tensor
   LRPA    =     F    only Hartree local field effects (RPA)
   LNABLA  =     F    use nabla operator in PAW spheres
   LVEL    =     F    velocity operator in full k-point grid
   LINTERFAST=   F  fast interpolation
   KINTER  =     0    interpolate to denser k-point grid
   CSHIFT  =0.1000    complex shift for real part using Kramers Kronig
   OMEGAMAX=  -1.0    maximum frequency
   DEG_THRESHOLD= 0.2000000E-02 threshold for treating states as degnerate
   RTIME   =   -0.100 relaxation time in fs
  (WPLASMAI=    0.000 imaginary part of plasma frequency in eV, 0.658/RTIME)
   DFIELD  = 0.0000000 0.0000000 0.0000000 field for delta impulse in time
 
 Orbital magnetization related:
   ORBITALMAG=     F  switch on orbital magnetization
   LCHIMAG   =     F  perturbation theory with respect to B field
   DQ        =  0.001000  dq finite difference perturbation B field
   LLRAUG    =     F  two centre corrections for induced B field



--------------------------------------------------------------------------------------------------------


 Static calculation
 charge density and potential will be updated during run
 spin polarized calculation
 Variant of blocked Davidson
 Davidson routine will perform the subspace rotation
 perform sub-space diagonalisation
    after iterative eigenvector-optimisation
 modified Broyden-mixing scheme, WC =      100.0
 initial mixing is a Kerker type mixing with AMIX =  0.4000 and BMIX =      1.0000
 Hartree-type preconditioning will be used
 using additional bands          112
 real space projection scheme for non local part
 use partial core corrections
 calculate Harris-corrections to forces 
   (improved forces if not selfconsistent)
 use gradient corrections 
 use of overlap-Matrix (Vanderbilt PP)
 Gauss-broadening in eV      SIGMA  =   0.05


--------------------------------------------------------------------------------------------------------


  energy-cutoff  :      500.00
  volume of cell :      907.69
      direct lattice vectors                 reciprocal lattice vectors
     8.993545500  0.000000000  0.000000000     0.111190853  0.000000000  0.072456755
     0.000000000 10.586325000  0.000000000     0.000000000  0.094461487  0.000000000
    -6.212562800  0.000000000  9.533688870     0.000000000  0.000000000  0.104891193

  length of vectors
     8.993545500 10.586325000 11.379242506     0.132715437  0.094461487  0.104891193


 
 k-points in units of 2pi/SCALE and weight: Automatic mesh                          
   0.00000000  0.00000000  0.00000000       0.028
   0.02779771  0.00000000  0.01811419       0.056
   0.05559543  0.00000000  0.03622838       0.028
   0.00000000  0.03148716  0.00000000       0.056
   0.02779771  0.03148716  0.01811419       0.056
   0.05559543  0.03148716  0.03622838       0.056
  -0.02779771  0.03148716 -0.01811419       0.056
   0.00000000  0.00000000  0.03496373       0.056
   0.02779771  0.00000000  0.05307792       0.056
   0.05559543  0.00000000  0.07119211       0.056
  -0.02779771  0.00000000  0.01684954       0.056
   0.00000000  0.03148716  0.03496373       0.056
   0.02779771  0.03148716  0.05307792       0.056
   0.05559543  0.03148716  0.07119211       0.056
  -0.02779771  0.03148716  0.01684954       0.056
   0.00000000 -0.03148716  0.03496373       0.056
   0.02779771 -0.03148716  0.05307792       0.056
   0.05559543 -0.03148716  0.07119211       0.056
  -0.02779771 -0.03148716  0.01684954       0.056
 
 k-points in reciprocal lattice and weights: Automatic mesh                          
   0.00000000  0.00000000  0.00000000       0.028
   0.25000000  0.00000000  0.00000000       0.056
   0.50000000  0.00000000  0.00000000       0.028
   0.00000000  0.33333333  0.00000000       0.056
   0.25000000  0.33333333  0.00000000       0.056
   0.50000000  0.33333333  0.00000000       0.056
  -0.25000000  0.33333333 -0.00000000       0.056
   0.00000000  0.00000000  0.33333333       0.056
   0.25000000  0.00000000  0.33333333       0.056
   0.50000000  0.00000000  0.33333333       0.056
  -0.25000000  0.00000000  0.33333333       0.056
   0.00000000  0.33333333  0.33333333       0.056
   0.25000000  0.33333333  0.33333333       0.056
   0.50000000  0.33333333  0.33333333       0.056
  -0.25000000  0.33333333  0.33333333       0.056
   0.00000000 -0.33333333  0.33333333       0.056
   0.25000000 -0.33333333  0.33333333       0.056
   0.50000000 -0.33333333  0.33333333       0.056
  -0.25000000 -0.33333333  0.33333333       0.056
 
 position of ions in fractional coordinates (direct lattice) 
   0.00077420  0.48538352  0.26522435
   0.74772366  0.21386476  0.26055778
   0.43080921  0.30049136  0.99912288
   0.27019639  0.01923071  0.02339992
   0.45360817  0.24627671  0.26424962
   0.23657964  0.47196006  0.23555763
   0.96427313  0.02837725  0.97518192
   0.79316232  0.33528728  0.00980800
   0.98004808  0.50233421  0.78537438
   0.83595276  0.20635811  0.79747547
   0.44303188  0.29223175  0.53554524
   0.32414144  0.02468933  0.55002443
   0.43685901  0.24741127  0.79966482
   0.28663689  0.49441399  0.79954119
   0.90869793  0.07547066  0.49760367
   0.78746799  0.31881185  0.51357997
   0.93360095  0.01150897  0.24739636
   0.75967897  0.74968599  0.27402149
   0.42216572  0.84386820  0.98643959
   0.27925761  0.56719281  0.04489537
   0.45950070  0.73047090  0.27492082
   0.26980370  0.99994024  0.28602626
   0.93478274  0.54383815  0.98102544
   0.81426416  0.83594468  0.03088903
   0.99065213  0.01656487  0.77879320
   0.77765052  0.70706225  0.77416042
   0.41998122  0.84376476  0.53994822
   0.23311611  0.55925027  0.49871388
   0.43690298  0.74498320  0.79886749
   0.26790147  0.04614609  0.81938601
   0.95282189  0.56553495  0.51961161
   0.80467311  0.83317440  0.54130148
   0.83797775  0.46142466  0.08083233
   0.12638123  0.48783281  0.06590068
   0.46138177  0.51260696  0.02794259
   0.80269806  0.03623606  0.28012558
   0.65534451  0.26777242  0.35746329
   0.99559556  0.28353241  0.33076611
   0.30879935  0.17880490  0.05519913
   0.64694133  0.22269036  0.07134966
   0.95384315  0.20705715  0.07529691
   0.36055457  0.33551516  0.35435653
   0.17862172  0.00283063  0.35162831
   0.39371604  0.03965222  0.27703775
   0.85456084  0.49695872  0.59352591
   0.09943881  0.44727291  0.57665460
   0.43578595  0.46551737  0.56021887
   0.85848843  0.04056349  0.85489331
   0.67035092  0.27095462  0.85390221
   0.01840609  0.33071727  0.81637967
   0.34146979  0.22240127  0.61990763
   0.65232687  0.22917608  0.58171694
   0.99601597  0.21803022  0.56951953
   0.33166508  0.30671601  0.87239151
   0.13028041  0.03314738  0.87806337
   0.49314616  0.03528140  0.87173136
   0.84193394  0.01502959  0.07665182
   0.13710188  0.04446470  0.08105010
   0.42597342  0.02183605  0.02842973
   0.85916349  0.57778302  0.33978179
   0.64142991  0.81277142  0.33093425
   0.01238550  0.82547913  0.31872607
   0.35833940  0.71352955  0.12385592
   0.67842913  0.73742940  0.10027683
   0.97785363  0.74543816  0.07214280
   0.30311923  0.83275423  0.31953977
   0.11250141  0.51962167  0.30796273
   0.46886610  0.59698609  0.33045288
   0.88541001  0.02702199  0.61809917
   0.12522292  0.03600863  0.58892086
   0.44311961  0.03768938  0.57071113
   0.89961835  0.57114276  0.86249330
   0.68952339  0.81388352  0.86844708
   0.98138761  0.83153203  0.84003808
   0.30848971  0.76887320  0.59051356
   0.69817595  0.71478792  0.59742854
   0.01751767  0.73288062  0.60332179
   0.34589788  0.83570691  0.86631520
   0.20015544  0.55503445  0.86648303
   0.43437437  0.57987996  0.81646936
 
 position of ions in cartesian coordinates  (Angst):
  -1.64076013  5.13842769  2.52856643
   5.10595519  2.26404186  2.48407681
  -2.33261140  3.18109920  9.52532668
   2.28465005  0.20358255  0.22308756
   2.43787836  2.60716529  2.51927366
   0.66427319  4.99632258  2.24573316
   2.61385535  0.30041079  9.29708102
   7.07240860  3.54946011  0.09350642
   3.93491934  5.31787321  7.48751499
   2.56381274  2.18457402  7.60288301
   0.65731893  3.09366028  5.10572169
  -0.50188052  0.26136927  5.24376179
  -1.03905653  2.61917611  7.62375559
  -2.38931794  5.23402718  7.62257694
   5.08102213  0.79895693  4.74399857
   3.89148138  3.37504586  4.89631164
   6.85941720  0.12183770  2.35859992
   5.12983167  7.93641954  2.61243563
  -2.33155129  8.93346302  9.40440814
   2.23260072  6.00448742  0.42801849
   2.42457759  7.73300235  2.62100956
   0.64953575 10.58569236  2.72688537
   2.31232895  5.75724740  9.35279132
   7.13122173  8.84958206  0.29448640
   4.07117334  0.17536110  7.42477206
   2.18431511  7.48519077  7.38060458
   0.42265799  8.93236797  5.14769834
  -1.00175096  5.92040511  4.75458297
  -1.03370762  7.88663427  7.61615410
  -2.68110298  0.48851751  7.81177128
   5.34112726  5.98693678  4.95381542
   3.87399479  8.82025498  5.16059990
   7.03421510  4.88479141  0.77063028
   0.72720323  5.16435667  0.62827658
   3.97586285  5.42662388  0.26639596
   5.47880377  0.38360671  2.67063012
   3.67310753  2.83472586  3.40794379
   6.89902874  3.00156624  3.15342118
   2.43427294  1.89288678  0.52625133
   5.37503204  2.35747253  0.68022546
   8.11064499  2.19197428  0.71785731
   1.04120173  3.55187253  3.37832491
  -0.57807039  0.02996597  3.35231491
   1.81978870  0.41977129  2.64119171
   3.99821481  5.26096652  5.65849136
  -2.68819545  4.73497639  5.49764554
   0.43886586  4.92811817  5.34095241
   2.40977638  0.42941829  8.15028683
   0.72391040  2.86841367  8.14083800
  -4.90627396  3.50108050  7.78310977
  -0.78019099  2.35441212  5.91000647
   2.25277836  2.42613247  5.54590832
   5.41953910  2.30813877  5.42962200
  -2.43694205  3.24699536  8.31710923
  -4.28334103  0.35090894  8.37118298
  -0.98055339  0.37350037  8.31081556
   7.09576695  0.15910812  0.73077460
   0.72950316  0.47071777  0.77270644
   3.65438985  0.23116352  0.27104020
   5.61601023  6.11659883  3.23937387
   3.71277927  8.60426240  3.15502418
  -1.86871617  8.73879035  3.03863519
   2.45327902  7.55365571  1.18080381
   5.47850715  7.80666729  0.95600810
   8.34617944  7.89145063  0.68778701
   0.74095570  8.81580692  3.04639275
  -0.90145125  5.50088388  2.93602085
   2.16380933  6.31988877  3.15043494
   4.12299530  0.28606357  5.89276518
  -2.53250980  0.38119906  5.61458825
   0.43963764  0.39899203  5.44098235
   2.73246477  6.04630288  8.22274277
   0.80597796  8.61603545  8.27950426
   3.60736480  8.80286832  8.00866169
  -0.89418633  8.13954158  5.62977255
   2.56751485  7.56697723  5.69569782
  -3.59062855  7.75851243  5.75188223
  -2.27118926  8.84706495  8.25917958
  -3.58297318  5.87577507  8.26077962
  -1.16580151  6.13879772  7.78396485
 


--------------------------------------------------------------------------------------------------------


 k-point  1 :   0.0000 0.0000 0.0000  plane waves:   23065
 k-point  2 :   0.2500 0.0000 0.0000  plane waves:   23046
 k-point  3 :   0.5000 0.0000 0.0000  plane waves:   23052
 k-point  4 :   0.0000 0.3333 0.0000  plane waves:   23046
 k-point  5 :   0.2500 0.3333 0.0000  plane waves:   23039
 k-point  6 :   0.5000 0.3333 0.0000  plane waves:   23048
 k-point  7 :  -0.2500 0.3333-0.0000  plane waves:   23039
 k-point  8 :   0.0000 0.0000 0.3333  plane waves:   23033
 k-point  9 :   0.2500 0.0000 0.3333  plane waves:   23050
 k-point 10 :   0.5000 0.0000 0.3333  plane waves:   23034
 k-point 11 :  -0.2500 0.0000 0.3333  plane waves:   23061
 k-point 12 :   0.0000 0.3333 0.3333  plane waves:   23053
 k-point 13 :   0.2500 0.3333 0.3333  plane waves:   23053
 k-point 14 :   0.5000 0.3333 0.3333  plane waves:   23038
 k-point 15 :  -0.2500 0.3333 0.3333  plane waves:   23030
 k-point 16 :   0.0000-0.3333 0.3333  plane waves:   23053
 k-point 17 :   0.2500-0.3333 0.3333  plane waves:   23053
 k-point 18 :   0.5000-0.3333 0.3333  plane waves:   23038
 k-point 19 :  -0.2500-0.3333 0.3333  plane waves:   23030

 maximum and minimum number of plane-waves per node :     23065    23030

 maximum number of plane-waves:     23065
 maximum index in each direction: 
   IXMAX=   16   IYMAX=   19   IZMAX=   20
   IXMIN=  -16   IYMIN=  -19   IZMIN=  -21

 The following grids will avoid any aliasing or wrap around errors in the Hartre
 e energy
  - symmetry arguments have not been applied
  - exchange correlation energies might require even more grid points
  - we recommend to set PREC=Normal or Accurate and rely on VASP defaults
 NGX is ok and might be reduce to    70
 NGY is ok and might be reduce to    80
 NGZ is ok and might be reduce to    84

 serial   3D FFT for wavefunctions
 parallel 3D FFT for charge:
    minimum data exchange during FFTs selected (reduces bandwidth)


 total amount of memory used by VASP MPI-rank0   532968. kBytes
=======================================================================

   base      :      30000. kBytes
   nonlr-proj:      53134. kBytes
   fftplans  :      10100. kBytes
   grid      :      57349. kBytes
   one-center:       2488. kBytes
   wavefun   :     379897. kBytes
 
     INWAV:  cpu time    0.0000: real time    0.0000
 Broyden mixing: mesh for mixing (old mesh)
   NGX = 33   NGY = 39   NGZ = 41
  (NGX  =140   NGY  =160   NGZ  =168)
  gives a total of  52767 points

 initial charge density was supplied:
 charge density of overlapping atoms calculated
 number of electron     608.0000000 magnetization      80.0000000
 keeping initial charge density in first step


--------------------------------------------------------------------------------------------------------


 Maximum index for non-local projection operator         6771
 Maximum index for augmentation-charges         1214 (set IRDMAX)


--------------------------------------------------------------------------------------------------------


 First call to EWALD:  gamma=   0.183
 Maximum number of real-space cells 3x 3x 3
 Maximum number of reciprocal cells 3x 3x 3

    FEWALD:  cpu time    0.0039: real time    0.0039


--------------------------------------- Iteration      1(   1)  ---------------------------------------


    POTLOK:  cpu time    0.2631: real time    0.2664
    SETDIJ:  cpu time    0.0272: real time    0.0273
     EDDAV:  cpu time  120.3558: real time  120.6550
    --------------------------------------------
      LOOP:  cpu time  120.6488: real time  120.9514

 eigenvalue-minimisations  : 31616
 total energy-change (2. order) : 0.7973121E+04  (-0.2577560E+05)
 number of electron     608.0000000 magnetization      80.0000000
 augmentation part      608.0000000 magnetization      80.0000000

 Free energy of the ion-electron system (eV)
  ---------------------------------------------------
  alpha Z        PSCENC =      1837.76445990
  Ewald energy   TEWEN  =    -34777.34906014
  -Hartree energ DENC   =    -21262.56272570
  -exchange      EXHF   =         0.00000000
  -V(xc)+E(xc)   XCENC  =      2408.47199077
  PAW double counting   =     47387.14975297   -49597.44882166
  entropy T*S    EENTRO =        -0.01128340
  eigenvalues    EBANDS =      6839.89332254
  atomic energy  EATOM  =     55137.21312455
  Solvation  Ediel_sol  =         0.00000000
  ---------------------------------------------------
  free energy    TOTEN  =      7973.12075984 eV

  energy without entropy =     7973.13204323  energy(sigma->0) =     7973.12640154


--------------------------------------------------------------------------------------------------------




--------------------------------------- Iteration      1(   2)  ---------------------------------------


     EDDAV:  cpu time  120.1239: real time  120.4078
    --------------------------------------------
      LOOP:  cpu time  120.1239: real time  120.4078

 eigenvalue-minimisations  : 31616
 total energy-change (2. order) :-0.6539206E+04  (-0.5898122E+04)
 number of electron     608.0000000 magnetization      80.0000000
 augmentation part      608.0000000 magnetization      80.0000000

 Free energy of the ion-electron system (eV)
  ---------------------------------------------------
  alpha Z        PSCENC =      1837.76445990
  Ewald energy   TEWEN  =    -34777.34906014
  -Hartree energ DENC   =    -21262.56272570
  -exchange      EXHF   =         0.00000000
  -V(xc)+E(xc)   XCENC  =      2408.47199077
  PAW double counting   =     47387.14975297   -49597.44882166
  entropy T*S    EENTRO =        -0.03701595
  eigenvalues    EBANDS =       300.71340397
  atomic energy  EATOM  =     55137.21312455
  Solvation  Ediel_sol  =         0.00000000
  ---------------------------------------------------
  free energy    TOTEN  =      1433.91510870 eV

  energy without entropy =     1433.95212466  energy(sigma->0) =     1433.93361668


--------------------------------------------------------------------------------------------------------




--------------------------------------- Iteration      1(   3)  ---------------------------------------


     EDDAV:  cpu time  122.9955: real time  123.2863
    --------------------------------------------
      LOOP:  cpu time  122.9955: real time  123.2863

 eigenvalue-minimisations  : 32576
 total energy-change (2. order) :-0.1679989E+04  (-0.1495992E+04)
 number of electron     608.0000000 magnetization      80.0000000
 augmentation part      608.0000000 magnetization      80.0000000

 Free energy of the ion-electron system (eV)
  ---------------------------------------------------
  alpha Z        PSCENC =      1837.76445990
  Ewald energy   TEWEN  =    -34777.34906014
  -Hartree energ DENC   =    -21262.56272570
  -exchange      EXHF   =         0.00000000
  -V(xc)+E(xc)   XCENC  =      2408.47199077
  PAW double counting   =     47387.14975297   -49597.44882166
  entropy T*S    EENTRO =        -0.10151003
  eigenvalues    EBANDS =     -1379.21126598
  atomic energy  EATOM  =     55137.21312455
  Solvation  Ediel_sol  =         0.00000000
  ---------------------------------------------------
  free energy    TOTEN  =      -246.07405532 eV

  energy without entropy =     -245.97254529  energy(sigma->0) =     -246.02330030


--------------------------------------------------------------------------------------------------------




--------------------------------------- Iteration      1(   4)  ---------------------------------------


     EDDAV:  cpu time  131.6786: real time  131.9899
    --------------------------------------------
      LOOP:  cpu time  131.6787: real time  131.9900

 eigenvalue-minimisations  : 35360
 total energy-change (2. order) :-0.2094424E+03  (-0.2005308E+03)
 number of electron     608.0000000 magnetization      80.0000000
 augmentation part      608.0000000 magnetization      80.0000000

 Free energy of the ion-electron system (eV)
  ---------------------------------------------------
  alpha Z        PSCENC =      1837.76445990
  Ewald energy   TEWEN  =    -34777.34906014
  -Hartree energ DENC   =    -21262.56272570
  -exchange      EXHF   =         0.00000000
  -V(xc)+E(xc)   XCENC  =      2408.47199077
  PAW double counting   =     47387.14975297   -49597.44882166
  entropy T*S    EENTRO =        -0.11056453
  eigenvalues    EBANDS =     -1588.64460527
  atomic energy  EATOM  =     55137.21312455
  Solvation  Ediel_sol  =         0.00000000
  ---------------------------------------------------
  free energy    TOTEN  =      -455.51644912 eV

  energy without entropy =     -455.40588459  energy(sigma->0) =     -455.46116685


--------------------------------------------------------------------------------------------------------




--------------------------------------- Iteration      1(   5)  ---------------------------------------


     EDDAV:  cpu time  130.9843: real time  131.2940
    CHARGE:  cpu time    5.3150: real time    5.3276
    MIXING:  cpu time    0.0049: real time    0.0049
    --------------------------------------------
      LOOP:  cpu time  136.3015: real time  136.6238

 eigenvalue-minimisations  : 35216
 total energy-change (2. order) :-0.6052213E+01  (-0.6012348E+01)
 number of electron     607.9999989 magnetization      78.7687248
 augmentation part      200.9325064 magnetization      57.8300753

 Broyden mixing:
  rms(total) = 0.27878E+02    rms(broyden)= 0.27877E+02
  rms(prec ) = 0.29516E+02
  weight for this iteration     100.00

 Free energy of the ion-electron system (eV)
  ---------------------------------------------------
  alpha Z        PSCENC =      1837.76445990
  Ewald energy   TEWEN  =    -34777.34906014
  -Hartree energ DENC   =    -21262.56272570
  -exchange      EXHF   =         0.00000000
  -V(xc)+E(xc)   XCENC  =      2408.47199077
  PAW double counting   =     47387.14975297   -49597.44882166
  entropy T*S    EENTRO =        -0.11033943
  eigenvalues    EBANDS =     -1594.69704319
  atomic energy  EATOM  =     55137.21312455
  Solvation  Ediel_sol  =         0.00000000
  ---------------------------------------------------
  free energy    TOTEN  =      -461.56866193 eV

  energy without entropy =     -461.45832250  energy(sigma->0) =     -461.51349221


--------------------------------------------------------------------------------------------------------




--------------------------------------- Iteration      1(   6)  ---------------------------------------


    POTLOK:  cpu time    0.2441: real time    0.2446
    SETDIJ:  cpu time    0.0279: real time    0.0280
     EDDAV:  cpu time  166.5764: real time  166.9701
    CHARGE:  cpu time    5.1309: real time    5.1430
    MIXING:  cpu time    0.0053: real time    0.0053
    --------------------------------------------
      LOOP:  cpu time  171.9845: real time  172.3910

 eigenvalue-minimisations  : 47792
 total energy-change (2. order) :-0.2779200E+03  (-0.1338323E+03)
 number of electron     607.9999974 magnetization      66.6767776
 augmentation part      246.8373686 magnetization      64.5191337

 Broyden mixing:
  rms(total) = 0.31359E+02    rms(broyden)= 0.31358E+02
  rms(prec ) = 0.35609E+02
  weight for this iteration     100.00

 eigenvalues of (default mixing * dielectric matrix)
  average eigenvalue GAMMA=   0.3785
  0.3785

 Free energy of the ion-electron system (eV)
  ---------------------------------------------------
  alpha Z        PSCENC =      1837.76445990
  Ewald energy   TEWEN  =    -34777.34906014
  -Hartree energ DENC   =    -20556.57390382
  -exchange      EXHF   =         0.00000000
  -V(xc)+E(xc)   XCENC  =      2418.43208478
  PAW double counting   =     58241.23121892   -60240.86531584
  entropy T*S    EENTRO =        -0.03891566
  eigenvalues    EBANDS =     -2799.30236650
  atomic energy  EATOM  =     55137.21312455
  Solvation  Ediel_sol  =         0.00000000
  ---------------------------------------------------
  free energy    TOTEN  =      -739.48867380 eV

  energy without entropy =     -739.44975814  energy(sigma->0) =     -739.46921597


--------------------------------------------------------------------------------------------------------




--------------------------------------- Iteration      1(   7)  ---------------------------------------


    POTLOK:  cpu time    0.2371: real time    0.2376
    SETDIJ:  cpu time    0.0278: real time    0.0278
     EDDAV:  cpu time  137.1451: real time  137.4693
    CHARGE:  cpu time    5.2284: real time    5.2407
    MIXING:  cpu time    0.0053: real time    0.0053
    --------------------------------------------
      LOOP:  cpu time  142.6435: real time  142.9807

 eigenvalue-minimisations  : 37568
 total energy-change (2. order) : 0.3536619E+03  (-0.7150956E+02)
 number of electron     607.9999982 magnetization      56.0081161
 augmentation part      238.4865421 magnetization      46.2561292

 Broyden mixing:
  rms(total) = 0.23537E+02    rms(broyden)= 0.23536E+02
  rms(prec ) = 0.26019E+02
  weight for this iteration     100.00

 eigenvalues of (default mixing * dielectric matrix)
  average eigenvalue GAMMA=   0.4470
  0.5445  0.3494

 Free energy of the ion-electron system (eV)
  ---------------------------------------------------
  alpha Z        PSCENC =      1837.76445990
  Ewald energy   TEWEN  =    -34777.34906014
  -Hartree energ DENC   =    -20768.97136728
  -exchange      EXHF   =         0.00000000
  -V(xc)+E(xc)   XCENC  =      2400.27248128
  PAW double counting   =     62090.08837917   -64307.37336435
  entropy T*S    EENTRO =        -0.06155072
  eigenvalues    EBANDS =     -1997.40987497
  atomic energy  EATOM  =     55137.21312455
  Solvation  Ediel_sol  =         0.00000000
  ---------------------------------------------------
  free energy    TOTEN  =      -385.82677257 eV

  energy without entropy =     -385.76522185  energy(sigma->0) =     -385.79599721


--------------------------------------------------------------------------------------------------------




--------------------------------------- Iteration      1(   8)  ---------------------------------------


    POTLOK:  cpu time    0.2377: real time    0.2383
    SETDIJ:  cpu time    0.0278: real time    0.0279
     EDDAV:  cpu time  136.5119: real time  136.8345
    CHARGE:  cpu time    5.2378: real time    5.2502
    MIXING:  cpu time    0.0055: real time    0.0056
    --------------------------------------------
      LOOP:  cpu time  142.0207: real time  142.3564

 eigenvalue-minimisations  : 37280
 total energy-change (2. order) : 0.2376971E+02  (-0.5125092E+02)
 number of electron     607.9999989 magnetization      40.8730630
 augmentation part      212.9370191 magnetization      31.3271520

 Broyden mixing:
  rms(total) = 0.17980E+02    rms(broyden)= 0.17979E+02
  rms(prec ) = 0.22354E+02
  weight for this iteration     100.00

 eigenvalues of (default mixing * dielectric matrix)
  average eigenvalue GAMMA=   0.6438
  1.3173  0.3319  0.2821

 Free energy of the ion-electron system (eV)
  ---------------------------------------------------
  alpha Z        PSCENC =      1837.76445990
  Ewald energy   TEWEN  =    -34777.34906014
  -Hartree energ DENC   =    -21037.59534279
  -exchange      EXHF   =         0.00000000
  -V(xc)+E(xc)   XCENC  =      2400.21136662
  PAW double counting   =     66643.35666469   -69060.28567522
  entropy T*S    EENTRO =        -0.09543200
  eigenvalues    EBANDS =     -1505.27716336
  atomic energy  EATOM  =     55137.21312455
  Solvation  Ediel_sol  =         0.00000000
  ---------------------------------------------------
  free energy    TOTEN  =      -362.05705775 eV

  energy without entropy =     -361.96162575  energy(sigma->0) =     -362.00934175


--------------------------------------------------------------------------------------------------------




--------------------------------------- Iteration      1(   9)  ---------------------------------------


    POTLOK:  cpu time    0.2339: real time    0.2344
    SETDIJ:  cpu time    0.0272: real time    0.0272
     EDDAV:  cpu time  138.4899: real time  138.8172
    CHARGE:  cpu time    5.0889: real time    5.1010
    MIXING:  cpu time    0.0055: real time    0.0055
    --------------------------------------------
      LOOP:  cpu time  143.8454: real time  144.1854

 eigenvalue-minimisations  : 38544
 total energy-change (2. order) :-0.3277430E+03  (-0.7555511E+02)
 number of electron     607.9999979 magnetization      26.7866867
 augmentation part      205.3024989 magnetization      22.4015447

 Broyden mixing:
  rms(total) = 0.22710E+02    rms(broyden)= 0.22710E+02
  rms(prec ) = 0.31914E+02
  weight for this iteration     100.00

 eigenvalues of (default mixing * dielectric matrix)
  average eigenvalue GAMMA=   0.6692
  1.8064  0.3370  0.3370  0.1964

 Free energy of the ion-electron system (eV)
  ---------------------------------------------------
  alpha Z        PSCENC =      1837.76445990
  Ewald energy   TEWEN  =    -34777.34906014
  -Hartree energ DENC   =    -21020.70589139
  -exchange      EXHF   =         0.00000000
  -V(xc)+E(xc)   XCENC  =      2400.57032134
  PAW double counting   =     73378.54006857   -75914.14812542
  entropy T*S    EENTRO =        -0.03533502
  eigenvalues    EBANDS =     -1731.64959500
  atomic energy  EATOM  =     55137.21312455
  Solvation  Ediel_sol  =         0.00000000
  ---------------------------------------------------
  free energy    TOTEN  =      -689.80003260 eV

  energy without entropy =     -689.76469758  energy(sigma->0) =     -689.78236509


--------------------------------------------------------------------------------------------------------




--------------------------------------- Iteration      1(  10)  ---------------------------------------


    POTLOK:  cpu time    0.2301: real time    0.2306
    SETDIJ:  cpu time    0.0272: real time    0.0273
     EDDAV:  cpu time  149.1982: real time  149.5507
    CHARGE:  cpu time    5.1956: real time    5.2079
    MIXING:  cpu time    0.0059: real time    0.0060
    --------------------------------------------
      LOOP:  cpu time  154.6570: real time  155.0225

 eigenvalue-minimisations  : 42080
 total energy-change (2. order) : 0.1378079E+03  (-0.3991659E+02)
 number of electron     607.9999981 magnetization      22.4412521
 augmentation part      216.0986478 magnetization      17.0290472

 Broyden mixing:
  rms(total) = 0.18737E+02    rms(broyden)= 0.18736E+02
  rms(prec ) = 0.26155E+02
  weight for this iteration     100.00

 eigenvalues of (default mixing * dielectric matrix)
  average eigenvalue GAMMA=   0.6108
  1.9038  0.4444  0.2735  0.2735  0.1590

 Free energy of the ion-electron system (eV)
  ---------------------------------------------------
  alpha Z        PSCENC =      1837.76445990
  Ewald energy   TEWEN  =    -34777.34906014
  -Hartree energ DENC   =    -20816.68881278
  -exchange      EXHF   =         0.00000000
  -V(xc)+E(xc)   XCENC  =      2400.69047473
  PAW double counting   =     78604.79484807   -81163.41030576
  entropy T*S    EENTRO =        -0.05007780
  eigenvalues    EBANDS =     -1774.95679633
  atomic energy  EATOM  =     55137.21312455
  Solvation  Ediel_sol  =         0.00000000
  ---------------------------------------------------
  free energy    TOTEN  =      -551.99214556 eV

  energy without entropy =     -551.94206776  energy(sigma->0) =     -551.96710666


--------------------------------------------------------------------------------------------------------




--------------------------------------- Iteration      1(  11)  ---------------------------------------


    POTLOK:  cpu time    0.2358: real time    0.2364
    SETDIJ:  cpu time    0.0274: real time    0.0274
     EDDAV:  cpu time  150.8087: real time  151.1652
    CHARGE:  cpu time    5.1021: real time    5.1141
    MIXING:  cpu time    0.0062: real time    0.0062
    --------------------------------------------
      LOOP:  cpu time  156.1802: real time  156.5493

 eigenvalue-minimisations  : 42752
 total energy-change (2. order) : 0.1681426E+03  (-0.2677620E+02)
 number of electron     607.9999974 magnetization      21.2371654
 augmentation part      226.1074605 magnetization      15.9520889

 Broyden mixing:
  rms(total) = 0.15262E+02    rms(broyden)= 0.15261E+02
  rms(prec ) = 0.19559E+02
  weight for this iteration     100.00

 eigenvalues of (default mixing * dielectric matrix)
  average eigenvalue GAMMA=   0.5458
  1.8807  0.4697  0.3043  0.3043  0.1743  0.1416

 Free energy of the ion-electron system (eV)
  ---------------------------------------------------
  alpha Z        PSCENC =      1837.76445990
  Ewald energy   TEWEN  =    -34777.34906014
  -Hartree energ DENC   =    -20705.87585927
  -exchange      EXHF   =         0.00000000
  -V(xc)+E(xc)   XCENC  =      2396.83366036
  PAW double counting   =     79786.22897844   -82334.88764518
  entropy T*S    EENTRO =        -0.05068610
  eigenvalues    EBANDS =     -1723.72649536
  atomic energy  EATOM  =     55137.21312455
  Solvation  Ediel_sol  =         0.00000000
  ---------------------------------------------------
  free energy    TOTEN  =      -383.84952280 eV

  energy without entropy =     -383.79883670  energy(sigma->0) =     -383.82417975


--------------------------------------------------------------------------------------------------------




--------------------------------------- Iteration      1(  12)  ---------------------------------------


    POTLOK:  cpu time    0.2299: real time    0.2305
    SETDIJ:  cpu time    0.0274: real time    0.0275
     EDDAV:  cpu time  145.7313: real time  146.0757
    CHARGE:  cpu time    5.2489: real time    5.2613
    MIXING:  cpu time    0.0062: real time    0.0063
    --------------------------------------------
      LOOP:  cpu time  151.2439: real time  151.6013

 eigenvalue-minimisations  : 40960
 total energy-change (2. order) : 0.7306623E+02  (-0.1717033E+02)
 number of electron     607.9999981 magnetization      21.6436021
 augmentation part      228.7176098 magnetization      17.0497918

 Broyden mixing:
  rms(total) = 0.10289E+02    rms(broyden)= 0.10288E+02
  rms(prec ) = 0.12562E+02
  weight for this iteration     100.00

 eigenvalues of (default mixing * dielectric matrix)
  average eigenvalue GAMMA=   0.4910
  1.6919  0.5397  0.3467  0.3467  0.2005  0.1557  0.1557

 Free energy of the ion-electron system (eV)
  ---------------------------------------------------
  alpha Z        PSCENC =      1837.76445990
  Ewald energy   TEWEN  =    -34777.34906014
  -Hartree energ DENC   =    -20713.92625236
  -exchange      EXHF   =         0.00000000
  -V(xc)+E(xc)   XCENC  =      2393.04570706
  PAW double counting   =     79848.74720712   -82400.40041895
  entropy T*S    EENTRO =        -0.07125632
  eigenvalues    EBANDS =     -1635.80680537
  atomic energy  EATOM  =     55137.21312455
  Solvation  Ediel_sol  =         0.00000000
  ---------------------------------------------------
  free energy    TOTEN  =      -310.78329449 eV

  energy without entropy =     -310.71203818  energy(sigma->0) =     -310.74766633


--------------------------------------------------------------------------------------------------------




--------------------------------------- Iteration      1(  13)  ---------------------------------------


    POTLOK:  cpu time    0.2346: real time    0.2352
    SETDIJ:  cpu time    0.0273: real time    0.0274
     EDDAV:  cpu time  149.8642: real time  150.2183
    CHARGE:  cpu time    5.2720: real time    5.2845
    MIXING:  cpu time    0.0067: real time    0.0067
    --------------------------------------------
      LOOP:  cpu time  155.4048: real time  155.7720

 eigenvalue-minimisations  : 42416
 total energy-change (2. order) : 0.1954212E+02  (-0.8953543E+01)
 number of electron     607.9999985 magnetization      21.3042209
 augmentation part      222.5494970 magnetization      16.8959047

 Broyden mixing:
  rms(total) = 0.87805E+01    rms(broyden)= 0.87795E+01
  rms(prec ) = 0.11398E+02
  weight for this iteration     100.00

 eigenvalues of (default mixing * dielectric matrix)
  average eigenvalue GAMMA=   0.4496
  1.5996  0.4571  0.4571  0.3035  0.3035  0.1721  0.1721  0.1323

 Free energy of the ion-electron system (eV)
  ---------------------------------------------------
  alpha Z        PSCENC =      1837.76445990
  Ewald energy   TEWEN  =    -34777.34906014
  -Hartree energ DENC   =    -20768.62027807
  -exchange      EXHF   =         0.00000000
  -V(xc)+E(xc)   XCENC  =      2389.36093938
  PAW double counting   =     79012.00273059   -81559.83731800
  entropy T*S    EENTRO =        -0.08887495
  eigenvalues    EBANDS =     -1561.68689738
  atomic energy  EATOM  =     55137.21312455
  Solvation  Ediel_sol  =         0.00000000
  ---------------------------------------------------
  free energy    TOTEN  =      -291.24117411 eV

  energy without entropy =     -291.15229916  energy(sigma->0) =     -291.19673664


--------------------------------------------------------------------------------------------------------




--------------------------------------- Iteration      1(  14)  ---------------------------------------


    POTLOK:  cpu time    0.2325: real time    0.2331
    SETDIJ:  cpu time    0.0273: real time    0.0274
     EDDAV:  cpu time  147.7306: real time  148.0797
    CHARGE:  cpu time    5.0559: real time    5.0678
    MIXING:  cpu time    0.0068: real time    0.0068
    --------------------------------------------
      LOOP:  cpu time  153.0531: real time  153.4148

 eigenvalue-minimisations  : 42016
 total energy-change (2. order) : 0.8158021E+01  (-0.7949368E+01)
 number of electron     607.9999986 magnetization      20.2317839
 augmentation part      223.0826895 magnetization      16.0167295

 Broyden mixing:
  rms(total) = 0.68324E+01    rms(broyden)= 0.68319E+01
  rms(prec ) = 0.88302E+01
  weight for this iteration     100.00

 eigenvalues of (default mixing * dielectric matrix)
  average eigenvalue GAMMA=   0.4355
  1.5476  0.5605  0.5605  0.3161  0.3161  0.1836  0.1836  0.1333  0.1184

 Free energy of the ion-electron system (eV)
  ---------------------------------------------------
  alpha Z        PSCENC =      1837.76445990
  Ewald energy   TEWEN  =    -34777.34906014
  -Hartree energ DENC   =    -20759.65566397
  -exchange      EXHF   =         0.00000000
  -V(xc)+E(xc)   XCENC  =      2387.63637437
  PAW double counting   =     78708.76860813   -81243.86516359
  entropy T*S    EENTRO =        -0.07873485
  eigenvalues    EBANDS =     -1573.51709768
  atomic energy  EATOM  =     55137.21312455
  Solvation  Ediel_sol  =         0.00000000
  ---------------------------------------------------
  free energy    TOTEN  =      -283.08315328 eV

  energy without entropy =     -283.00441843  energy(sigma->0) =     -283.04378586


--------------------------------------------------------------------------------------------------------




--------------------------------------- Iteration      1(  15)  ---------------------------------------


    POTLOK:  cpu time    0.2301: real time    0.2306
    SETDIJ:  cpu time    0.0273: real time    0.0273
     EDDAV:  cpu time  146.5835: real time  146.9300
    CHARGE:  cpu time    5.0633: real time    5.0753
    MIXING:  cpu time    0.0069: real time    0.0069
    --------------------------------------------
      LOOP:  cpu time  151.9110: real time  152.2701

 eigenvalue-minimisations  : 41728
 total energy-change (2. order) : 0.2694358E+01  (-0.3946612E+01)
 number of electron     607.9999981 magnetization      19.0454567
 augmentation part      224.8808260 magnetization      14.8464500

 Broyden mixing:
  rms(total) = 0.57318E+01    rms(broyden)= 0.57312E+01
  rms(prec ) = 0.74398E+01
  weight for this iteration     100.00

 eigenvalues of (default mixing * dielectric matrix)
  average eigenvalue GAMMA=   0.4175
  1.5076  0.5980  0.5980  0.3478  0.3478  0.1975  0.1610  0.1610  0.1455  0.1111

 Free energy of the ion-electron system (eV)
  ---------------------------------------------------
  alpha Z        PSCENC =      1837.76445990
  Ewald energy   TEWEN  =    -34777.34906014
  -Hartree energ DENC   =    -20740.42611138
  -exchange      EXHF   =         0.00000000
  -V(xc)+E(xc)   XCENC  =      2386.08281328
  PAW double counting   =     78697.93313699   -81216.87806472
  entropy T*S    EENTRO =        -0.08835065
  eigenvalues    EBANDS =     -1604.64074301
  atomic energy  EATOM  =     55137.21312455
  Solvation  Ediel_sol  =         0.00000000
  ---------------------------------------------------
  free energy    TOTEN  =      -280.38879519 eV

  energy without entropy =     -280.30044454  energy(sigma->0) =     -280.34461987


--------------------------------------------------------------------------------------------------------




--------------------------------------- Iteration      1(  16)  ---------------------------------------


    POTLOK:  cpu time    0.2209: real time    0.2214
    SETDIJ:  cpu time    0.0262: real time    0.0263
     EDDAV:  cpu time  134.5209: real time  134.8388
    CHARGE:  cpu time    5.0363: real time    5.0482
    MIXING:  cpu time    0.0079: real time    0.0153
    --------------------------------------------
      LOOP:  cpu time  139.8122: real time  140.1499

 eigenvalue-minimisations  : 37856
 total energy-change (2. order) : 0.3682261E+01  (-0.2888701E+01)
 number of electron     607.9999984 magnetization      17.8690669
 augmentation part      225.6827229 magnetization      13.6784679

 Broyden mixing:
  rms(total) = 0.41956E+01    rms(broyden)= 0.41951E+01
  rms(prec ) = 0.51212E+01
  weight for this iteration     100.00

 eigenvalues of (default mixing * dielectric matrix)
  average eigenvalue GAMMA=   0.4212
  1.4349  0.6683  0.6683  0.4808  0.3219  0.3219  0.1740  0.1740  0.1617  0.1224
  0.1050

 Free energy of the ion-electron system (eV)
  ---------------------------------------------------
  alpha Z        PSCENC =      1837.76445990
  Ewald energy   TEWEN  =    -34777.34906014
  -Hartree energ DENC   =    -20735.26366373
  -exchange      EXHF   =         0.00000000
  -V(xc)+E(xc)   XCENC  =      2385.16106816
  PAW double counting   =     78840.51520431   -81348.70044075
  entropy T*S    EENTRO =        -0.08561266
  eigenvalues    EBANDS =     -1615.96161339
  atomic energy  EATOM  =     55137.21312455
  Solvation  Ediel_sol  =         0.00000000
  ---------------------------------------------------
  free energy    TOTEN  =      -276.70653374 eV

  energy without entropy =     -276.62092108  energy(sigma->0) =     -276.66372741


--------------------------------------------------------------------------------------------------------




--------------------------------------- Iteration      1(  17)  ---------------------------------------


    POTLOK:  cpu time    0.2170: real time    0.2175
    SETDIJ:  cpu time    0.0263: real time    0.0264
     EDDAV:  cpu time  137.7113: real time  138.0367
    CHARGE:  cpu time    4.8542: real time    4.8657
    MIXING:  cpu time    0.0074: real time    0.0074
    --------------------------------------------
      LOOP:  cpu time  142.8162: real time  143.1537

 eigenvalue-minimisations  : 39088
 total energy-change (2. order) :-0.5041790E+00  (-0.1247743E+01)
 number of electron     607.9999987 magnetization      16.8023854
 augmentation part      225.1236222 magnetization      12.7087664

 Broyden mixing:
  rms(total) = 0.44295E+01    rms(broyden)= 0.44291E+01
  rms(prec ) = 0.52554E+01
  weight for this iteration     100.00

 eigenvalues of (default mixing * dielectric matrix)
  average eigenvalue GAMMA=   0.4271
  1.3569  0.8532  0.8532  0.5416  0.3215  0.3215  0.2024  0.1631  0.1631  0.1338
  0.1076  0.1076

 Free energy of the ion-electron system (eV)
  ---------------------------------------------------
  alpha Z        PSCENC =      1837.76445990
  Ewald energy   TEWEN  =    -34777.34906014
  -Hartree energ DENC   =    -20733.43561179
  -exchange      EXHF   =         0.00000000
  -V(xc)+E(xc)   XCENC  =      2384.18784892
  PAW double counting   =     78992.61134814   -81491.26346790
  entropy T*S    EENTRO =        -0.08656506
  eigenvalues    EBANDS =     -1626.85278934
  atomic energy  EATOM  =     55137.21312455
  Solvation  Ediel_sol  =         0.00000000
  ---------------------------------------------------
  free energy    TOTEN  =      -277.21071271 eV

  energy without entropy =     -277.12414765  energy(sigma->0) =     -277.16743018


--------------------------------------------------------------------------------------------------------




--------------------------------------- Iteration      1(  18)  ---------------------------------------


    POTLOK:  cpu time    0.2142: real time    0.2147
    SETDIJ:  cpu time    0.0262: real time    0.0263
     EDDAV:  cpu time  137.5479: real time  137.8729
    CHARGE:  cpu time    4.8469: real time    4.8584
    MIXING:  cpu time    0.0078: real time    0.0078
    --------------------------------------------
      LOOP:  cpu time  142.6430: real time  142.9801

 eigenvalue-minimisations  : 39616
 total energy-change (2. order) : 0.1018184E+00  (-0.1130832E+01)
 number of electron     607.9999983 magnetization      16.0144535
 augmentation part      224.6911825 magnetization      12.1976418

 Broyden mixing:
  rms(total) = 0.36341E+01    rms(broyden)= 0.36337E+01
  rms(prec ) = 0.45326E+01
  weight for this iteration     100.00

 eigenvalues of (default mixing * dielectric matrix)
  average eigenvalue GAMMA=   0.4303
  1.2752  1.0123  1.0123  0.5507  0.3261  0.3261  0.2660  0.1743  0.1743  0.1282
  0.1282  0.1178  0.1023

 Free energy of the ion-electron system (eV)
  ---------------------------------------------------
  alpha Z        PSCENC =      1837.76445990
  Ewald energy   TEWEN  =    -34777.34906014
  -Hartree energ DENC   =    -20740.75415889
  -exchange      EXHF   =         0.00000000
  -V(xc)+E(xc)   XCENC  =      2383.50723371
  PAW double counting   =     79092.20328388   -81582.49926506
  entropy T*S    EENTRO =        -0.08789189
  eigenvalues    EBANDS =     -1627.10662039
  atomic energy  EATOM  =     55137.21312455
  Solvation  Ediel_sol  =         0.00000000
  ---------------------------------------------------
  free energy    TOTEN  =      -277.10889433 eV

  energy without entropy =     -277.02100243  energy(sigma->0) =     -277.06494838


--------------------------------------------------------------------------------------------------------




--------------------------------------- Iteration      1(  19)  ---------------------------------------


    POTLOK:  cpu time    0.2143: real time    0.2148
    SETDIJ:  cpu time    0.0258: real time    0.0259
     EDDAV:  cpu time  139.8338: real time  140.1642
    CHARGE:  cpu time    4.9004: real time    4.9120
    MIXING:  cpu time    0.0081: real time    0.0081
    --------------------------------------------
      LOOP:  cpu time  144.9824: real time  145.3250

 eigenvalue-minimisations  : 40416
 total energy-change (2. order) : 0.7197240E+00  (-0.7244128E+00)
 number of electron     607.9999987 magnetization      13.3187933
 augmentation part      224.3008679 magnetization       9.3243011

 Broyden mixing:
  rms(total) = 0.27648E+01    rms(broyden)= 0.27645E+01
  rms(prec ) = 0.33079E+01
  weight for this iteration     100.00

 eigenvalues of (default mixing * dielectric matrix)
  average eigenvalue GAMMA=   0.4790
  1.3885  1.3885  1.2582  0.5076  0.5076  0.3233  0.3233  0.1711  0.1711  0.1897
  0.1579  0.1166  0.1080  0.0941

 Free energy of the ion-electron system (eV)
  ---------------------------------------------------
  alpha Z        PSCENC =      1837.76445990
  Ewald energy   TEWEN  =    -34777.34906014
  -Hartree energ DENC   =    -20744.77645023
  -exchange      EXHF   =         0.00000000
  -V(xc)+E(xc)   XCENC  =      2383.00602335
  PAW double counting   =     79100.85630854   -81583.09127184
  entropy T*S    EENTRO =        -0.10097195
  eigenvalues    EBANDS =     -1629.91133256
  atomic energy  EATOM  =     55137.21312455
  Solvation  Ediel_sol  =         0.00000000
  ---------------------------------------------------
  free energy    TOTEN  =      -276.38917036 eV

  energy without entropy =     -276.28819842  energy(sigma->0) =     -276.33868439


--------------------------------------------------------------------------------------------------------




--------------------------------------- Iteration      1(  20)  ---------------------------------------


    POTLOK:  cpu time    0.2162: real time    0.2167
    SETDIJ:  cpu time    0.0260: real time    0.0261
     EDDAV:  cpu time  144.9658: real time  145.3083
    CHARGE:  cpu time    4.8477: real time    4.8592
    MIXING:  cpu time    0.0084: real time    0.0084
    --------------------------------------------
      LOOP:  cpu time  150.0642: real time  150.4188

 eigenvalue-minimisations  : 42160
 total energy-change (2. order) :-0.4766857E+01  (-0.1164246E+01)
 number of electron     607.9999981 magnetization       9.4618651
 augmentation part      224.5836550 magnetization       5.6956687

 Broyden mixing:
  rms(total) = 0.44457E+01    rms(broyden)= 0.44451E+01
  rms(prec ) = 0.58011E+01
  weight for this iteration     100.00

 eigenvalues of (default mixing * dielectric matrix)
  average eigenvalue GAMMA=   0.5031
  1.5875  1.5247  1.5247  0.5499  0.5499  0.3245  0.3245  0.2217  0.1699  0.1699
  0.1645  0.1282  0.1083  0.1083  0.0899

 Free energy of the ion-electron system (eV)
  ---------------------------------------------------
  alpha Z        PSCENC =      1837.76445990
  Ewald energy   TEWEN  =    -34777.34906014
  -Hartree energ DENC   =    -20734.93161508
  -exchange      EXHF   =         0.00000000
  -V(xc)+E(xc)   XCENC  =      2382.04696642
  PAW double counting   =     79531.28036623   -81992.81557605
  entropy T*S    EENTRO =        -0.09801814
  eigenvalues    EBANDS =     -1664.26667517
  atomic energy  EATOM  =     55137.21312455
  Solvation  Ediel_sol  =         0.00000000
  ---------------------------------------------------
  free energy    TOTEN  =      -281.15602748 eV

  energy without entropy =     -281.05800933  energy(sigma->0) =     -281.10701840


--------------------------------------------------------------------------------------------------------




--------------------------------------- Iteration      1(  21)  ---------------------------------------


    POTLOK:  cpu time    0.2145: real time    0.2151
    SETDIJ:  cpu time    0.0260: real time    0.0260
     EDDAV:  cpu time  139.7750: real time  140.1054
    CHARGE:  cpu time    4.8689: real time    4.8803
    MIXING:  cpu time    0.0088: real time    0.0088
    --------------------------------------------
      LOOP:  cpu time  144.8931: real time  145.2356

 eigenvalue-minimisations  : 40608
 total energy-change (2. order) : 0.9281947E+00  (-0.1211891E+01)
 number of electron     607.9999984 magnetization       7.8103086
 augmentation part      224.3478629 magnetization       4.4718389

 Broyden mixing:
  rms(total) = 0.32548E+01    rms(broyden)= 0.32543E+01
  rms(prec ) = 0.42595E+01
  weight for this iteration     100.00

 eigenvalues of (default mixing * dielectric matrix)
  average eigenvalue GAMMA=   0.5003
  2.0315  1.4183  1.4183  0.5536  0.5536  0.3301  0.3301  0.2760  0.1744  0.1744
  0.1753  0.1343  0.1343  0.1064  0.1064  0.0878

 Free energy of the ion-electron system (eV)
  ---------------------------------------------------
  alpha Z        PSCENC =      1837.76445990
  Ewald energy   TEWEN  =    -34777.34906014
  -Hartree energ DENC   =    -20737.49021243
  -exchange      EXHF   =         0.00000000
  -V(xc)+E(xc)   XCENC  =      2381.38111483
  PAW double counting   =     80495.51348002   -82943.83130320
  entropy T*S    EENTRO =        -0.09475353
  eigenvalues    EBANDS =     -1673.33468281
  atomic energy  EATOM  =     55137.21312455
  Solvation  Ediel_sol  =         0.00000000
  ---------------------------------------------------
  free energy    TOTEN  =      -280.22783280 eV

  energy without entropy =     -280.13307927  energy(sigma->0) =     -280.18045604


--------------------------------------------------------------------------------------------------------




--------------------------------------- Iteration      1(  22)  ---------------------------------------


    POTLOK:  cpu time    0.2174: real time    0.2179
    SETDIJ:  cpu time    0.0260: real time    0.0261
     EDDAV:  cpu time  134.9971: real time  135.3162
    CHARGE:  cpu time    4.8975: real time    4.9091
    MIXING:  cpu time    0.0090: real time    0.0090
    --------------------------------------------
      LOOP:  cpu time  140.1471: real time  140.4783

 eigenvalue-minimisations  : 38640
 total energy-change (2. order) : 0.2062013E+01  (-0.7404987E+00)
 number of electron     607.9999982 magnetization       6.8446503
 augmentation part      224.7899856 magnetization       3.6139643

 Broyden mixing:
  rms(total) = 0.20281E+01    rms(broyden)= 0.20275E+01
  rms(prec ) = 0.26119E+01
  weight for this iteration     100.00

 eigenvalues of (default mixing * dielectric matrix)
  average eigenvalue GAMMA=   0.4970
  2.2379  1.3433  1.3433  0.5729  0.5729  0.4559  0.3305  0.3305  0.2088  0.1722
  0.1722  0.1519  0.1519  0.1096  0.1096  0.0958  0.0905

 Free energy of the ion-electron system (eV)
  ---------------------------------------------------
  alpha Z        PSCENC =      1837.76445990
  Ewald energy   TEWEN  =    -34777.34906014
  -Hartree energ DENC   =    -20738.30837983
  -exchange      EXHF   =         0.00000000
  -V(xc)+E(xc)   XCENC  =      2381.25728833
  PAW double counting   =     80994.73495321   -83441.68394504
  entropy T*S    EENTRO =        -0.09350891
  eigenvalues    EBANDS =     -1671.70075154
  atomic energy  EATOM  =     55137.21312455
  Solvation  Ediel_sol  =         0.00000000
  ---------------------------------------------------
  free energy    TOTEN  =      -278.16581946 eV

  energy without entropy =     -278.07231055  energy(sigma->0) =     -278.11906501


--------------------------------------------------------------------------------------------------------




--------------------------------------- Iteration      1(  23)  ---------------------------------------


    POTLOK:  cpu time    0.2157: real time    0.2162
    SETDIJ:  cpu time    0.0260: real time    0.0260
     EDDAV:  cpu time  145.0900: real time  145.4329
    CHARGE:  cpu time    4.8743: real time    4.8858
    MIXING:  cpu time    0.0094: real time    0.0094
    --------------------------------------------
      LOOP:  cpu time  150.2154: real time  150.5704

 eigenvalue-minimisations  : 42432
 total energy-change (2. order) : 0.8497369E-01  (-0.3828531E+00)
 number of electron     607.9999984 magnetization       6.5844327
 augmentation part      224.5665033 magnetization       3.5828445

 Broyden mixing:
  rms(total) = 0.20251E+01    rms(broyden)= 0.20248E+01
  rms(prec ) = 0.27385E+01
  weight for this iteration     100.00

 eigenvalues of (default mixing * dielectric matrix)
  average eigenvalue GAMMA=   0.4831
  2.2711  1.2831  1.2831  0.6053  0.6053  0.5639  0.3282  0.3282  0.2290  0.1699
  0.1699  0.1869  0.1515  0.1158  0.1158  0.1003  0.0980  0.0896

 Free energy of the ion-electron system (eV)
  ---------------------------------------------------
  alpha Z        PSCENC =      1837.76445990
  Ewald energy   TEWEN  =    -34777.34906014
  -Hartree energ DENC   =    -20743.52922189
  -exchange      EXHF   =         0.00000000
  -V(xc)+E(xc)   XCENC  =      2381.42037255
  PAW double counting   =     81199.85944251   -83644.70460471
  entropy T*S    EENTRO =        -0.09584605
  eigenvalues    EBANDS =     -1668.65951250
  atomic energy  EATOM  =     55137.21312455
  Solvation  Ediel_sol  =         0.00000000
  ---------------------------------------------------
  free energy    TOTEN  =      -278.08084577 eV

  energy without entropy =     -277.98499972  energy(sigma->0) =     -278.03292275


--------------------------------------------------------------------------------------------------------




--------------------------------------- Iteration      1(  24)  ---------------------------------------


    POTLOK:  cpu time    0.2135: real time    0.2140
    SETDIJ:  cpu time    0.0260: real time    0.0260
     EDDAV:  cpu time  150.1157: real time  150.4704
    CHARGE:  cpu time    4.8965: real time    4.9081
    MIXING:  cpu time    0.0097: real time    0.0097
    --------------------------------------------
      LOOP:  cpu time  155.2614: real time  155.6282

 eigenvalue-minimisations  : 44352
 total energy-change (2. order) : 0.7229279E+00  (-0.2463506E+00)
 number of electron     607.9999984 magnetization       6.3881940
 augmentation part      224.5833509 magnetization       3.3944219

 Broyden mixing:
  rms(total) = 0.12611E+01    rms(broyden)= 0.12609E+01
  rms(prec ) = 0.16095E+01
  weight for this iteration     100.00

[...]
   0.144E+03 -.957E+02 0.354E+03   -.170E+03 0.102E+03 -.435E+03   0.197E+02 -.169E+01 0.244E+02   0.478E-01 -.359E-02 0.435E-01
   -.879E+02 -.620E+02 -.206E+02   0.125E+03 0.824E+02 0.792E+02   0.240E+01 -.741E+01 -.920E+01   -.493E-01 -.109E-01 0.314E-01
   -.305E+03 0.492E+02 0.367E+02   0.324E+03 -.533E+02 -.296E+02   -.187E+02 0.508E+01 -.956E+01   0.460E-01 0.352E-02 0.504E-01
   0.149E+03 -.624E+02 0.109E+03   -.156E+03 0.752E+02 -.127E+03   0.727E+01 -.144E+02 0.152E+02   -.860E-02 0.131E-01 -.321E-01
   0.167E+02 -.745E+02 -.334E+03   -.267E+01 0.890E+02 0.373E+03   -.223E+01 -.123E+02 -.192E+02   0.123E-02 0.158E-01 -.248E-01
   -.426E+03 -.338E+01 -.296E+03   0.483E+03 0.173E+02 0.310E+03   -.312E+02 -.164E+02 -.121E+02   0.805E-02 -.124E-01 0.417E-01
   0.101E+03 0.667E+02 0.150E+03   -.104E+03 -.723E+02 -.164E+03   0.366E+01 0.659E+01 0.129E+02   0.376E-02 0.313E-01 -.183E-01
   0.320E+01 -.176E+03 -.105E+03   -.426E+01 0.198E+03 0.110E+03   0.143E+01 -.178E+02 -.187E+01   0.559E-01 -.379E-01 -.481E-02
   -.200E+02 0.184E+03 -.124E+03   0.281E+02 -.190E+03 0.129E+03   -.102E+02 0.713E+01 -.606E+01   -.484E-01 -.653E-01 -.212E-01
   0.656E+01 -.764E+02 0.152E+03   -.802E+01 0.855E+02 -.184E+03   0.160E+01 -.922E+01 0.193E+02   0.356E-01 0.514E-01 0.412E-01
   -.256E+02 0.191E+03 0.627E+02   0.285E+02 -.203E+03 -.768E+02   -.304E+01 0.138E+02 0.125E+02   -.133E-01 -.287E-02 0.332E-01
   -.148E+03 0.134E+03 -.162E+03   0.169E+03 -.143E+03 0.171E+03   -.193E+02 0.749E+01 -.902E+01   -.247E-01 -.211E-01 0.764E-02
   0.250E+02 0.251E+03 -.327E+02   -.341E+02 -.267E+03 0.288E+02   0.109E+02 0.149E+02 0.542E+01   0.158E-01 -.542E-01 -.162E-01
   -.375E+03 -.317E+03 -.287E+03   0.635E+03 0.453E+03 0.432E+03   -.495E+02 -.311E+02 -.273E+02   -.260E-01 0.134E-02 0.232E-02
   -.322E+02 0.249E+03 -.261E+03   0.323E+02 -.276E+03 0.278E+03   -.231E+01 0.194E+02 -.151E+02   0.989E-02 0.581E-03 0.132E-01
   0.228E+03 0.781E+02 0.224E+03   -.245E+03 -.789E+02 -.233E+03   0.115E+02 -.234E+01 0.236E+01   -.132E-01 -.339E-01 -.907E-02
   -.133E+03 0.127E+03 0.304E+02   0.145E+03 -.133E+03 -.222E+02   -.719E+01 0.447E+01 -.599E+01   -.431E-01 -.160E-01 -.216E-01
   -.648E+03 -.109E+03 -.199E+03   0.906E+03 0.153E+03 0.256E+03   -.602E+02 -.154E+02 -.146E+02   0.873E-01 0.283E-02 0.350E-01
   0.128E+03 -.666E+02 0.316E+03   -.114E+03 0.839E+02 -.372E+03   -.579E+00 -.359E+01 0.120E+02   -.512E-02 -.451E-01 0.291E-01
   0.476E+02 0.112E+02 0.248E+03   -.488E+02 -.438E+01 -.270E+03   0.221E+00 -.856E+01 0.165E+02   -.447E-01 -.974E-02 0.376E-01
   -.401E+02 0.197E+03 0.273E+02   0.463E+02 -.200E+03 -.209E+02   -.705E+01 0.299E+01 -.707E+01   0.228E-01 0.968E-02 0.351E-02
   0.133E+03 0.137E+03 0.474E+02   -.157E+03 -.143E+03 -.505E+02   0.214E+02 0.381E+01 0.540E+01   -.279E-01 -.638E-01 0.242E-01
   0.118E+03 0.129E+03 0.171E+03   -.120E+03 -.141E+03 -.186E+03   0.235E+01 0.139E+02 0.142E+02   0.382E-01 -.159E-02 -.532E-01
   -.107E+03 -.688E+02 -.339E+02   0.118E+03 0.743E+02 0.438E+02   -.121E+02 -.570E+01 -.114E+02   -.804E-02 -.543E-02 -.206E-01
   0.617E+02 0.129E+03 0.456E+03   -.691E+02 -.131E+03 -.569E+03   0.110E+02 -.366E+01 0.316E+02   0.283E-01 -.495E-01 0.460E-01
   0.268E+02 -.216E+03 0.337E+02   -.368E+02 0.239E+03 -.298E+02   0.755E+00 -.178E+02 -.168E+01   0.508E-02 0.309E-02 -.528E-01
   -.338E+03 0.229E+02 0.110E+02   0.363E+03 -.218E+02 -.308E+01   -.187E+02 0.325E+01 -.820E+01   0.181E-01 0.331E-01 0.694E-02
 -----------------------------------------------------------------------------------------------
   0.155E+03 -.404E+02 -.437E+02   0.341E-12 0.102E-11 0.103E-11   -.155E+03 0.404E+02 0.436E+02   -.283E-01 0.221E-01 0.168E+00
 
 
 POSITION                                       TOTAL-FORCE (eV/Angst)
 -----------------------------------------------------------------------------------
     -1.64076      5.13843      2.52857      -213.132455   -105.142154   -114.475409
      5.10596      2.26404      2.48408         2.269784      0.123206     -0.450909
     -2.33261      3.18110      9.52533         4.286635     -3.476229     58.173163
      2.28465      0.20358      0.22309       -16.185680     -2.945697     17.570945
      2.43788      2.60717      2.51927        -6.597692     -1.498586     -5.252474
      0.66427      4.99632      2.24573         2.901041     -1.832716      4.843952
      2.61386      0.30041      9.29708        -8.425330    -10.918547     53.968786
      7.07241      3.54946      0.09351         0.809369     -9.886567     -1.724217
      3.93492      5.31787      7.48751         3.128642     -4.662827     -4.246833
      2.56381      2.18457      7.60288        -0.038019      2.533615     -1.212253
      0.65732      3.09366      5.10572        -0.386831      1.977084     -0.311135
     -0.50188      0.26137      5.24376      -200.353753    -26.182255    -40.121987
     -1.03906      2.61918      7.62376         2.000975     -2.022960     -0.450112
     -2.38932      5.23403      7.62258         3.608857     -8.324919     -5.468603
      5.08102      0.79896      4.74400         1.909538      1.046181     -5.104045
      3.89148      3.37505      4.89631         0.730273      1.460690      5.946776
      6.85942      0.12184      2.35860        12.707972     -4.096027     -0.256674
      5.12983      7.93642      2.61244         4.807504     -1.687823      0.556904
     -2.33155      8.93346      9.40441        -3.641009      5.062816     82.155901
      2.23260      6.00449      0.42802         3.413285     -0.946561      0.623447
      2.42458      7.73300      2.62101        -2.981782      6.088793     10.815681
      0.64954     10.58569      2.72689       -22.924765    -18.004014     -5.512119
      2.31233      5.75725      9.35279       -24.880400     -8.127380     42.065156
      7.13122      8.84958      0.29449        -2.004823      1.915945      5.517271
      4.07117      0.17536      7.42477       -42.732921    -13.889703    -61.371769
      2.18432      7.48519      7.38060         0.640500      3.078728      0.093738
      0.42266      8.93237      5.14770         3.972077     -1.829156     -2.289614
     -1.00175      5.92041      4.75458         0.522120     -0.759556      2.174056
     -1.03371      7.88663      7.61615         1.700697     -0.514651     -2.193801
     -2.68110      0.48852      7.81177         5.873863      0.833846     -2.792829
      5.34113      5.98694      4.95382        -0.427818      3.150516     -0.240975
      3.87399      8.82025      5.16060         0.885095     -1.440002      0.859802
      7.03422      4.88479      0.77063        -0.166466      8.953573      3.292706
      0.72720      5.16436      0.62828         5.156258     -2.833673      1.739728
      3.97586      5.42662      0.26640        -0.239629     -1.551496      1.390275
      5.47880      0.38361      2.67063       -14.525019      3.813737      4.595873
      3.67311      2.83473      3.40794         5.060259     -0.010750     -0.163205
      6.89903      3.00157      3.15342        -1.571037      0.482691     -1.193342
      2.43427      1.89289      0.52625         0.413970      6.159293      2.610935
      5.37503      2.35747      0.68023        -0.121117      1.111082      1.075578
      8.11064      2.19197      0.71786        -0.361775      2.084417     -0.399440
      1.04120      3.55187      3.37832         0.708645     -0.660043     -1.123751
     -0.57807      0.02997      3.35231       -21.776979      2.789535      8.835522
      1.81979      0.41977      2.64119        45.714742     17.162074     -2.501352
      3.99821      5.26097      5.65849        -1.818897     -1.855815      0.285907
     -2.68820      4.73498      5.49765         3.045953     -0.242285      1.217929
      0.43887      4.92812      5.34095        -1.341934      0.108096     -0.072309
      2.40978      0.42942      8.15029       -16.224127      9.108945    -71.922926
      0.72391      2.86841      8.14084         0.413662     -1.122190     -3.432158
     -4.90627      3.50108      7.78311        -1.866525     -0.422952     -0.385128
     -0.78019      2.35441      5.91001         1.005190     -0.227444     -0.740678
      2.25278      2.42613      5.54591         0.716308      0.407407      1.382763
      5.41954      2.30814      5.42962        -1.164328      3.047307     -0.227061
     -2.43694      3.24700      8.31711        -6.346101      4.358818    -57.106281
     -4.28334      0.35091      8.37118        39.816600     12.944925     49.416805
     -0.98055      0.37350      8.31082        -0.150715      1.070484     -2.329422
      7.09577      0.15911      0.73077         0.691363     -1.606713     -2.522895
      0.72950      0.47072      0.77271        11.774720      2.228923     19.284180
      3.65439      0.23116      0.27104        25.801927     -2.422910      1.747378
      5.61601      6.11660      3.23937         0.549099      0.971143     -0.869954
      3.71278      8.60426      3.15502         0.426950      3.700232      3.151711
     -1.86872      8.73879      3.03864        -2.142833      0.407623     -1.027119
      2.45328      7.55366      1.18080         0.180619     -0.080542    -13.379317
      5.47851      7.80667      0.95601        -0.154674      1.612754     -1.574300
      8.34618      7.89145      0.68779         1.993704     -2.453100      0.419015
      0.74096      8.81581      3.04639         1.787414     -1.022224      1.535972
     -0.90145      5.50088      2.93602       210.623773    104.839423    116.826472
      2.16381      6.31989      3.15043        -2.218076     -7.067821      2.031767
      4.12300      0.28606      5.89277        -4.939521     -3.146091     -6.552451
     -2.53251      0.38120      5.61459         3.877864     -1.754116      2.169677
      0.43964      0.39899      5.44098       198.032277     28.245425     42.588183
      2.73246      6.04630      8.22274        12.820975     13.723751    -43.849372
      0.80598      8.61604      8.27950        -1.023754     -1.805377     -6.118108
      3.60736      8.80287      8.00866        -0.845926     -0.369911     -0.676154
     -0.89419      8.13954      5.62977        -2.186338     -2.333458      2.339498
      2.56751      7.56698      5.69570        -0.371947      1.570133     -0.986968
     -3.59063      7.75851      5.75188        -1.475399     -0.148400     -1.488743
     -2.27119      8.84706      8.25918         3.687737     -6.320545    -81.119592
     -3.58297      5.87578      8.26078        -9.159424      5.136930      2.165185
     -1.16580      6.13880      7.78396         6.437587      4.336042     -0.230852
 -----------------------------------------------------------------------------------
    total drift:                               -0.011712     -0.005347     -0.000898


--------------------------------------------------------------------------------------------------------



  FREE ENERGIE OF THE ION-ELECTRON SYSTEM (eV)
  ---------------------------------------------------
  free  energy   TOTEN  =      -277.0683285819 eV

  energy  without entropy=     -276.9789061461  energy(sigma->0) =     -277.02361736
 


--------------------------------------------------------------------------------------------------------


    POTLOK:  cpu time    0.2395: real time    0.2400


--------------------------------------------------------------------------------------------------------


     LOOP+:  cpu time11886.2793: real time11914.5003
    4ORBIT:  cpu time    0.0000: real time    0.0000

volume of typ            1:    22.5 %

volume of typ            2:     8.6 %
 
total charge     
 
# of ion       s       p       d       tot
------------------------------------------
    1        0.638   0.919   8.683  10.240
    2        0.252   0.290   7.907   8.449
    3        0.458   0.631   8.220   9.309
    4        0.514   0.849   8.254   9.616
    5        0.292   0.316   8.002   8.610
    6        0.288   0.347   8.011   8.645
    7        0.614   1.044   8.371  10.028
    8        0.375   0.505   7.957   8.837
    9        0.322   0.435   7.973   8.730
   10        0.206   0.211   7.939   8.356
   11        0.288   0.337   7.833   8.458
   12        0.603   0.894   8.572  10.069
   13        0.277   0.331   7.962   8.571
   14        0.374   0.490   8.039   8.903
   15        0.339   0.437   7.981   8.757
   16        0.267   0.303   7.928   8.499
   17        0.397   0.524   7.999   8.919
   18        0.304   0.348   7.875   8.527
   19        0.506   0.651   8.334   9.490
   20        0.311   0.395   7.954   8.660
   21        0.453   0.644   8.013   9.109
   22        0.564   0.976   8.247   9.787
   23        0.501   0.718   8.273   9.492
   24        0.356   0.434   7.926   8.716
   25        0.562   0.934   8.366   9.862
   26        0.261   0.301   7.926   8.488
   27        0.288   0.265   8.014   8.568
   28        0.203   0.191   7.969   8.362
   29        0.256   0.302   7.943   8.501
   30        0.263   0.296   8.047   8.606
   31        0.343   0.439   7.871   8.653
   32        0.210   0.202   7.885   8.298
   33        1.275   2.859   0.019   4.153
   34        1.268   2.904   0.026   4.198
   35        1.302   2.653   0.005   3.960
   36        1.286   2.819   0.022   4.127
   37        1.270   2.882   0.027   4.179
   38        1.301   2.596   0.002   3.899
   39        1.288   2.739   0.008   4.035
   40        1.289   2.707   0.008   4.004
   41        1.305   2.635   0.004   3.945
   42        1.266   2.751   0.008   4.025
   43        1.300   2.899   0.029   4.227
   44        1.325   2.916   0.037   4.278
   45        1.274   2.764   0.011   4.049
   46        1.295   2.685   0.009   3.989
   47        1.282   2.683   0.006   3.971
   48        1.327   3.022   0.057   4.406
   49        1.271   2.780   0.011   4.062
   50        1.281   2.681   0.004   3.967
   51        1.283   2.725   0.009   4.016
   52        1.274   2.718   0.006   3.998
   53        1.301   2.678   0.009   3.988
   54        1.323   2.957   0.055   4.335
   55        1.334   3.167   0.091   4.592
   56        1.300   2.649   0.005   3.954
   57        1.297   2.731   0.012   4.040
   58        1.301   2.971   0.032   4.304
   59        1.317   2.845   0.031   4.193
   60        1.284   2.715   0.007   4.006
   61        1.265   2.832   0.016   4.112
   62        1.305   2.598   0.002   3.905
   63        1.287   2.846   0.023   4.156
   64        1.289   2.699   0.008   3.995
   65        1.296   2.701   0.009   4.006
   66        1.295   2.682   0.006   3.983
   67        1.256   3.199   0.105   4.561
   68        1.293   2.742   0.013   4.048
   69        1.271   2.883   0.022   4.176
   70        1.279   2.733   0.008   4.020
   71        1.320   3.082   0.081   4.482
   72        1.303   3.032   0.062   4.397
   73        1.280   2.769   0.013   4.062
   74        1.294   2.645   0.003   3.941
   75        1.286   2.715   0.011   4.012
   76        1.280   2.711   0.008   3.998
   77        1.289   2.648   0.004   3.941
   78        1.334   2.984   0.064   4.382
   79        1.287   2.857   0.026   4.169
   80        1.284   2.791   0.017   4.091
--------------------------------------------------
tot          73.89  150.24  259.32  483.46
 
magnetization (x)
 
# of ion       s       p       d       tot
------------------------------------------
    1       -0.005  -0.002   0.002  -0.004
    2       -0.002   0.008   0.572   0.577
    3       -0.002  -0.001   0.015   0.013
    4        0.001   0.000  -0.007  -0.006
    5       -0.001  -0.003  -0.169  -0.174
    6        0.002  -0.002  -0.084  -0.083
    7        0.005  -0.000  -0.043  -0.038
    8       -0.003   0.003   0.205   0.206
    9       -0.000   0.004   0.125   0.128
   10        0.001   0.004   0.691   0.695
   11        0.000   0.014   0.832   0.847
   12        0.006   0.024   0.211   0.242
   13        0.003   0.003   0.121   0.127
   14       -0.003  -0.001  -0.113  -0.117
   15        0.001  -0.004  -0.059  -0.062
   16       -0.000  -0.014  -0.683  -0.697
   17        0.005   0.010   0.473   0.488
   18        0.005   0.023   0.997   1.025
   19       -0.005  -0.005  -0.014  -0.023
   20        0.000   0.003   0.246   0.250
   21        0.001   0.003  -0.110  -0.106
   22       -0.002  -0.002  -0.083  -0.087
   23       -0.000  -0.002  -0.043  -0.045
   24       -0.002  -0.000  -0.060  -0.063
   25       -0.003  -0.002  -0.046  -0.051
   26        0.006   0.013   0.622   0.641
   27        0.000   0.001   0.151   0.152
   28        0.004   0.009   0.759   0.771
   29       -0.001  -0.001  -0.104  -0.106
   30        0.002   0.000   0.154   0.156
   31       -0.003   0.007   0.450   0.454
   32        0.002   0.017   1.221   1.239
   33        0.000  -0.005   0.000  -0.004
   34       -0.000   0.012  -0.000   0.012
   35        0.001   0.061  -0.000   0.063
   36        0.002   0.102   0.000   0.105
   37       -0.002  -0.063  -0.000  -0.065
   38        0.010   0.484  -0.000   0.493
   39       -0.000  -0.002  -0.000  -0.003
   40        0.002   0.107  -0.000   0.110
   41        0.007   0.362   0.000   0.369
   42        0.004   0.023   0.000   0.027
   43        0.003  -0.007  -0.000  -0.004
   44       -0.001  -0.033  -0.000  -0.034
   45        0.001   0.002   0.000   0.003
   46        0.003   0.125   0.000   0.128
   47        0.009   0.375   0.000   0.384
   48        0.000  -0.004  -0.001  -0.004
   49        0.003   0.068  -0.000   0.071
   50        0.004   0.182  -0.000   0.186
   51        0.003   0.092   0.000   0.095
   52        0.006   0.157   0.000   0.163
   53       -0.002  -0.153   0.000  -0.156
   54        0.000  -0.009   0.000  -0.009
   55       -0.000  -0.011  -0.000  -0.011
   56        0.005   0.215  -0.000   0.220
   57        0.003   0.067   0.000   0.070
   58       -0.000  -0.020  -0.000  -0.021
   59        0.001   0.030   0.000   0.031
   60        0.004   0.110   0.000   0.114
   61        0.006   0.125   0.000   0.131
   62        0.010   0.505   0.000   0.515
   63        0.001   0.030  -0.000   0.031
   64        0.005   0.201   0.000   0.206
   65        0.000   0.011  -0.000   0.011
   66       -0.000  -0.033   0.000  -0.033
   67        0.001   0.004  -0.000   0.005
   68       -0.001  -0.069  -0.000  -0.070
   69        0.000   0.018  -0.000   0.018
   70        0.000   0.001   0.000   0.001
   71        0.003   0.119   0.003   0.125
   72        0.002   0.005  -0.000   0.007
   73        0.000   0.006   0.000   0.006
   74        0.005   0.187   0.000   0.192
   75        0.002   0.045   0.000   0.046
   76        0.008   0.314   0.000   0.322
   77        0.010   0.475  -0.000   0.485
   78       -0.000  -0.018  -0.000  -0.018
   79        0.001  -0.010  -0.000  -0.009
   80       -0.000  -0.029  -0.000  -0.029
--------------------------------------------------
tot           0.13    4.26    6.23   10.62
 

 total amount of memory used by VASP MPI-rank0   532968. kBytes
=======================================================================

   base      :      30000. kBytes
   nonlr-proj:      53134. kBytes
   fftplans  :      10100. kBytes
   grid      :      57349. kBytes
   one-center:       2488. kBytes
   wavefun   :     379897. kBytes
 
  
  
 General timing and accounting informations for this job:
 ========================================================
  
                  Total CPU time used (sec):    11981.086
                            User time (sec):    11967.075
                          System time (sec):       14.011
                         Elapsed time (sec):    12014.426
  
                   Maximum memory used (kb):      638028.
                   Average memory used (kb):           0.
  
                          Minor page faults:        44666
                          Major page faults:           52
                 Voluntary context switches:         1255
