 vasp.5.4.4.18Apr17-6-g9f103f2a35 (build May 12 2020 05:39:39) gamma-only       
  
 MD_VERSION_INFO: Compiled 2020-05-12T12:39:39-UTC in devlin.sd.materialsdesign.
 com:/home/medea2/data/build/wwolf/vasp-gpu5.4.4/13047/x86_64/src/src/build/gam 
 from svn 13047
 
 This VASP executable licensed from Materials Design, Inc.
 
 executed on                        Lin64 date 2023.03.14  17:54:20
 running on   16 total cores
 distrk:  each k-point on   16 cores,    1 groups
 distr:  one band on NCORES_PER_BAND=   1 cores,   16 groups


--------------------------------------------------------------------------------------------------------


 INCAR:
 POTCAR:    PAW_PBE Li_sv 10Sep2004               
 POTCAR:    PAW_PBE Ni 02Aug2007                  
 POTCAR:    PAW_PBE O 08Apr2002                   

 ----------------------------------------------------------------------------- 
|                                                                             |
|           W    W    AA    RRRRR   N    N  II  N    N   GGGG   !!!           |
|           W    W   A  A   R    R  NN   N  II  NN   N  G    G  !!!           |
|           W    W  A    A  R    R  N N  N  II  N N  N  G       !!!           |
|           W WW W  AAAAAA  RRRRR   N  N N  II  N  N N  G  GGG   !            |
|           WW  WW  A    A  R   R   N   NN  II  N   NN  G    G                |
|           W    W  A    A  R    R  N    N  II  N    N   GGGG   !!!           |
|                                                                             |
|      For optimal performance we recommend to set                            |
|        NCORE= 4 - approx SQRT( number of cores)                             |
|      NCORE specifies how many cores store one orbital (NPAR=cpu/NCORE).     |
|      This setting can  greatly improve the performance of VASP for DFT.     |
|      The default,   NCORE=1            might be grossly inefficient         |
|      on modern multi-core architectures or massively parallel machines.     |
|      Do your own testing !!!!                                               |
|      Unfortunately you need to use the default for GW and RPA calculations. |
|      (for HF NCORE is supported but not extensively tested yet)             |
|                                                                             |
 ----------------------------------------------------------------------------- 

 POTCAR:    PAW_PBE Li_sv 10Sep2004               
  local pseudopotential read in
  atomic valenz-charges read in
  non local Contribution for L=           0  read in
    real space projection operators read in
  non local Contribution for L=           0  read in
    real space projection operators read in
  non local Contribution for L=           1  read in
    real space projection operators read in
    PAW grid and wavefunctions read in
 
   number of l-projection  operators is LMAX  =           3
   number of lm-projection operators is LMMAX =           5
 
 POTCAR:    PAW_PBE Ni 02Aug2007                  
  local pseudopotential read in
  partial core-charges read in
  partial kinetic energy density read in
  atomic valenz-charges read in
  non local Contribution for L=           2  read in
    real space projection operators read in
  non local Contribution for L=           2  read in
    real space projection operators read in
  non local Contribution for L=           0  read in
    real space projection operators read in
  non local Contribution for L=           0  read in
    real space projection operators read in
  non local Contribution for L=           1  read in
    real space projection operators read in
  non local Contribution for L=           1  read in
    real space projection operators read in
    PAW grid and wavefunctions read in
 
   number of l-projection  operators is LMAX  =           6
   number of lm-projection operators is LMMAX =          18
 
 POTCAR:    PAW_PBE O 08Apr2002                   
  local pseudopotential read in
  partial core-charges read in
  partial kinetic energy density read in
  kinetic energy density of atom read in
  atomic valenz-charges read in
  non local Contribution for L=           0  read in
    real space projection operators read in
  non local Contribution for L=           0  read in
    real space projection operators read in
  non local Contribution for L=           1  read in
    real space projection operators read in
  non local Contribution for L=           1  read in
    real space projection operators read in
    PAW grid and wavefunctions read in
 
   number of l-projection  operators is LMAX  =           4
   number of lm-projection operators is LMMAX =           8
 
 Optimization of the real space projectors (new method)

 maximal supplied QI-value         = 22.11
 optimisation between [QCUT,QGAM] = [ 11.28, 22.77] = [ 35.61,145.23] Ry 
 Optimized for a Real-space Cutoff    1.10 Angstroem

   l    n(q)    QCUT    max X(q) W(low)/X(q) W(high)/X(q)  e(spline) 
   0      7    11.276    10.506    0.54E-04    0.58E-04    0.16E-07
   0      7    11.276     8.367    0.11E-03    0.14E-03    0.35E-07
   1      7    11.276     8.983    0.23E-03    0.43E-03    0.86E-07
 Optimization of the real space projectors (new method)

 maximal supplied QI-value         = 16.25
 optimisation between [QCUT,QGAM] = [ 11.38, 22.75] = [ 36.24,144.96] Ry 
 Optimized for a Real-space Cutoff    1.47 Angstroem

   l    n(q)    QCUT    max X(q) W(low)/X(q) W(high)/X(q)  e(spline) 
   2      9    11.376    60.317    0.17E-03    0.16E-04    0.16E-06
   2      9    11.376    55.921    0.17E-03    0.16E-04    0.17E-06
   0     10    11.376    51.690    0.45E-04    0.60E-04    0.21E-06
   0     10    11.376    30.015    0.37E-04    0.55E-04    0.19E-06
   1     10    11.376    18.849    0.83E-04    0.11E-03    0.92E-07
   1     10    11.376    14.624    0.69E-04    0.92E-04    0.82E-07
 Optimization of the real space projectors (new method)

 maximal supplied QI-value         = 24.76
 optimisation between [QCUT,QGAM] = [ 11.39, 22.77] = [ 36.31,145.25] Ry 
 Optimized for a Real-space Cutoff    1.10 Angstroem

   l    n(q)    QCUT    max X(q) W(low)/X(q) W(high)/X(q)  e(spline) 
   0      7    11.387    20.381    0.22E-03    0.48E-03    0.18E-06
   0      7    11.387    15.268    0.22E-03    0.52E-03    0.19E-06
   1      7    11.387     5.964    0.22E-03    0.73E-03    0.24E-06
   1      7    11.387     5.382    0.19E-03    0.60E-03    0.21E-06

 ----------------------------------------------------------------------------- 
|                                                                             |
|  ADVICE TO THIS USER RUNNING 'VASP/VAMP'   (HEAR YOUR MASTER'S VOICE ...):  |
|                                                                             |
|      You enforced a specific xc-type in the INCAR file,                     |
|      a different type was found on the POTCAR file                          |
|          I HOPE YOU KNOW, WHAT YOU ARE  DOING                               |
|                                                                             |
 ----------------------------------------------------------------------------- 

  PAW_PBE Li_sv 10Sep2004               :
 energy of atom  1       EATOM= -202.7858
 kinetic energy error for atom=    0.0143 (will be added to EATOM!!)
  PAW_PBE Ni 02Aug2007                  :
 energy of atom  2       EATOM=-1077.6739
 kinetic energy error for atom=    0.0030 (will be added to EATOM!!)
  PAW_PBE O 08Apr2002                   :
 energy of atom  3       EATOM= -432.3788
 kinetic energy error for atom=    0.0224 (will be added to EATOM!!)
 
 
 POSCAR: 0                                       
  positions in direct lattice
  No initial velocities read in
 exchange correlation table for  LEXCH =       14
   RHO(1)=    0.500       N(1)  =     2000
   RHO(2)=  100.500       N(2)  =     4000
 


--------------------------------------------------------------------------------------------------------


 ion  position               nearest neighbor table
   1  0.998  0.500  0.998-  42 2.12  41 2.12  89 2.12  90 2.12  54 2.15  77 2.15  37 2.84  36 2.84
                            19 2.85  30 2.85
   2  0.109  0.832  0.221-  43 2.08  62 2.10  56 2.10  55 2.13  61 2.15  38 2.22
   3  0.221  0.168  0.109-  40 2.08  63 2.10  45 2.10  76 2.13  46 2.15  39 2.22
   4  0.381  0.499  0.001-  83 1.99  48 1.99  42 2.13  77 2.15  47 2.15  78 2.16  33 2.80  16 2.81

   5  0.001  0.501  0.381-  72 1.99  59 1.99  41 2.13  54 2.15  60 2.15  53 2.16  28 2.80  21 2.81

   6  0.780  0.835  0.561-  73 2.09  86 2.09  68 2.11  91 2.11  67 2.13  74 2.16  28 2.81
   7  0.891  0.166  0.445-  70 2.08  69 2.09  57 2.12  58 2.12  52 2.13  75 2.17
   8  0.445  0.834  0.891-  85 2.08  80 2.09  44 2.12  49 2.12  79 2.13  50 2.17
   9  0.561  0.165  0.780-  82 2.09  87 2.09  81 2.11  88 2.11  64 2.13  51 2.16  33 2.81
  10  0.615  0.500  0.615-  65 1.99  66 1.99  71 2.11  84 2.11  89 2.17  90 2.17  25 2.81  24 2.81

  11  0.999  1.000  0.999-  40 1.87  43 1.87  76 1.87  55 1.87  88 1.89  91 1.89  35 2.79  17 2.80
                            29 2.80  23 2.81  14 2.82  20 2.82
  12  0.105  0.337  0.226-  54 1.84  63 1.85  39 1.85  60 1.86  57 1.91  42 2.24  18 2.70  24 2.75
                            21 2.81  36 2.84  15 2.88  30 2.90
  13  0.226  0.663  0.105-  77 1.84  62 1.85  38 1.85  47 1.86  44 1.91  41 2.24  31 2.70  25 2.75
                            16 2.81  37 2.84  22 2.88  19 2.90
  14  0.334  0.000  1.000-  46 1.86  76 1.86  79 1.87  49 1.87  82 1.98  43 2.01  29 2.78  26 2.78
                            17 2.81  32 2.81  11 2.82  23 2.82
  15  0.442  0.334  0.218-  66 1.82  45 1.86  63 1.86  48 1.87  42 1.91  69 1.98  30 2.75  33 2.77
                            27 2.80  24 2.81  18 2.85  12 2.88
  16  0.564  0.671  0.116-  47 1.85  50 1.87  44 1.87  53 1.88  83 1.89  68 1.90  19 2.73  25 2.77
                            28 2.77  13 2.81   4 2.81  31 2.82  34 2.82
  17  0.669  1.000  0.002-  88 1.86  49 1.86  85 1.87  82 1.88  55 1.89  52 1.89  20 2.78  26 2.79
                            11 2.80  14 2.81  35 2.82  32 2.82
  18  0.783  0.334  0.224-  48 1.83  57 1.86  69 1.88  72 1.88  54 1.90  51 1.90  12 2.70  33 2.79
                            27 2.80  21 2.82  15 2.85  36 2.86
  19  0.889  0.662  0.116-  38 1.84  41 1.86  53 1.87  56 1.87  50 1.90  89 2.16  16 2.73  22 2.75
                            28 2.78  34 2.84   1 2.85  37 2.86  13 2.90
  20  1.000  1.000  0.334-  61 1.86  55 1.86  52 1.87  58 1.87  73 1.98  40 2.01  17 2.78  32 2.78
                            29 2.81  26 2.81  11 2.82  23 2.82
  21  0.116  0.329  0.564-  60 1.85  75 1.87  57 1.87  78 1.88  72 1.89  81 1.90  30 2.73  24 2.77
                            33 2.77  12 2.81   5 2.81  18 2.82  27 2.82
  22  0.218  0.666  0.442-  65 1.82  56 1.86  62 1.86  59 1.87  41 1.90  80 1.98  19 2.75  28 2.77
                            34 2.80  25 2.81  31 2.85  13 2.88
  23  0.335  1.000  0.335-  43 1.86  40 1.86  46 1.87  61 1.87  64 1.90  67 1.90  35 2.78  32 2.80
                            26 2.80  11 2.81  14 2.82  20 2.82
  24  0.437  0.327  0.549-  84 1.86  81 1.87  63 1.88  87 1.88  66 1.89  60 1.91  12 2.75  21 2.77
                            36 2.80  10 2.81  15 2.81  27 2.84  33 2.85
  25  0.549  0.673  0.437-  71 1.86  68 1.87  62 1.88  86 1.88  65 1.89  47 1.91  13 2.75  16 2.77
                            37 2.80  10 2.81  22 2.81  34 2.84  28 2.85
  26  0.665  1.000  0.332-  67 1.86  52 1.87  70 1.87  73 1.87  49 1.89  46 1.90  14 2.78  17 2.79
                            23 2.80  20 2.81  35 2.82  29 2.82
  27  0.775  0.334  0.553-  72 1.84  75 1.85  66 1.86  69 1.88  90 1.90  87 1.98  36 2.77  15 2.80
                            18 2.80  21 2.82  30 2.84  24 2.84
  28  0.893  0.675  0.448-  68 1.84  74 1.85  53 1.86  59 1.88  56 1.89  71 2.06  22 2.77  16 2.77
                            19 2.78  31 2.79   5 2.80  37 2.80   6 2.81  25 2.85
  29  0.002  0.000  0.669-  91 1.86  58 1.86  70 1.87  73 1.88  76 1.89  79 1.89  14 2.78  32 2.79
                            11 2.80  20 2.81  35 2.82  26 2.82
  30  0.116  0.338  0.889-  39 1.84  42 1.86  78 1.87  45 1.87  75 1.90  90 2.16  21 2.73  15 2.75
                            33 2.78  27 2.84   1 2.85  36 2.86  12 2.90
  31  0.224  0.666  0.783-  59 1.83  44 1.86  80 1.88  83 1.88  77 1.90  74 1.90  13 2.70  28 2.79
                            34 2.80  16 2.82  22 2.85  37 2.86
  32  0.332  0.000  0.665-  64 1.86  79 1.87  85 1.87  82 1.87  58 1.89  61 1.90  20 2.78  29 2.79
                            23 2.80  14 2.81  35 2.82  17 2.82
  33  0.448  0.325  0.893-  81 1.84  51 1.85  78 1.86  48 1.88  45 1.89  84 2.06  15 2.77  21 2.77
                            30 2.78  18 2.79   4 2.80  36 2.80   9 2.81  24 2.85
  34  0.553  0.666  0.775-  83 1.84  50 1.85  65 1.86  80 1.88  89 1.90  86 1.98  37 2.77  22 2.80
                            31 2.80  16 2.82  19 2.84  25 2.84
  35  0.667  0.000  0.667-  88 1.86  91 1.86  64 1.86  67 1.86  70 2.00  85 2.00  23 2.78  11 2.79
                            26 2.82  32 2.82  29 2.82  17 2.82
  36  0.773  0.339  0.880-  51 1.84  87 1.85  90 1.86  84 1.88  39 1.90  54 2.19  27 2.77  24 2.80
                            33 2.80   1 2.84  12 2.84  30 2.86  18 2.86
  37  0.880  0.661  0.773-  74 1.84  86 1.85  89 1.86  71 1.88  38 1.90  77 2.19  34 2.77  25 2.80
                            28 2.80   1 2.84  13 2.84  19 2.86  31 2.86
  38  1.000  0.722  0.006-  19 1.84  13 1.85  37 1.90   2 2.22
  39  0.006  0.278  1.000-  30 1.84  12 1.85  36 1.90   3 2.22
  40  0.119  0.070  0.216-  23 1.86  11 1.87  20 2.01   3 2.08
  41  0.094  0.585  0.236-  19 1.86  22 1.90   1 2.12   5 2.13  13 2.24
  42  0.236  0.415  0.094-  30 1.86  15 1.91   1 2.12   4 2.13  12 2.24
  43  0.216  0.930  0.119-  23 1.86  11 1.87  14 2.01   2 2.08
  44  0.340  0.735  0.000-  31 1.86  16 1.87  13 1.91   8 2.12
  45  0.328  0.264  0.002-  15 1.86  30 1.87  33 1.89   3 2.10
  46  0.439  0.066  0.220-  14 1.86  23 1.87  26 1.90   3 2.15
  47  0.452  0.601  0.215-  16 1.85  13 1.86  25 1.91   4 2.15
  48  0.561  0.394  0.112-  18 1.83  15 1.87  33 1.88   4 1.99
  49  0.555  0.933  0.107-  17 1.86  14 1.87  26 1.89   8 2.12
  50  0.667  0.732  0.994-  34 1.85  16 1.87  19 1.90   8 2.17
  51  0.677  0.269  0.995-  36 1.84  33 1.85  18 1.90   9 2.16
  52  0.779  0.067  0.227-  26 1.87  20 1.87  17 1.89   7 2.13
  53  0.784  0.602  0.237-  28 1.86  19 1.87  16 1.88   5 2.16
  54  0.903  0.415  0.141-  12 1.84  18 1.90   5 2.15   1 2.15  36 2.19
  55  0.894  0.934  0.114-  20 1.86  11 1.87  17 1.89   2 2.13
  56  0.002  0.736  0.328-  22 1.86  19 1.87  28 1.89   2 2.10
  57  0.000  0.265  0.340-  18 1.86  21 1.87  12 1.91   7 2.12
  58  0.107  0.067  0.555-  29 1.86  20 1.87  32 1.89   7 2.12
  59  0.112  0.606  0.561-  31 1.83  22 1.87  28 1.88   5 1.99
  60  0.215  0.399  0.452-  21 1.85  12 1.86  24 1.91   5 2.15
  61  0.220  0.934  0.439-  20 1.86  23 1.87  32 1.90   2 2.15
  62  0.317  0.730  0.320-  13 1.85  22 1.86  25 1.88   2 2.10
  63  0.320  0.270  0.317-  12 1.85  15 1.86  24 1.88   3 2.10
  64  0.446  0.066  0.561-  32 1.86  35 1.86  23 1.90   9 2.13
  65  0.439  0.606  0.548-  22 1.82  34 1.86  25 1.89  10 1.99
  66  0.548  0.394  0.439-  15 1.82  27 1.86  24 1.89  10 1.99
  67  0.561  0.934  0.446-  26 1.86  35 1.86  23 1.90   6 2.13
  68  0.672  0.739  0.341-  28 1.84  25 1.87  16 1.90   6 2.11
  69  0.677  0.264  0.334-  18 1.88  27 1.88  15 1.98   7 2.09
  70  0.785  0.070  0.549-  26 1.87  29 1.87  35 2.00   7 2.08
  71  0.758  0.597  0.547-  25 1.86  37 1.88  28 2.06  10 2.11
  72  0.892  0.397  0.451-  27 1.84  18 1.88  21 1.89   5 1.99
  73  0.883  0.930  0.451-  26 1.87  29 1.88  20 1.98   6 2.09
  74  0.995  0.731  0.677-  37 1.84  28 1.85  31 1.90   6 2.16
  75  0.994  0.268  0.667-  27 1.85  21 1.87  30 1.90   7 2.17
  76  0.114  0.066  0.894-  14 1.86  11 1.87  29 1.89   3 2.13
  77  0.141  0.585  0.903-  13 1.84  31 1.90   4 2.15   1 2.15  37 2.19
  78  0.237  0.398  0.784-  33 1.86  30 1.87  21 1.88   4 2.16
  79  0.227  0.933  0.779-  32 1.87  14 1.87  29 1.89   8 2.13
  80  0.334  0.736  0.677-  31 1.88  34 1.88  22 1.98   8 2.09
  81  0.341  0.261  0.672-  33 1.84  24 1.87  21 1.90   9 2.11
  82  0.451  0.070  0.883-  32 1.87  17 1.88  14 1.98   9 2.09
  83  0.451  0.603  0.892-  34 1.84  31 1.88  16 1.89   4 1.99
  84  0.547  0.403  0.758-  24 1.86  36 1.88  33 2.06  10 2.11
  85  0.549  0.930  0.785-  32 1.87  17 1.87  35 2.00   8 2.08
  86  0.672  0.736  0.664-  37 1.85  25 1.88  34 1.98   6 2.09
  87  0.664  0.264  0.672-  36 1.85  24 1.88  27 1.98   9 2.09
  88  0.773  0.065  0.889-  17 1.86  35 1.86  11 1.89   9 2.11
  89  0.761  0.586  0.859-  37 1.86  34 1.90   1 2.12  19 2.16  10 2.17
  90  0.859  0.414  0.761-  36 1.86  27 1.90   1 2.12  30 2.16  10 2.17
  91  0.889  0.935  0.773-  29 1.86  35 1.86  11 1.89   6 2.11
 
  LATTYP: Found a base centered monoclinic cell.
 ALAT       =    14.6249098409
 B/A-ratio  =     0.5731202361
 C/A-ratio  =     1.3956243753
 COS(beta)  =    -0.6170579452
  
  Lattice vectors:
  
 A1 = (  -4.2604486300,  -0.0273116300,   7.2721114100)
 A2 = (  -8.4282722500,   0.0000000000,   0.0000000000)
 A3 = (  12.5946960800, -14.3211059500,  -7.2721114100)


Analysis of symmetry for initial positions (statically):
=====================================================================
 Subroutine PRICEL returns:
 Original cell was already a primitive cell.
 

 Routine SETGRP: Setting up the symmetry group for a 
 base centered monoclinic supercell.


 Subroutine GETGRP returns: Found  1 space group operations
 (whereof  1 operations were pure point group operations)
 out of a pool of  4 trial point group operations.


The static configuration has the point symmetry C_1 .


Analysis of symmetry for dynamics (positions and initial velocities):
=====================================================================
 Subroutine PRICEL returns:
 Original cell was already a primitive cell.
 

 Routine SETGRP: Setting up the symmetry group for a 
 base centered monoclinic supercell.


 Subroutine GETGRP returns: Found  1 space group operations
 (whereof  1 operations were pure point group operations)
 out of a pool of  4 trial point group operations.


The dynamic configuration has the point symmetry C_1 .


Analysis of structural, dynamic, and magnetic symmetry:
=====================================================================
 Subroutine PRICEL returns:
 Original cell was already a primitive cell.
 

 Routine SETGRP: Setting up the symmetry group for a 
 base centered monoclinic supercell.


 Subroutine GETGRP returns: Found  1 space group operations
 (whereof  1 operations were pure point group operations)
 out of a pool of  4 trial point group operations.


The magnetic configuration has the point symmetry C_1 .


 Subroutine INISYM returns: Found  1 space group operations
 (whereof  1 operations are pure point group operations),
 and found     1 'primitive' translations

 
 
 KPOINTS: Automatic mesh                          

Automatic generation of k-mesh.
Space group operators:
 irot       det(A)        alpha          n_x          n_y          n_z        tau_x        tau_y        tau_z
    1     1.000000     0.000000     1.000000     0.000000     0.000000     0.000000     0.000000     0.000000
 
 Subroutine IBZKPT returns following result:
 ===========================================
 
 Found      1 irreducible k-points:
 
 Following reciprocal coordinates:
            Coordinates               Weight
  0.000000  0.000000  0.000000      1.000000
 
 Following cartesian coordinates:
            Coordinates               Weight
  0.000000  0.000000  0.000000      1.000000
 


--------------------------------------------------------------------------------------------------------




 Dimension of arrays:
   k-points           NKPTS =      1   k-points in BZ     NKDIM =      1   number of bands    NBANDS=    432
   number of dos      NEDOS =    301   number of ions     NIONS =     91
   non local maximal  LDIM  =      6   non local SUM 2l+1 LMDIM =     18
   total plane-waves  NPLWV = 442368
   max r-space proj   IRMAX =   6803   max aug-charges    IRDMAX=  16503
   dimension x,y,z NGX =    64 NGY =  108 NGZ =   64
   dimension x,y,z NGXF=   128 NGYF=  216 NGZF=  128
   support grid    NGXF=   128 NGYF=  216 NGZF=  128
   ions per type =              10  27  54
   NGX,Y,Z   is equivalent  to a cutoff of  12.62, 12.51, 12.62 a.u.
   NGXF,Y,Z  is equivalent  to a cutoff of  25.25, 25.03, 25.25 a.u.

 SYSTEM =  unknown system                          
 POSCAR =  0                                       

 Startparameter for this run:
   NWRITE =      1    write-flag & timer
   PREC   = accura    normal or accurate (medium, high low for compatibility)
   ISTART =      0    job   : 0-new  1-cont  2-samecut
   ICHARG =      2    charge: 1-file 2-atom 10-const
   ISPIN  =      2    spin polarized calculation?
   LNONCOLLINEAR =      F non collinear calculations
   LSORBIT =      F    spin-orbit coupling
   INIWAV =      1    electr: 0-lowe 1-rand  2-diag
   LASPH  =      F    aspherical Exc in radial PAW
   METAGGA=      F    non-selfconsistent MetaGGA calc.

 Electronic Relaxation 1
   ENCUT  =  500.0 eV  36.75 Ry    6.06 a.u.  15.37 26.16 15.37*2*pi/ulx,y,z
   ENINI  =  500.0     initial cutoff
   ENAUG  =  628.9 eV  augmentation charge cutoff
   NELM   =     80;   NELMIN=  2; NELMDL= -5     # of ELM steps 
   EDIFF  = 0.1E-04   stopping-criterion for ELM
   LREAL  =      T    real-space projection
   NLSPLINE    = F    spline interpolate recip. space projectors
   LCOMPAT=      F    compatible to vasp.4.4
   GGA_COMPAT  = T    GGA compatible to vasp.4.4-vasp.4.6
   LMAXPAW     = -100 max onsite density
   LMAXMIX     =    2 max onsite mixed and CHGCAR
   VOSKOWN=      1    Vosko Wilk Nusair interpolation
   ROPT   =   -0.00025  -0.00025  -0.00025
 Ionic relaxation
   EDIFFG = 0.1E-03   stopping-criterion for IOM
   NSW    =      0    number of steps for IOM
   NBLOCK =      1;   KBLOCK =      1    inner block; outer block 
   IBRION =     -1    ionic relax: 0-MD 1-quasi-New 2-CG
   NFREE  =      0    steps in history (QN), initial steepest desc. (CG)
   ISIF   =      2    stress and relaxation
   IWAVPR =     10    prediction:  0-non 1-charg 2-wave 3-comb
   ISYM   =      2    0-nonsym 1-usesym 2-fastsym
   LCORR  =      T    Harris-Foulkes like correction to forces

   POTIM  = 0.5000    time-step for ionic-motion
   TEIN   =    0.0    initial temperature
   TEBEG  =    0.0;   TEEND  =   0.0 temperature during run
   SMASS  =  -3.00    Nose mass-parameter (am)
   estimated Nose-frequenzy (Omega)   =  0.10E-29 period in steps =****** mass=  -0.162E-26a.u.
   SCALEE = 1.0000    scale energy and forces
   NPACO  =    256;   APACO  = 16.0  distance and # of slots for P.C.
   PSTRESS=    0.0 pullay stress

  Mass of Ions in am
   POMASS =   7.01 58.69 16.00
  Ionic Valenz
   ZVAL   =   3.00 10.00  6.00
  Atomic Wigner-Seitz radii
   RWIGS  =   1.23  1.15  0.73
  virtual crystal weights 
   VCA    =   1.00  1.00  1.00
   NELECT =     624.0000    total number of electrons
   NUPDOWN=      -1.0000    fix difference up-down

 DOS related values:
   EMIN   =  10.00;   EMAX   =-10.00  energy-range for DOS
   EFERMI =   0.00
   ISMEAR =     0;   SIGMA  =   0.05  broadening in eV -4-tet -1-fermi 0-gaus

 Electronic relaxation 2 (details)
   IALGO  =     38    algorithm
   LDIAG  =      T    sub-space diagonalisation (order eigenvalues)
   LSUBROT=      F    optimize rotation matrix (better conditioning)
   TURBO    =      0    0=normal 1=particle mesh
   IRESTART =      0    0=no restart 2=restart with 2 vectors
   NREBOOT  =      0    no. of reboots
   NMIN     =      0    reboot dimension
   EREF     =   0.00    reference energy to select bands
   IMIX   =      4    mixing-type and parameters
     AMIX     =   0.40;   BMIX     =  1.00
     AMIX_MAG =   1.60;   BMIX_MAG =  1.00
     AMIN     =   0.10
     WC   =   100.;   INIMIX=   1;  MIXPRE=   1;  MAXMIX= -45

 Intra band minimization:
   WEIMIN = 0.0000     energy-eigenvalue tresh-hold
   EBREAK =  0.58E-08  absolut break condition
   DEPER  =   0.30     relativ break condition  

   TIME   =   0.40     timestep for ELM

  volume/ion in A,a.u.               =       9.66        65.22
  Fermi-wavevector in a.u.,A,eV,Ry     =   1.460165  2.759312 29.008743  2.132082
  Thomas-Fermi vector in A             =   2.576647
 
 Write flags
   LWAVE        =      F    write WAVECAR
   LDOWNSAMPLE  =      F    k-point downsampling of WAVECAR
   LCHARG       =      T    write CHGCAR
   LVTOT        =      F    write LOCPOT, total local potential
   LVHAR        =      F    write LOCPOT, Hartree potential only
   LELF         =      F    write electronic localiz. function (ELF)
   LORBIT       =      0    0 simple, 1 ext, 2 COOP (PROOUT), +10 PAW based schemes


 Dipole corrections
   LMONO  =      F    monopole corrections only (constant potential shift)
   LDIPOL =      F    correct potential (dipole corrections)
   IDIPOL =      0    1-x, 2-y, 3-z, 4-all directions 
   EPSILON=  1.0000000 bulk dielectric constant

 Exchange correlation treatment:
   GGA     =    PS    GGA type
   LEXCH   =    14    internal setting for exchange type
   VOSKOWN=      1    Vosko Wilk Nusair interpolation
   LHFCALC =     F    Hartree Fock is set to
   LHFONE  =     F    Hartree Fock one center treatment
   AEXX    =    0.0000 exact exchange contribution

 Linear response parameters
   LEPSILON=     F    determine dielectric tensor
   LRPA    =     F    only Hartree local field effects (RPA)
   LNABLA  =     F    use nabla operator in PAW spheres
   LVEL    =     F    velocity operator in full k-point grid
   LINTERFAST=   F  fast interpolation
   KINTER  =     0    interpolate to denser k-point grid
   CSHIFT  =0.1000    complex shift for real part using Kramers Kronig
   OMEGAMAX=  -1.0    maximum frequency
   DEG_THRESHOLD= 0.2000000E-02 threshold for treating states as degnerate
   RTIME   =   -0.100 relaxation time in fs
  (WPLASMAI=    0.000 imaginary part of plasma frequency in eV, 0.658/RTIME)
   DFIELD  = 0.0000000 0.0000000 0.0000000 field for delta impulse in time
 
 Orbital magnetization related:
   ORBITALMAG=     F  switch on orbital magnetization
   LCHIMAG   =     F  perturbation theory with respect to B field
   DQ        =  0.001000  dq finite difference perturbation B field
   LLRAUG    =     F  two centre corrections for induced B field



--------------------------------------------------------------------------------------------------------


 Static calculation
 charge density and potential will be updated during run
 spin polarized calculation
 Variant of blocked Davidson
 Davidson routine will perform the subspace rotation
 perform sub-space diagonalisation
    after iterative eigenvector-optimisation
 modified Broyden-mixing scheme, WC =      100.0
 initial mixing is a Kerker type mixing with AMIX =  0.4000 and BMIX =      1.0000
 Hartree-type preconditioning will be used
 using additional bands          120
 real space projection scheme for non local part
 use partial core corrections
 calculate Harris-corrections to forces 
   (improved forces if not selfconsistent)
 use gradient corrections 
 use of overlap-Matrix (Vanderbilt PP)
 Gauss-broadening in eV      SIGMA  =   0.05


--------------------------------------------------------------------------------------------------------


  energy-cutoff  :      500.00
  volume of cell :      879.43
      direct lattice vectors                 reciprocal lattice vectors
     8.428272250  0.000000000  0.000000000     0.118648279 -0.000777499  0.069508515
     0.094024800 14.348417580  0.000000000     0.000000000  0.069694097  0.000261748
    -4.260448630 -0.027311630  7.272111410     0.000000000  0.000000000  0.137511645

  length of vectors
     8.428272250 14.348725648  8.428272232     0.137511644  0.069694588  0.137511645


 
 k-points in units of 2pi/SCALE and weight: Automatic mesh                          
   0.00000000  0.00000000  0.00000000       1.000
 
 k-points in reciprocal lattice and weights: Automatic mesh                          
   0.00000000  0.00000000  0.00000000       1.000
 
 position of ions in fractional coordinates (direct lattice) 
   0.99760800  0.50000028  0.99760847
   0.10865437  0.83218137  0.22059892
   0.22059905  0.16781835  0.10865424
   0.38137270  0.49908146  0.00082447
   0.00082359  0.50091877  0.38137257
   0.77963811  0.83460199  0.56089755
   0.89138165  0.16645550  0.44505834
   0.44505940  0.83354507  0.89138371
   0.56089775  0.16539840  0.77963765
   0.61549085  0.50000023  0.61549119
   0.99929867  0.99999984  0.99929923
   0.10469260  0.33720986  0.22619018
   0.22619064  0.66278995  0.10469063
   0.33396387  0.00016012  0.99993677
   0.44165124  0.33383677  0.21801019
   0.56419983  0.67102516  0.11551643
   0.66861116  0.99960424  0.00239993
   0.78303879  0.33385946  0.22417091
   0.88857831  0.66167729  0.11614153
   0.99993552  0.99983882  0.33396520
   0.11551676  0.32897483  0.56420016
   0.21800354  0.66615682  0.44163759
   0.33471327  0.99999983  0.33471369
   0.43679340  0.32732445  0.54922731
   0.54922740  0.67267536  0.43679363
   0.66537380  0.99998218  0.33187910
   0.77518090  0.33422642  0.55287124
   0.89334875  0.67513698  0.44805511
   0.00240013  0.00039596  0.66861114
   0.11614297  0.33832236  0.88857965
   0.22417123  0.66614042  0.78303783
   0.33187938  0.00001802  0.66537392
   0.44805534  0.32486267  0.89334776
   0.55287004  0.66577383  0.77517969
   0.66697235  0.00000015  0.66697187
   0.77261835  0.33870252  0.87991947
   0.87991970  0.66129782  0.77262067
   0.99965643  0.72183416  0.00558965
   0.00559185  0.27816518  0.99965710
   0.11866838  0.07013019  0.21570638
   0.09353142  0.58458963  0.23584096
   0.23583713  0.41541183  0.09352939
   0.21570628  0.92986956  0.11866869
   0.34023384  0.73507630  0.00046776
   0.32798805  0.26430480  0.00162785
   0.43922573  0.06643523  0.21967289
   0.45203779  0.60102683  0.21501390
   0.56081532  0.39446324  0.11241872
   0.55487628  0.93348004  0.10709856
   0.66719901  0.73188875  0.99418409
   0.67738826  0.26938035  0.99504032
   0.77914749  0.06654335  0.22744021
   0.78429508  0.60181018  0.23723956
   0.90286349  0.41452792  0.14104821
   0.89398640  0.93385822  0.11384227
   0.00162674  0.73569503  0.32798637
   0.00046672  0.26492374  0.34023361
   0.10709839  0.06652033  0.55487616
   0.11241872  0.60553684  0.56081433
   0.21501380  0.39897334  0.45203736
   0.21967149  0.93356462  0.43922598
   0.31650799  0.73038328  0.32023354
   0.32023455  0.26961676  0.31650781
   0.44591884  0.06611393  0.56116004
   0.43891270  0.60603343  0.54827211
   0.54827162  0.39396684  0.43891289
   0.56116088  0.93388600  0.44591855
   0.67248669  0.73877577  0.34090660
   0.67695734  0.26394796  0.33446818
   0.78467199  0.06983324  0.54853773
   0.75808552  0.59724742  0.54736228
   0.89210585  0.39721415  0.45123685
   0.88344467  0.93020886  0.45080753
   0.99504062  0.73061966  0.67738839
   0.99418300  0.26811141  0.66719805
   0.11384111  0.06614161  0.89398683
   0.14104839  0.58547210  0.90286320
   0.23723943  0.39818995  0.78429454
   0.22744036  0.93345694  0.77914758
   0.33447413  0.73605484  0.67696793
   0.34090639  0.26122419  0.67248689
   0.45080905  0.06979175  0.88344277
   0.45123654  0.60278532  0.89210611
   0.54736128  0.40275259  0.75808525
   0.54853756  0.93016675  0.78467174
   0.67249212  0.73643074  0.66360980
   0.66360973  0.26356942  0.67249207
   0.77343630  0.06530118  0.88886187
   0.76143525  0.58638923  0.85906642
   0.85906641  0.41361085  0.76143503
   0.88886220  0.93469873  0.77343535
 
 position of ions in cartesian coordinates  (Angst):
   4.20486461  7.14696649  7.25471994
   0.05416393 11.93446088  1.60421992
   1.41213213  2.40496024  0.79014574
   3.25772637  7.16100668  0.00599564
  -1.57077802  7.17697578  2.77338382
   4.25980033 11.95989884  4.07890947
   5.63230998  2.37621775  3.23651383
   0.03176119 11.93570759  6.48224165
   1.42134434  2.35191214  5.66961185
   2.61226828  7.15740202  4.47592051
   4.25892300 14.32112279  7.26701533
  -0.04958782  4.83225026  1.64488019
   1.52268594  9.50712770  0.76132192
  -1.44542577 -0.02501243  7.27165159
   2.82492461  4.78407517  1.58539439
   4.32617096  9.62499426  0.84004835
   5.71899970 14.34267350  0.01745256
   5.67598653  4.78423247  1.63019583
   7.05657896  9.49085005  0.84459415
   7.09889686 14.33698377  2.42863214
  -1.39920730  4.70485901  4.10292642
   0.01845418  9.54623438  3.21163776
   1.48904887 14.33927356  2.43407524
   1.37223557  4.68158760  3.99404219
   2.83134940  9.63989742  3.17641194
   4.28802080 14.33909773  2.41346179
   4.20938172  4.78052043  4.02054125
   5.68395032  9.67491020  3.25830668
  -2.82831724 -0.01257946  4.86221470
  -2.77505269  4.83012194  6.46185021
  -1.38408257  9.53667487  5.69433834
  -0.03761994 -0.01791389  4.83867328
   0.00081530  4.63686646  6.49652444
   1.41972522  9.53162951  5.63719307
   2.77982517 -0.01821394  4.85029375
   2.79483254  4.83581316  6.39887242
   4.18667051  9.46747574  5.61858359
   8.46943244 10.35702529  0.04064856
  -4.18570366  3.96392789  7.26961780
   0.08775744  1.00036596  1.56864083
  -0.16151410  8.38149492  1.71506174
   1.62828139  5.95794796  0.68015614
   1.39988020 13.33891571  0.86297193
   2.93470597 10.54716893  0.00340160
   2.78228841  3.79231118  0.01183791
   2.77225553  0.94724080  1.59748573
   2.95035331  8.61791155  1.56360504
   4.28483934  5.65685295  0.81752146
   4.30813071 13.39103638  0.77883266
   1.45648035 10.47429262  7.22981746
   1.49522294  3.83800558  7.23604406
   5.60412656  0.94858001  1.65397055
   5.65609058  8.62854437  1.72523251
   7.04762655  5.94396744  1.02571830
   7.13754746 13.39627848  0.82787367
  -1.31448490 10.54710166  2.38515342
  -1.42070477  3.79194411  2.47421672
  -1.45511243  0.93930690  4.03512125
  -1.38488959  8.67317869  4.07830429
  -0.07617372  5.71229021  3.28726604
   0.06792963 13.38317903  3.19410026
   1.37195110 10.47109819  2.32877398
   1.37590937  3.85992951  2.30168006
   1.37374821  0.93330408  4.08081833
   1.42037274  8.68064652  3.98709587
   2.78805931  5.64081331  3.19182344
   2.91761204 13.38760754  3.24276938
   4.28494909 10.59095253  2.47911078
   4.30541392  3.77810068  2.43228987
   4.28297839  0.98701503  3.98902749
   4.11349834  8.55460602  3.98047948
   5.63378754  5.68707048  3.28144465
   5.61273258 13.33471287  3.27832258
   5.56919117 10.46473539  4.92604384
   5.56189109  3.82875220  4.85193855
  -2.84308215  0.92461120  6.50117183
  -2.60275916  8.37593951  6.56572178
  -1.30448836  5.69197532  5.70347727
  -1.31482086 13.37235018  5.66604801
   0.00405935 10.54273311  4.92298621
   0.03271757  3.72978705  4.89039959
   0.04224102  0.97727291  6.42449425
   0.05904892  8.62465061  6.48749502
   1.42139535  5.75815780  5.51288040
   1.36762900 13.32499028  5.70622031
   2.90991396 10.54849151  4.82584440
   2.75274762  3.76343724  4.89043726
   2.73792130  0.91269233  6.46390255
   2.81271037  8.39029503  6.24722671
   4.03528043  5.91386516  5.53724037
   4.28427590 13.39032391  5.62450803
 


--------------------------------------------------------------------------------------------------------


 use serial FFT for orbitals x direction half grid
 k-point  1 :   0.0000 0.0000 0.0000  plane waves:   11189

 maximum and minimum number of plane-waves per node :     11189    11189

 maximum number of plane-waves:     11189
 maximum index in each direction: 
   IXMAX=   15   IYMAX=   26   IZMAX=   13
   IXMIN=    0   IYMIN=  -26   IZMIN=  -15

 The following grids will avoid any aliasing or wrap around errors in the Hartre
 e energy
  - symmetry arguments have not been applied
  - exchange correlation energies might require even more grid points
  - we recommend to set PREC=Normal or Accurate and rely on VASP defaults
 NGX is ok and might be reduce to    64
 NGY is ok and might be reduce to   108
 NGZ is ok and might be reduce to    60

 serial   3D FFT for wavefunctions
 parallel 3D FFT for charge:
    minimum data exchange during FFTs selected (reduces bandwidth)


 total amount of memory used by VASP MPI-rank0   145651. kBytes
=======================================================================

   base      :      30000. kBytes
   nonlr-proj:      39457. kBytes
   fftplans  :       9349. kBytes
   grid      :      55332. kBytes
   one-center:       1415. kBytes
   wavefun   :      10098. kBytes
 
     INWAV:  cpu time    0.0000: real time    0.0000
 Broyden mixing: mesh for mixing (old mesh)
   NGX = 31   NGY = 53   NGZ = 31
  (NGX  =128   NGY  =216   NGZ  =128)
  gives a total of  50933 points

 initial charge density was supplied:
 charge density of overlapping atoms calculated
 number of electron     624.0000000 magnetization      91.0000000
 keeping initial charge density in first step


--------------------------------------------------------------------------------------------------------


 Maximum index for non-local projection operator         6571
 Maximum index for augmentation-charges         1079 (set IRDMAX)


--------------------------------------------------------------------------------------------------------


 First call to EWALD:  gamma=   0.185
 Maximum number of real-space cells 3x 2x 3
 Maximum number of reciprocal cells 2x 4x 2

    FEWALD:  cpu time    0.0032: real time    0.0032


--------------------------------------- Iteration      1(   1)  ---------------------------------------


    POTLOK:  cpu time    0.2432: real time    2.3737
    SETDIJ:  cpu time    0.0277: real time    0.0278
     EDDAV:  cpu time    3.8745: real time    3.9806
    --------------------------------------------
      LOOP:  cpu time    4.1459: real time    6.3827

 eigenvalue-minimisations  :  1728
 total energy-change (2. order) : 0.1098403E+05  (-0.2843390E+05)
 number of electron     624.0000000 magnetization      91.0000000
 augmentation part      624.0000000 magnetization      91.0000000

 Free energy of the ion-electron system (eV)
  ---------------------------------------------------
  alpha Z        PSCENC =      1918.83428606
  Ewald energy   TEWEN  =    -35858.73419954
  -Hartree energ DENC   =    -19719.33088671
  -exchange      EXHF   =         0.00000000
  -V(xc)+E(xc)   XCENC  =      2528.89224484
  PAW double counting   =     45461.00673892   -47496.65200714
  entropy T*S    EENTRO =        -0.02552571
  eigenvalues    EBANDS =      9804.29502468
  atomic energy  EATOM  =     54345.74550241
  Solvation  Ediel_sol  =         0.00000000
  ---------------------------------------------------
  free energy    TOTEN  =     10984.03117782 eV

  energy without entropy =    10984.05670352  energy(sigma->0) =    10984.04394067


--------------------------------------------------------------------------------------------------------




--------------------------------------- Iteration      1(   2)  ---------------------------------------


     EDDAV:  cpu time    3.9735: real time    3.9830
    --------------------------------------------
      LOOP:  cpu time    3.9733: real time    3.9828

 eigenvalue-minimisations  :  1808
 total energy-change (2. order) :-0.8945898E+04  (-0.8078532E+04)
 number of electron     624.0000000 magnetization      91.0000000
 augmentation part      624.0000000 magnetization      91.0000000

 Free energy of the ion-electron system (eV)
  ---------------------------------------------------
  alpha Z        PSCENC =      1918.83428606
  Ewald energy   TEWEN  =    -35858.73419954
  -Hartree energ DENC   =    -19719.33088671
  -exchange      EXHF   =         0.00000000
  -V(xc)+E(xc)   XCENC  =      2528.89224484
  PAW double counting   =     45461.00673892   -47496.65200714
  entropy T*S    EENTRO =        -0.02980491
  eigenvalues    EBANDS =       858.40111308
  atomic energy  EATOM  =     54345.74550241
  Solvation  Ediel_sol  =         0.00000000
  ---------------------------------------------------
  free energy    TOTEN  =      2038.13298701 eV

  energy without entropy =     2038.16279192  energy(sigma->0) =     2038.14788947


--------------------------------------------------------------------------------------------------------




--------------------------------------- Iteration      1(   3)  ---------------------------------------


     EDDAV:  cpu time    4.0601: real time    4.0697
    --------------------------------------------
      LOOP:  cpu time    4.0600: real time    4.0697

 eigenvalue-minimisations  :  1856
 total energy-change (2. order) :-0.2365224E+04  (-0.2009328E+04)
 number of electron     624.0000000 magnetization      91.0000000
 augmentation part      624.0000000 magnetization      91.0000000

 Free energy of the ion-electron system (eV)
  ---------------------------------------------------
  alpha Z        PSCENC =      1918.83428606
  Ewald energy   TEWEN  =    -35858.73419954
  -Hartree energ DENC   =    -19719.33088671
  -exchange      EXHF   =         0.00000000
  -V(xc)+E(xc)   XCENC  =      2528.89224484
  PAW double counting   =     45461.00673892   -47496.65200714
  entropy T*S    EENTRO =        -0.07065854
  eigenvalues    EBANDS =     -1506.78159464
  atomic energy  EATOM  =     54345.74550241
  Solvation  Ediel_sol  =         0.00000000
  ---------------------------------------------------
  free energy    TOTEN  =      -327.09057433 eV

  energy without entropy =     -327.01991580  energy(sigma->0) =     -327.05524507


--------------------------------------------------------------------------------------------------------




--------------------------------------- Iteration      1(   4)  ---------------------------------------


     EDDAV:  cpu time    4.3770: real time    4.3874
    --------------------------------------------
      LOOP:  cpu time    4.3770: real time    4.3874

 eigenvalue-minimisations  :  2048
 total energy-change (2. order) :-0.3811380E+03  (-0.3653281E+03)
 number of electron     624.0000000 magnetization      91.0000000
 augmentation part      624.0000000 magnetization      91.0000000

 Free energy of the ion-electron system (eV)
  ---------------------------------------------------
  alpha Z        PSCENC =      1918.83428606
  Ewald energy   TEWEN  =    -35858.73419954
  -Hartree energ DENC   =    -19719.33088671
  -exchange      EXHF   =         0.00000000
  -V(xc)+E(xc)   XCENC  =      2528.89224484
  PAW double counting   =     45461.00673892   -47496.65200714
  entropy T*S    EENTRO =        -0.03823304
  eigenvalues    EBANDS =     -1887.95205983
  atomic energy  EATOM  =     54345.74550241
  Solvation  Ediel_sol  =         0.00000000
  ---------------------------------------------------
  free energy    TOTEN  =      -708.22861403 eV

  energy without entropy =     -708.19038099  energy(sigma->0) =     -708.20949751


--------------------------------------------------------------------------------------------------------




--------------------------------------- Iteration      1(   5)  ---------------------------------------


     EDDAV:  cpu time    5.1007: real time    5.1129
    CHARGE:  cpu time    0.2129: real time    0.2134
    MIXING:  cpu time    0.0042: real time    0.0043
    --------------------------------------------
      LOOP:  cpu time    5.3176: real time    5.3303

 eigenvalue-minimisations  :  2480
 total energy-change (2. order) :-0.1734541E+02  (-0.1716257E+02)
 number of electron     623.9999747 magnetization      70.1467562
 augmentation part      184.3049821 magnetization      67.5232357

 Broyden mixing:
  rms(total) = 0.14928E+02    rms(broyden)= 0.14926E+02
  rms(prec ) = 0.16334E+02
  weight for this iteration     100.00

 Free energy of the ion-electron system (eV)
  ---------------------------------------------------
  alpha Z        PSCENC =      1918.83428606
  Ewald energy   TEWEN  =    -35858.73419954
  -Hartree energ DENC   =    -19719.33088671
  -exchange      EXHF   =         0.00000000
  -V(xc)+E(xc)   XCENC  =      2528.89224484
  PAW double counting   =     45461.00673892   -47496.65200714
  entropy T*S    EENTRO =        -0.03642654
  eigenvalues    EBANDS =     -1905.29927967
  atomic energy  EATOM  =     54345.74550241
  Solvation  Ediel_sol  =         0.00000000
  ---------------------------------------------------
  free energy    TOTEN  =      -725.57402737 eV

  energy without entropy =     -725.53760083  energy(sigma->0) =     -725.55581410


--------------------------------------------------------------------------------------------------------




--------------------------------------- Iteration      1(   6)  ---------------------------------------


    POTLOK:  cpu time    0.2053: real time    0.2058
    SETDIJ:  cpu time    0.0278: real time    0.0279
     EDDAV:  cpu time    5.2930: real time    5.3056
    CHARGE:  cpu time    0.2059: real time    0.2064
    MIXING:  cpu time    0.0046: real time    0.0046
    --------------------------------------------
      LOOP:  cpu time    5.7367: real time    5.7503

 eigenvalue-minimisations  :  2592
 total energy-change (2. order) : 0.2630749E+02  (-0.1556950E+03)
 number of electron     623.9999802 magnetization      66.3041163
 augmentation part      240.6820146 magnetization      47.0168910

 Broyden mixing:
  rms(total) = 0.23848E+02    rms(broyden)= 0.23847E+02
  rms(prec ) = 0.25057E+02
  weight for this iteration     100.00

 eigenvalues of (default mixing * dielectric matrix)
  average eigenvalue GAMMA=   0.3286
  0.3286

 Free energy of the ion-electron system (eV)
  ---------------------------------------------------
  alpha Z        PSCENC =      1918.83428606
  Ewald energy   TEWEN  =    -35858.73419954
  -Hartree energ DENC   =    -18795.42228042
  -exchange      EXHF   =         0.00000000
  -V(xc)+E(xc)   XCENC  =      2581.43097347
  PAW double counting   =     50096.35477643   -51840.24449445
  entropy T*S    EENTRO =        -0.05112660
  eigenvalues    EBANDS =     -3147.17997215
  atomic energy  EATOM  =     54345.74550241
  Solvation  Ediel_sol  =         0.00000000
  ---------------------------------------------------
  free energy    TOTEN  =      -699.26653478 eV

  energy without entropy =     -699.21540818  energy(sigma->0) =     -699.24097148


--------------------------------------------------------------------------------------------------------




--------------------------------------- Iteration      1(   7)  ---------------------------------------


    POTLOK:  cpu time    0.2043: real time    0.2048
    SETDIJ:  cpu time    0.0280: real time    0.0281
     EDDAV:  cpu time    4.8635: real time    4.8751
    CHARGE:  cpu time    0.2040: real time    0.2045
    MIXING:  cpu time    0.0047: real time    0.0047
    --------------------------------------------
      LOOP:  cpu time    5.3046: real time    5.3172

 eigenvalue-minimisations  :  2352
 total energy-change (2. order) : 0.2009743E+03  (-0.4867887E+02)
 number of electron     623.9999782 magnetization      54.5737580
 augmentation part      219.0379245 magnetization      44.5496778

 Broyden mixing:
  rms(total) = 0.77840E+01    rms(broyden)= 0.77832E+01
  rms(prec ) = 0.85902E+01
  weight for this iteration     100.00

 eigenvalues of (default mixing * dielectric matrix)
  average eigenvalue GAMMA=   0.5895
  0.6908  0.4882

 Free energy of the ion-electron system (eV)
  ---------------------------------------------------
  alpha Z        PSCENC =      1918.83428606
  Ewald energy   TEWEN  =    -35858.73419954
  -Hartree energ DENC   =    -19182.47315355
  -exchange      EXHF   =         0.00000000
  -V(xc)+E(xc)   XCENC  =      2564.18497717
  PAW double counting   =     52241.48303471   -54181.65158294
  entropy T*S    EENTRO =        -0.05681563
  eigenvalues    EBANDS =     -2345.62424070
  atomic energy  EATOM  =     54345.74550241
  Solvation  Ediel_sol  =         0.00000000
  ---------------------------------------------------
  free energy    TOTEN  =      -498.29219201 eV

  energy without entropy =     -498.23537638  energy(sigma->0) =     -498.26378420


--------------------------------------------------------------------------------------------------------




--------------------------------------- Iteration      1(   8)  ---------------------------------------


    POTLOK:  cpu time    0.2037: real time    0.2042
    SETDIJ:  cpu time    0.0278: real time    0.0279
     EDDAV:  cpu time    5.1014: real time    5.1135
    CHARGE:  cpu time    0.2056: real time    0.2061
    MIXING:  cpu time    0.0048: real time    0.0048
    --------------------------------------------
      LOOP:  cpu time    5.5434: real time    5.5566

 eigenvalue-minimisations  :  2496
 total energy-change (2. order) :-0.3867363E+02  (-0.1802242E+02)
 number of electron     623.9999795 magnetization      51.2062061
 augmentation part      200.8259848 magnetization      44.9556305

 Broyden mixing:
  rms(total) = 0.14085E+02    rms(broyden)= 0.14084E+02
  rms(prec ) = 0.19293E+02
  weight for this iteration     100.00

 eigenvalues of (default mixing * dielectric matrix)
  average eigenvalue GAMMA=   0.4871
  0.8374  0.4458  0.1780

 Free energy of the ion-electron system (eV)
  ---------------------------------------------------
  alpha Z        PSCENC =      1918.83428606
  Ewald energy   TEWEN  =    -35858.73419954
  -Hartree energ DENC   =    -19379.07415108
  -exchange      EXHF   =         0.00000000
  -V(xc)+E(xc)   XCENC  =      2556.76629324
  PAW double counting   =     54873.04269254   -56951.10993863
  entropy T*S    EENTRO =        -0.07587980
  eigenvalues    EBANDS =     -2042.36043059
  atomic energy  EATOM  =     54345.74550241
  Solvation  Ediel_sol  =         0.00000000
  ---------------------------------------------------
  free energy    TOTEN  =      -536.96582539 eV

  energy without entropy =     -536.88994558  energy(sigma->0) =     -536.92788549


--------------------------------------------------------------------------------------------------------




--------------------------------------- Iteration      1(   9)  ---------------------------------------


    POTLOK:  cpu time    0.2046: real time    0.2051
    SETDIJ:  cpu time    0.0277: real time    0.0277
     EDDAV:  cpu time    4.7911: real time    4.8025
    CHARGE:  cpu time    0.2061: real time    0.2066
    MIXING:  cpu time    0.0052: real time    0.0052
    --------------------------------------------
      LOOP:  cpu time    5.2347: real time    5.2472

 eigenvalue-minimisations  :  2304
 total energy-change (2. order) :-0.2810780E+01  (-0.3376514E+02)
 number of electron     623.9999801 magnetization      46.3541141
 augmentation part      198.2712940 magnetization      39.0456714

 Broyden mixing:
  rms(total) = 0.14564E+02    rms(broyden)= 0.14563E+02
  rms(prec ) = 0.19125E+02
  weight for this iteration     100.00

 eigenvalues of (default mixing * dielectric matrix)
  average eigenvalue GAMMA=   0.4490
  1.0283  0.3862  0.2994  0.0822

 Free energy of the ion-electron system (eV)
  ---------------------------------------------------
  alpha Z        PSCENC =      1918.83428606
  Ewald energy   TEWEN  =    -35858.73419954
  -Hartree energ DENC   =    -19369.13764813
  -exchange      EXHF   =         0.00000000
  -V(xc)+E(xc)   XCENC  =      2554.23216903
  PAW double counting   =     55629.19041811   -57719.50040193
  entropy T*S    EENTRO =        -0.10661370
  eigenvalues    EBANDS =     -2040.30011780
  atomic energy  EATOM  =     54345.74550241
  Solvation  Ediel_sol  =         0.00000000
  ---------------------------------------------------
  free energy    TOTEN  =      -539.77660549 eV

  energy without entropy =     -539.66999179  energy(sigma->0) =     -539.72329864


--------------------------------------------------------------------------------------------------------




--------------------------------------- Iteration      1(  10)  ---------------------------------------


    POTLOK:  cpu time    0.2037: real time    0.2041
    SETDIJ:  cpu time    0.0276: real time    0.0277
     EDDAV:  cpu time    4.9761: real time    4.9879
    CHARGE:  cpu time    0.2056: real time    0.2061
    MIXING:  cpu time    0.0051: real time    0.0051
    --------------------------------------------
      LOOP:  cpu time    5.4181: real time    5.4309

 eigenvalue-minimisations  :  2416
 total energy-change (2. order) : 0.2892112E+02  (-0.1052124E+02)
 number of electron     623.9999780 magnetization      41.8729856
 augmentation part      201.9725821 magnetization      37.3020353

 Broyden mixing:
  rms(total) = 0.81674E+01    rms(broyden)= 0.81664E+01
  rms(prec ) = 0.93991E+01
  weight for this iteration     100.00

 eigenvalues of (default mixing * dielectric matrix)
  average eigenvalue GAMMA=   0.4232
  1.1542  0.3946  0.2568  0.2402  0.0702

 Free energy of the ion-electron system (eV)
  ---------------------------------------------------
  alpha Z        PSCENC =      1918.83428606
  Ewald energy   TEWEN  =    -35858.73419954
  -Hartree energ DENC   =    -19349.48943567
  -exchange      EXHF   =         0.00000000
  -V(xc)+E(xc)   XCENC  =      2549.50558822
  PAW double counting   =     56749.95244156   -58851.91041057
  entropy T*S    EENTRO =        -0.04620249
  eigenvalues    EBANDS =     -2014.71305778
  atomic energy  EATOM  =     54345.74550241
  Solvation  Ediel_sol  =         0.00000000
  ---------------------------------------------------
  free energy    TOTEN  =      -510.85548780 eV

  energy without entropy =     -510.80928531  energy(sigma->0) =     -510.83238656


--------------------------------------------------------------------------------------------------------




--------------------------------------- Iteration      1(  11)  ---------------------------------------


    POTLOK:  cpu time    0.2045: real time    0.2050
    SETDIJ:  cpu time    0.0276: real time    0.0277
     EDDAV:  cpu time    4.7485: real time    4.7598
    CHARGE:  cpu time    0.2049: real time    0.2054
    MIXING:  cpu time    0.0054: real time    0.0055
    --------------------------------------------
      LOOP:  cpu time    5.1910: real time    5.2034

 eigenvalue-minimisations  :  2272
 total energy-change (2. order) : 0.1108397E+02  (-0.1467357E+02)
 number of electron     623.9999772 magnetization      38.4255537
 augmentation part      205.3379605 magnetization      34.5348690

 Broyden mixing:
  rms(total) = 0.44888E+01    rms(broyden)= 0.44879E+01
  rms(prec ) = 0.51331E+01
  weight for this iteration     100.00

 eigenvalues of (default mixing * dielectric matrix)
  average eigenvalue GAMMA=   0.4231
  1.1616  0.4541  0.3681  0.3681  0.1107  0.0759

 Free energy of the ion-electron system (eV)
  ---------------------------------------------------
  alpha Z        PSCENC =      1918.83428606
  Ewald energy   TEWEN  =    -35858.73419954
  -Hartree energ DENC   =    -19328.58941221
  -exchange      EXHF   =         0.00000000
  -V(xc)+E(xc)   XCENC  =      2545.79568778
  PAW double counting   =     57614.40939637   -59722.76612553
  entropy T*S    EENTRO =        -0.03588205
  eigenvalues    EBANDS =     -2014.43076811
  atomic energy  EATOM  =     54345.74550241
  Solvation  Ediel_sol  =         0.00000000
  ---------------------------------------------------
  free energy    TOTEN  =      -499.77151482 eV

  energy without entropy =     -499.73563277  energy(sigma->0) =     -499.75357380


--------------------------------------------------------------------------------------------------------




--------------------------------------- Iteration      1(  12)  ---------------------------------------


    POTLOK:  cpu time    0.2034: real time    0.2039
    SETDIJ:  cpu time    0.0277: real time    0.0277
     EDDAV:  cpu time    4.9705: real time    4.9823
    CHARGE:  cpu time    0.2054: real time    0.2059
    MIXING:  cpu time    0.0057: real time    0.0057
    --------------------------------------------
      LOOP:  cpu time    5.4127: real time    5.4256

 eigenvalue-minimisations  :  2416
 total energy-change (2. order) :-0.5072524E+01  (-0.4381511E+01)
 number of electron     623.9999771 magnetization      33.6020917
 augmentation part      204.9670356 magnetization      28.6858393

 Broyden mixing:
  rms(total) = 0.40987E+01    rms(broyden)= 0.40980E+01
  rms(prec ) = 0.46036E+01
  weight for this iteration     100.00

 eigenvalues of (default mixing * dielectric matrix)
  average eigenvalue GAMMA=   0.4204
  1.2680  0.4314  0.4314  0.4246  0.1841  0.1286  0.0745

 Free energy of the ion-electron system (eV)
  ---------------------------------------------------
  alpha Z        PSCENC =      1918.83428606
  Ewald energy   TEWEN  =    -35858.73419954
  -Hartree energ DENC   =    -19345.04387039
  -exchange      EXHF   =         0.00000000
  -V(xc)+E(xc)   XCENC  =      2542.88875798
  PAW double counting   =     58064.87391821   -60180.54072512
  entropy T*S    EENTRO =        -0.02308942
  eigenvalues    EBANDS =     -1992.84461905
  atomic energy  EATOM  =     54345.74550241
  Solvation  Ediel_sol  =         0.00000000
  ---------------------------------------------------
  free energy    TOTEN  =      -504.84403886 eV

  energy without entropy =     -504.82094944  energy(sigma->0) =     -504.83249415


--------------------------------------------------------------------------------------------------------




--------------------------------------- Iteration      1(  13)  ---------------------------------------


    POTLOK:  cpu time    0.2029: real time    0.2034
    SETDIJ:  cpu time    0.0276: real time    0.0276
     EDDAV:  cpu time    5.1338: real time    5.1460
    CHARGE:  cpu time    0.2052: real time    0.2057
    MIXING:  cpu time    0.0061: real time    0.0061
    --------------------------------------------
      LOOP:  cpu time    5.5756: real time    5.5888

 eigenvalue-minimisations  :  2512
 total energy-change (2. order) :-0.9224551E+01  (-0.3030882E+01)
 number of electron     623.9999770 magnetization      23.4252054
 augmentation part      204.9557860 magnetization      19.6475188

 Broyden mixing:
  rms(total) = 0.32559E+01    rms(broyden)= 0.32552E+01
  rms(prec ) = 0.39306E+01
  weight for this iteration     100.00

 eigenvalues of (default mixing * dielectric matrix)
  average eigenvalue GAMMA=   0.4920
  1.5602  0.6339  0.6339  0.3743  0.3743  0.1739  0.0751  0.1105

 Free energy of the ion-electron system (eV)
  ---------------------------------------------------
  alpha Z        PSCENC =      1918.83428606
  Ewald energy   TEWEN  =    -35858.73419954
  -Hartree energ DENC   =    -19357.16242436
  -exchange      EXHF   =         0.00000000
  -V(xc)+E(xc)   XCENC  =      2537.78567811
  PAW double counting   =     58832.05158129   -60958.02197067
  entropy T*S    EENTRO =        -0.01880937
  eigenvalues    EBANDS =     -1974.54823399
  atomic energy  EATOM  =     54345.74550241
  Solvation  Ediel_sol  =         0.00000000
  ---------------------------------------------------
  free energy    TOTEN  =      -514.06859006 eV

  energy without entropy =     -514.04978069  energy(sigma->0) =     -514.05918538


--------------------------------------------------------------------------------------------------------




--------------------------------------- Iteration      1(  14)  ---------------------------------------


    POTLOK:  cpu time    0.2031: real time    0.2036
    SETDIJ:  cpu time    0.0273: real time    0.0274
     EDDAV:  cpu time    4.9019: real time    4.9135
    CHARGE:  cpu time    0.2056: real time    0.2061
    MIXING:  cpu time    0.0062: real time    0.0062
    --------------------------------------------
      LOOP:  cpu time    5.3441: real time    5.3568

 eigenvalue-minimisations  :  2400
 total energy-change (2. order) :-0.1927440E+02  (-0.2498026E+01)
 number of electron     623.9999775 magnetization      19.2724301
 augmentation part      206.7655690 magnetization      15.3853360

 Broyden mixing:
  rms(total) = 0.25754E+01    rms(broyden)= 0.25746E+01
  rms(prec ) = 0.29042E+01
  weight for this iteration     100.00

 eigenvalues of (default mixing * dielectric matrix)
  average eigenvalue GAMMA=   0.5258
  1.8134  0.6916  0.6916  0.5124  0.3425  0.3425  0.0752  0.1531  0.1097

 Free energy of the ion-electron system (eV)
  ---------------------------------------------------
  alpha Z        PSCENC =      1918.83428606
  Ewald energy   TEWEN  =    -35858.73419954
  -Hartree energ DENC   =    -19338.99020652
  -exchange      EXHF   =         0.00000000
  -V(xc)+E(xc)   XCENC  =      2528.46022212
  PAW double counting   =     60213.27832385   -62349.10345899
  entropy T*S    EENTRO =        -0.03144391
  eigenvalues    EBANDS =     -1992.80201111
  atomic energy  EATOM  =     54345.74550241
  Solvation  Ediel_sol  =         0.00000000
  ---------------------------------------------------
  free energy    TOTEN  =      -533.34298563 eV

  energy without entropy =     -533.31154172  energy(sigma->0) =     -533.32726367


--------------------------------------------------------------------------------------------------------




--------------------------------------- Iteration      1(  15)  ---------------------------------------


    POTLOK:  cpu time    0.2030: real time    0.2035
    SETDIJ:  cpu time    0.0275: real time    0.0276
     EDDAV:  cpu time    4.8410: real time    4.8525
    CHARGE:  cpu time    0.2058: real time    0.2063
    MIXING:  cpu time    0.0065: real time    0.0066
    --------------------------------------------
      LOOP:  cpu time    5.2839: real time    5.2964

 eigenvalue-minimisations  :  2320
 total energy-change (2. order) :-0.9588596E+01  (-0.2762594E+01)
 number of electron     623.9999772 magnetization      16.3351715
 augmentation part      206.7080652 magnetization      12.1603140

 Broyden mixing:
  rms(total) = 0.24365E+01    rms(broyden)= 0.24359E+01
  rms(prec ) = 0.27632E+01
  weight for this iteration     100.00

 eigenvalues of (default mixing * dielectric matrix)
  average eigenvalue GAMMA=   0.5368
  1.9875  0.8222  0.6624  0.6624  0.3673  0.3673  0.0751  0.1096  0.1569  0.1569

 Free energy of the ion-electron system (eV)
  ---------------------------------------------------
  alpha Z        PSCENC =      1918.83428606
  Ewald energy   TEWEN  =    -35858.73419954
  -Hartree energ DENC   =    -19330.58553530
  -exchange      EXHF   =         0.00000000
  -V(xc)+E(xc)   XCENC  =      2523.92573170
  PAW double counting   =     60607.42937560   -62747.05523146
  entropy T*S    EENTRO =        -0.06878378
  eigenvalues    EBANDS =     -2002.42272772
  atomic energy  EATOM  =     54345.74550241
  Solvation  Ediel_sol  =         0.00000000
  ---------------------------------------------------
  free energy    TOTEN  =      -542.93158202 eV

  energy without entropy =     -542.86279824  energy(sigma->0) =     -542.89719013


--------------------------------------------------------------------------------------------------------




--------------------------------------- Iteration      1(  16)  ---------------------------------------


    POTLOK:  cpu time    0.2045: real time    0.2050
    SETDIJ:  cpu time    0.0272: real time    0.0273
     EDDAV:  cpu time    4.7740: real time    4.7854
    CHARGE:  cpu time    0.2015: real time    0.2020
    MIXING:  cpu time    0.0066: real time    0.0066
    --------------------------------------------
      LOOP:  cpu time    5.2139: real time    5.2263

 eigenvalue-minimisations  :  2304
 total energy-change (2. order) :-0.7536856E+01  (-0.1738355E+01)
 number of electron     623.9999773 magnetization      15.9493224
 augmentation part      206.1847637 magnetization      12.9371520

 Broyden mixing:
  rms(total) = 0.16936E+01    rms(broyden)= 0.16931E+01
  rms(prec ) = 0.19141E+01
  weight for this iteration     100.00

 eigenvalues of (default mixing * dielectric matrix)
  average eigenvalue GAMMA=   0.5176
  1.9018  0.8931  0.6843  0.6843  0.3748  0.3748  0.2937  0.0751  0.1689  0.1095
  0.1328

 Free energy of the ion-electron system (eV)
  ---------------------------------------------------
  alpha Z        PSCENC =      1918.83428606
  Ewald energy   TEWEN  =    -35858.73419954
  -Hartree energ DENC   =    -19313.64230210
  -exchange      EXHF   =         0.00000000
  -V(xc)+E(xc)   XCENC  =      2519.52976315
  PAW double counting   =     60726.48066103   -62868.12798969
  entropy T*S    EENTRO =        -0.03614064
  eigenvalues    EBANDS =     -2020.51801917
  atomic energy  EATOM  =     54345.74550241
  Solvation  Ediel_sol  =         0.00000000
  ---------------------------------------------------
  free energy    TOTEN  =      -550.46843848 eV

  energy without entropy =     -550.43229784  energy(sigma->0) =     -550.45036816


--------------------------------------------------------------------------------------------------------




--------------------------------------- Iteration      1(  17)  ---------------------------------------


    POTLOK:  cpu time    0.2034: real time    0.2039
    SETDIJ:  cpu time    0.0273: real time    0.0274
     EDDAV:  cpu time    4.7693: real time    4.7806
    CHARGE:  cpu time    0.2028: real time    0.2033
    MIXING:  cpu time    0.0070: real time    0.0070
    --------------------------------------------
      LOOP:  cpu time    5.2098: real time    5.2222

 eigenvalue-minimisations  :  2304
 total energy-change (2. order) :-0.1417365E+01  (-0.5403857E+00)
 number of electron     623.9999772 magnetization      15.7513900
 augmentation part      206.2339579 magnetization      11.8334317

 Broyden mixing:
  rms(total) = 0.13264E+01    rms(broyden)= 0.13260E+01
  rms(prec ) = 0.15128E+01
  weight for this iteration     100.00

 eigenvalues of (default mixing * dielectric matrix)
  average eigenvalue GAMMA=   0.4915
  1.5688  1.0974  0.6933  0.6933  0.4193  0.4193  0.4053  0.1742  0.0752  0.1427
  0.1100  0.0991

 Free energy of the ion-electron system (eV)
  ---------------------------------------------------
  alpha Z        PSCENC =      1918.83428606
  Ewald energy   TEWEN  =    -35858.73419954
  -Hartree energ DENC   =    -19299.58730788
  -exchange      EXHF   =         0.00000000
  -V(xc)+E(xc)   XCENC  =      2518.19220758
  PAW double counting   =     60638.28714999   -62777.88890469
  entropy T*S    EENTRO =        -0.06761838
  eigenvalues    EBANDS =     -2036.66691947
  atomic energy  EATOM  =     54345.74550241
  Solvation  Ediel_sol  =         0.00000000
  ---------------------------------------------------
  free energy    TOTEN  =      -551.88580392 eV

  energy without entropy =     -551.81818554  energy(sigma->0) =     -551.85199473


--------------------------------------------------------------------------------------------------------




--------------------------------------- Iteration      1(  18)  ---------------------------------------


    POTLOK:  cpu time    0.2042: real time    0.2047
    SETDIJ:  cpu time    0.0274: real time    0.0275
     EDDAV:  cpu time    4.6966: real time    4.7078
    CHARGE:  cpu time    0.2007: real time    0.2012
    MIXING:  cpu time    0.0074: real time    0.0074
    --------------------------------------------
      LOOP:  cpu time    5.1364: real time    5.1486

 eigenvalue-minimisations  :  2256
 total energy-change (2. order) :-0.2425326E+01  (-0.2999990E+00)
 number of electron     623.9999773 magnetization      15.2783320
 augmentation part      206.0562927 magnetization      11.7822668

 Broyden mixing:
  rms(total) = 0.10871E+01    rms(broyden)= 0.10869E+01
  rms(prec ) = 0.12472E+01
  weight for this iteration     100.00

 eigenvalues of (default mixing * dielectric matrix)
  average eigenvalue GAMMA=   0.4816
  1.3937  1.3937  0.6712  0.5554  0.5045  0.5045  0.3500  0.1999  0.1999  0.0751
  0.1768  0.1092  0.1266

 Free energy of the ion-electron system (eV)
  ---------------------------------------------------
  alpha Z        PSCENC =      1918.83428606
  Ewald energy   TEWEN  =    -35858.73419954
  -Hartree energ DENC   =    -19282.46983638
  -exchange      EXHF   =         0.00000000
  -V(xc)+E(xc)   XCENC  =      2516.47103627
  PAW double counting   =     60495.81679580   -62633.11765060
  entropy T*S    EENTRO =        -0.05838112
  eigenvalues    EBANDS =     -2056.79868300
  atomic energy  EATOM  =     54345.74550241
  Solvation  Ediel_sol  =         0.00000000
  ---------------------------------------------------
  free energy    TOTEN  =      -554.31113010 eV

  energy without entropy =     -554.25274898  energy(sigma->0) =     -554.28193954


--------------------------------------------------------------------------------------------------------




--------------------------------------- Iteration      1(  19)  ---------------------------------------


    POTLOK:  cpu time    0.2034: real time    0.2038
    SETDIJ:  cpu time    0.0275: real time    0.0276
     EDDAV:  cpu time    4.5920: real time    4.6029
    CHARGE:  cpu time    0.2011: real time    0.2016
    MIXING:  cpu time    0.0073: real time    0.0073
    --------------------------------------------
      LOOP:  cpu time    5.0313: real time    5.0432

 eigenvalue-minimisations  :  2192
 total energy-change (2. order) :-0.1922278E+01  (-0.5928082E+00)
 number of electron     623.9999772 magnetization      13.9922991
 augmentation part      205.9837958 magnetization      10.7507465

 Broyden mixing:
  rms(total) = 0.11957E+01    rms(broyden)= 0.11955E+01
  rms(prec ) = 0.14154E+01
  weight for this iteration     100.00

 eigenvalues of (default mixing * dielectric matrix)
  average eigenvalue GAMMA=   0.5242
  1.6020  1.6020  0.9021  0.6151  0.6151  0.4919  0.3641  0.3641  0.1932  0.1668
  0.0751  0.1334  0.1098  0.1035

 Free energy of the ion-electron system (eV)
  ---------------------------------------------------
  alpha Z        PSCENC =      1918.83428606
  Ewald energy   TEWEN  =    -35858.73419954
  -Hartree energ DENC   =    -19268.50830321
  -exchange      EXHF   =         0.00000000
  -V(xc)+E(xc)   XCENC  =      2515.23318070
  PAW double counting   =     60425.18838997   -62561.33504619
  entropy T*S    EENTRO =        -0.04794192
  eigenvalues    EBANDS =     -2072.60927677
  atomic energy  EATOM  =     54345.74550241
  Solvation  Ediel_sol  =         0.00000000
  ---------------------------------------------------
  free energy    TOTEN  =      -556.23340848 eV

  energy without entropy =     -556.18546656  energy(sigma->0) =     -556.20943752


--------------------------------------------------------------------------------------------------------




--------------------------------------- Iteration      1(  20)  ---------------------------------------


    POTLOK:  cpu time    0.2034: real time    0.2039
    SETDIJ:  cpu time    0.0275: real time    0.0275
     EDDAV:  cpu time    4.6908: real time    4.7019
    CHARGE:  cpu time    0.2014: real time    0.2019
    MIXING:  cpu time    0.0076: real time    0.0076
    --------------------------------------------
      LOOP:  cpu time    5.1306: real time    5.1428

 eigenvalue-minimisations  :  2256
 total energy-change (2. order) :-0.2182104E+01  (-0.7985621E+00)
 number of electron     623.9999771 magnetization      12.3754444
 augmentation part      206.0256193 magnetization       9.2355493

 Broyden mixing:
  rms(total) = 0.13217E+01    rms(broyden)= 0.13214E+01
  rms(prec ) = 0.15224E+01
  weight for this iteration     100.00

 eigenvalues of (default mixing * dielectric matrix)
  average eigenvalue GAMMA=   0.5360
  1.7573  1.7573  1.1024  0.6205  0.6205  0.4861  0.3757  0.3757  0.2207  0.1776
  0.1508  0.0751  0.1117  0.1071  0.1007

 Free energy of the ion-electron system (eV)
  ---------------------------------------------------
  alpha Z        PSCENC =      1918.83428606
  Ewald energy   TEWEN  =    -35858.73419954
  -Hartree energ DENC   =    -19241.35903813
  -exchange      EXHF   =         0.00000000
  -V(xc)+E(xc)   XCENC  =      2513.33533235
  PAW double counting   =     60357.55780539   -62491.99608262
  entropy T*S    EENTRO =        -0.05812017
  eigenvalues    EBANDS =     -2101.74099780
  atomic energy  EATOM  =     54345.74550241
  Solvation  Ediel_sol  =         0.00000000
  ---------------------------------------------------
  free energy    TOTEN  =      -558.41551205 eV

  energy without entropy =     -558.35739188  energy(sigma->0) =     -558.38645196


--------------------------------------------------------------------------------------------------------




--------------------------------------- Iteration      1(  21)  ---------------------------------------


    POTLOK:  cpu time    0.2038: real time    0.2043
    SETDIJ:  cpu time    0.0278: real time    0.0278
     EDDAV:  cpu time    4.8408: real time    4.8523
    CHARGE:  cpu time    0.2057: real time    0.2062
    MIXING:  cpu time    0.0080: real time    0.0081
    --------------------------------------------
      LOOP:  cpu time    5.2861: real time    5.2987

 eigenvalue-minimisations  :  2368
 total energy-change (2. order) :-0.6558889E+00  (-0.3004132E+00)
 number of electron     623.9999772 magnetization      11.6443849
 augmentation part      206.2238946 magnetization       8.4214635

 Broyden mixing:
  rms(total) = 0.82003E+00    rms(broyden)= 0.81977E+00
  rms(prec ) = 0.92660E+00
  weight for this iteration     100.00

 eigenvalues of (default mixing * dielectric matrix)
  average eigenvalue GAMMA=   0.5507
  2.0177  1.4691  1.4691  0.5884  0.5884  0.5273  0.5273  0.3668  0.3668  0.1929
  0.0751  0.1540  0.1406  0.1242  0.1092  0.0941

 Free energy of the ion-electron system (eV)
  ---------------------------------------------------
  alpha Z        PSCENC =      1918.83428606
  Ewald energy   TEWEN  =    -35858.73419954
  -Hartree energ DENC   =    -19216.41821523
  -exchange      EXHF   =         0.00000000
  -V(xc)+E(xc)   XCENC  =      2511.98713432
  PAW double counting   =     60363.60985950   -62497.38677560
  entropy T*S    EENTRO =        -0.05769967
  eigenvalues    EBANDS =     -2126.65129324
  atomic energy  EATOM  =     54345.74550241
  Solvation  Ediel_sol  =         0.00000000
  ---------------------------------------------------
  free energy    TOTEN  =      -559.07140099 eV

  energy without entropy =     -559.01370132  energy(sigma->0) =     -559.04255116


--------------------------------------------------------------------------------------------------------




--------------------------------------- Iteration      1(  22)  ---------------------------------------


    POTLOK:  cpu time    0.2038: real time    0.2043
    SETDIJ:  cpu time    0.0273: real time    0.0274
     EDDAV:  cpu time    4.6373: real time    4.6484
    CHARGE:  cpu time    0.2119: real time    0.2124
    MIXING:  cpu time    0.0082: real time    0.0082
    --------------------------------------------
      LOOP:  cpu time    5.0886: real time    5.1007

 eigenvalue-minimisations  :  2208
 total energy-change (2. order) :-0.2826729E+00  (-0.1166573E+00)
 number of electron     623.9999771 magnetization      11.4307281
 augmentation part      206.2193682 magnetization       8.3904808

 Broyden mixing:
  rms(total) = 0.86755E+00    rms(broyden)= 0.86743E+00
  rms(prec ) = 0.96224E+00
  weight for this iteration     100.00

 eigenvalues of (default mixing * dielectric matrix)
  average eigenvalue GAMMA=   0.5348
  2.0635  1.4874  1.4874  0.5965  0.5965  0.5584  0.5584  0.3698  0.3698  0.1924
  0.0751  0.1522  0.1370  0.1370  0.1100  0.1059  0.0939

 Free energy of the ion-electron system (eV)
  ---------------------------------------------------
  alpha Z        PSCENC =      1918.83428606
  Ewald energy   TEWEN  =    -35858.73419954
  -Hartree energ DENC   =    -19209.84648607
  -exchange      EXHF   =         0.00000000
  -V(xc)+E(xc)   XCENC  =      2511.72476397
  PAW double counting   =     60373.12104944   -62507.66662429
  entropy T*S    EENTRO =        -0.05704389
  eigenvalues    EBANDS =     -2132.47532201
  atomic energy  EATOM  =     54345.74550241
  Solvation  Ediel_sol  =         0.00000000
  ---------------------------------------------------
  free energy    TOTEN  =      -559.35407392 eV

  energy without entropy =     -559.29703003  energy(sigma->0) =     -559.32555197


--------------------------------------------------------------------------------------------------------




--------------------------------------- Iteration      1(  23)  ---------------------------------------


    POTLOK:  cpu time    0.2077: real time    0.2082
    SETDIJ:  cpu time    0.0278: real time    0.0279
     EDDAV:  cpu time    4.8187: real time    4.8302
    CHARGE:  cpu time    0.2004: real time    0.2009
    MIXING:  cpu time    0.0078: real time    0.0078
    --------------------------------------------
      LOOP:  cpu time    5.2625: real time    5.2751

 eigenvalue-minimisations  :  2320
 total energy-change (2. order) : 0.4445385E-01  (-0.5670759E-01)
 number of electron     623.9999772 magnetization      11.1915441
 augmentation part      206.2148038 magnetization       8.0236435

 Broyden mixing:
  rms(total) = 0.59046E+00    rms(broyden)= 0.59038E+00
  rms(prec ) = 0.64313E+00
  weight for this iteration     100.00

 eigenvalues of (default mixing * dielectric matrix)
  average eigenvalue GAMMA=   0.5312
  1.9310  1.6038  1.6038  0.5869  0.5869  0.5861  0.5861  0.3752  0.3752  0.2346
  0.2346  0.1805  0.0751  0.1540  0.1092  0.1219  0.1219  0.0940

 Free energy of the ion-electron system (eV)
  ---------------------------------------------------
  alpha Z        PSCENC =      1918.83428606
  Ewald energy   TEWEN  =    -35858.73419954
  -Hartree energ DENC   =    -19209.40699956
  -exchange      EXHF   =         0.00000000
  -V(xc)+E(xc)   XCENC  =      2511.74990807
  PAW double counting   =     60374.38037721   -62509.43658051
  entropy T*S    EENTRO =        -0.05867171
  eigenvalues    EBANDS =     -2132.38324250
  atomic energy  EATOM  =     54345.74550241
  Solvation  Ediel_sol  =         0.00000000
  ---------------------------------------------------
  free energy    TOTEN  =      -559.30962007 eV

  energy without entropy =     -559.25094836  energy(sigma->0) =     -559.28028421


--------------------------------------------------------------------------------------------------------




--------------------------------------- Iteration      1(  24)  ---------------------------------------


    POTLOK:  cpu time    0.2056: real time    0.2061
    SETDIJ:  cpu time    0.0277: real time    0.0277
     EDDAV:  cpu time    4.9054: real time    4.9171
    CHARGE:  cpu time    0.2011: real time    0.2015
    MIXING:  cpu time    0.0086: real time    0.0086
    --------------------------------------------
      LOOP:  cpu time    5.3483: real time    5.3610

 eigenvalue-minimisations  :  2384
 total energy-change (2. order) :-0.7606232E-02  (-0.1614973E-01)
 number of electron     623.9999772 magnetization      10.9686601
 augmentation part      206.1993649 magnetization       7.8164675

 Broyden mixing:
  rms(total) = 0.51750E+00    rms(broyden)= 0.51746E+00
  rms(prec ) = 0.56288E+00
  weight for this iteration     100.00

 eigenvalues of (default mixing * dielectric matrix)
  average eigenvalue GAMMA=   0.5318
  2.0526  1.5740  1.5740  0.6052  0.6052  0.5961  0.5961  0.4090  0.4090  0.3351
  0.3351  0.1920  0.0751  0.1521  0.1521  0.1248  0.1091  0.1145  0.0939

 Free energy of the ion-electron system (eV)
  ---------------------------------------------------
  alpha Z        PSCENC =      1918.83428606
  Ewald energy   TEWEN  =    -35858.73419954
  -Hartree energ DENC   =    -19207.11965733
[...]
   -.258E+01 -.369E+03 0.466E+02   0.231E+01 0.390E+03 -.508E+02   0.326E+00 -.211E+02 0.392E+01   0.271E-01 -.203E-01 0.289E-01
   0.213E+02 0.370E+03 0.232E+02   -.235E+02 -.393E+03 -.255E+02   0.203E+01 0.222E+02 0.186E+01   0.807E-02 0.623E-01 0.493E-01
   0.369E+02 -.352E+03 -.269E+02   -.413E+02 0.372E+03 0.295E+02   0.450E+01 -.202E+02 -.259E+01   -.449E-01 0.582E-01 0.206E-01
   -.273E+02 0.342E+03 0.131E+02   0.288E+02 -.362E+03 -.137E+02   -.210E+01 0.194E+02 0.915E+00   0.435E-01 -.122E-01 0.332E-02
   0.584E+02 -.335E+03 -.305E+02   -.645E+02 0.355E+03 0.330E+02   0.593E+01 -.210E+02 -.196E+01   0.840E-02 -.321E-01 0.334E-01
   -.477E+02 0.355E+03 0.270E+02   0.525E+02 -.375E+03 -.299E+02   -.474E+01 0.204E+02 0.282E+01   -.768E-02 -.831E-01 0.769E-03
   0.391E+02 -.382E+03 -.350E+02   -.427E+02 0.402E+03 0.383E+02   0.257E+01 -.199E+02 -.362E+01   0.346E-01 -.780E-01 0.571E-01
   -.487E+02 0.382E+03 0.182E+02   0.533E+02 -.402E+03 -.198E+02   -.436E+01 0.199E+02 0.499E+00   -.457E-02 0.827E-01 0.325E-01
   -.334E+02 -.350E+03 -.157E+02   0.354E+02 0.372E+03 0.171E+02   -.196E+01 -.223E+02 -.149E+01   -.194E-01 0.890E-01 -.465E-02
   0.314E+02 0.293E+03 -.463E+02   -.344E+02 -.312E+03 0.493E+02   0.310E+01 0.196E+02 -.212E+01   0.181E-01 0.387E-01 -.153E-01
   -.567E+02 -.293E+03 0.201E+01   0.610E+02 0.312E+03 -.301E+01   -.346E+01 -.196E+02 0.149E+01   -.377E-02 -.253E-01 0.139E-01
   0.446E+01 0.350E+03 -.348E+02   -.432E+01 -.372E+03 0.370E+02   -.221E+00 0.223E+02 -.231E+01   -.788E-02 -.105E+00 -.355E-02
 -----------------------------------------------------------------------------------------------
   -.108E+01 0.177E-01 -.186E+01   -.295E-12 -.512E-12 -.881E-12   0.107E+01 -.111E-01 0.188E+01   0.142E-01 -.605E-02 0.420E-02
 
 
 POSITION                                       TOTAL-FORCE (eV/Angst)
 -----------------------------------------------------------------------------------
      4.20486      7.14697      7.25472         0.008972      0.000211      0.016440
      0.05416     11.93446      1.60422         0.017802     -0.053328     -0.053948
      1.41213      2.40496      0.79015        -0.056013      0.052610     -0.011219
      3.25773      7.16101      0.00600        -0.237156     -0.043441      0.003789
     -1.57078      7.17698      2.77338         0.123527      0.046259     -0.202314
      4.25980     11.95990      4.07891        -0.008525      0.020635      0.056961
      5.63231      2.37622      3.23651        -0.011692     -0.008005      0.006231
      0.03176     11.93571      6.48224         0.010676      0.006563     -0.006758
      1.42134      2.35191      5.66961         0.054328     -0.021039      0.021114
      2.61227      7.15740      4.47592         0.097658     -0.000253      0.169860
      4.25892     14.32112      7.26702         0.018292     -0.000544      0.032619
     -0.04959      4.83225      1.64488         1.255927      0.452427     -0.258303
      1.52269      9.50713      0.76132        -0.859369     -0.454233      0.950795
     -1.44543     -0.02501      7.27165        -0.048117     -0.135449      0.048839
      2.82492      4.78408      1.58539         0.260680     -0.441659      0.037516
      4.32617      9.62499      0.84005        -0.205566     -0.267667     -0.030533
      5.71900     14.34267      0.01745        -0.071225      0.057150     -0.048217
      5.67599      4.78423      1.63020        -0.050681     -0.170204      0.152699
      7.05658      9.49085      0.84459        -0.106732     -0.458992     -1.143282
      7.09890     14.33698      2.42863         0.067963      0.134458     -0.016305
     -1.39921      4.70486      4.10293         0.078654      0.268849     -0.191303
      0.01845      9.54623      3.21164        -0.097776      0.443742      0.248600
      1.48905     14.33927      2.43408         0.041439     -0.000801      0.073467
      1.37224      4.68159      3.99404         0.106784      0.730040      0.176303
      2.83135      9.63990      3.17641         0.095952     -0.731045      0.177004
      4.28802     14.33910      2.41346         0.010689      0.041703      0.012217
      4.20938      4.78052      4.02054        -0.710101     -0.485829      0.377731
      5.68395      9.67491      3.25831        -0.980405     -1.231325      0.602592
     -2.82832     -0.01258      4.86221        -0.005004     -0.057486     -0.086065
     -2.77505      4.83012      6.46185        -0.930618      0.465606     -0.667066
     -1.38408      9.53667      5.69434         0.157981      0.170483      0.035202
     -0.03762     -0.01791      4.83867         0.005346     -0.042757      0.015105
      0.00082      4.63687      6.49652         1.018659      1.232720     -0.534195
      1.41973      9.53163      5.63719         0.686092      0.486171     -0.417749
      2.77983     -0.01821      4.85029        -0.004831     -0.000440     -0.007411
      2.79483      4.83581      6.39887         0.047661      0.626195      1.133541
      4.18667      9.46748      5.61858         0.951102     -0.631492      0.608857
      8.46943     10.35703      0.04065         0.151266     -0.040488     -0.365205
     -4.18570      3.96393      7.26962        -0.390604      0.042172     -0.054477
      0.08776      1.00037      1.56864        -0.185166     -0.274684      0.088224
     -0.16151      8.38149      1.71506         0.403144      0.754477     -0.267691
      1.62828      5.95795      0.68016        -0.435333     -0.755891      0.209658
      1.39988     13.33892      0.86297         0.172061      0.275046     -0.114444
      2.93471     10.54717      0.00340         0.550999      0.188356     -0.462637
      2.78229      3.79231      0.01184         0.034539     -0.121029      0.497235
      2.77226      0.94724      1.59749        -0.013910     -0.028238      0.099156
      2.95035      8.61791      1.56361        -0.175711      0.251672      0.378081
      4.28484      5.65685      0.81752        -0.414867      0.460827     -0.321010
      4.30813     13.39104      0.77883        -0.047456     -0.030209     -0.019912
      1.45648     10.47429      7.22982         0.155543      0.098198      0.506177
      1.49522      3.83801      7.23604        -0.059717     -0.394375      0.181218
      5.60413      0.94858      1.65397         0.052043     -0.062851      0.005034
      5.65609      8.62854      1.72523         0.183499      0.236658     -0.528380
      7.04763      5.94397      1.02572        -0.165033     -0.918923     -1.035552
      7.13755     13.39628      0.82787         0.072281     -0.091316     -0.057855
     -1.31448     10.54710      2.38515         0.413891      0.119667      0.280680
     -1.42070      3.79194      2.47422        -0.678329     -0.187673      0.239309
     -1.45511      0.93931      4.03512         0.007644      0.029678     -0.050965
     -1.38489      8.67318      4.07830        -0.068334     -0.458840     -0.523147
     -0.07617      5.71229      3.28727         0.415338     -0.253150      0.038663
      0.06793     13.38318      3.19410         0.092916      0.028109      0.038920
      1.37195     10.47110      2.32877         0.034114      0.432190     -0.012762
      1.37591      3.85993      2.30168        -0.028397     -0.432006      0.021370
      1.37375      0.93330      4.08082         0.053165      0.033022     -0.068285
      1.42037      8.68065      3.98710         0.404396     -0.622936      0.106433
      2.78806      5.64081      3.19182        -0.111100      0.620290      0.405351
      2.91761     13.38761      3.24277        -0.086473     -0.033767      0.011892
      4.28495     10.59095      2.47911        -0.255370      0.156576     -0.286047
      4.30541      3.77810      2.43229        -0.290303      0.070715     -0.070612
      4.28298      0.98702      3.98903        -0.119434     -0.227354      0.103257
      4.11350      8.55461      3.98048         0.506864      0.715146      0.119405
      5.63379      5.68707      3.28144         0.550805      0.426188     -0.271368
      5.61273     13.33471      3.27832         0.019234      0.262185      0.016961
      5.56919     10.46474      4.92604         0.186087      0.393949      0.042578
      5.56189      3.82875      4.85194         0.357938     -0.101366      0.390205
     -2.84308      0.92461      6.50117        -0.085991      0.091638      0.033942
     -2.60276      8.37594      6.56572        -0.808570      0.925182     -0.660530
     -1.30449      5.69198      5.70348        -0.549208     -0.234906     -0.109021
     -1.31482     13.37235      5.66605        -0.021208      0.062126      0.047578
      0.00406     10.54273      4.92299         0.086079     -0.069565     -0.286462
      0.03272      3.72979      4.89040        -0.117523     -0.153225     -0.365332
      0.04224      0.97727      6.42449         0.002763     -0.263525      0.024187
      0.05905      8.62465      6.48750        -0.512239     -0.425611      0.336441
      1.42140      5.75816      5.51288        -0.158161     -0.717866      0.494202
      1.36763     13.32499      5.70622         0.150160      0.226754     -0.049654
      2.90991     10.54849      4.82584        -0.969700     -0.172240     -0.309752
      2.75275      3.76344      4.89044         0.222116      0.176932     -0.994734
      2.73792      0.91269      6.46390         0.022748      0.165424     -0.088278
      2.81271      8.39030      6.24723         0.057008      0.925470      0.901012
      4.03528      5.91387      5.53724         0.745912     -0.930631      0.499725
      4.28428     13.39032      5.62451        -0.088788     -0.165815     -0.025597
 -----------------------------------------------------------------------------------
    total drift:                                0.010114      0.000550      0.017888


--------------------------------------------------------------------------------------------------------



  FREE ENERGIE OF THE ION-ELECTRON SYSTEM (eV)
  ---------------------------------------------------
  free  energy   TOTEN  =      -559.3434807270 eV

  energy  without entropy=     -559.2991881884  energy(sigma->0) =     -559.32133446
 


--------------------------------------------------------------------------------------------------------


    POTLOK:  cpu time    0.2317: real time    0.2323


--------------------------------------------------------------------------------------------------------


     LOOP+:  cpu time  249.0041: real time  251.9001
    4ORBIT:  cpu time    0.0000: real time    0.0000

volume of typ            1:     8.9 %

volume of typ            2:    19.6 %

volume of typ            3:    10.0 %
 
total charge     
 
# of ion       s       p       d       tot
------------------------------------------
    1        2.068   0.225   0.086   2.379
    2        2.065   0.216   0.082   2.363
    3        2.065   0.216   0.082   2.363
    4        2.078   0.251   0.098   2.427
    5        2.078   0.251   0.098   2.427
    6        2.069   0.228   0.088   2.386
    7        2.068   0.226   0.086   2.381
    8        2.068   0.226   0.086   2.381
    9        2.069   0.228   0.088   2.386
   10        2.080   0.258   0.100   2.438
   11        0.294   0.409   7.830   8.533
   12        0.285   0.382   7.854   8.521
   13        0.285   0.382   7.854   8.521
   14        0.282   0.379   7.841   8.502
   15        0.291   0.404   7.832   8.527
   16        0.294   0.409   7.832   8.536
   17        0.295   0.410   7.829   8.534
   18        0.293   0.409   7.830   8.531
   19        0.285   0.382   7.843   8.511
   20        0.282   0.379   7.842   8.503
   21        0.294   0.409   7.833   8.536
   22        0.291   0.404   7.833   8.528
   23        0.293   0.406   7.826   8.525
   24        0.291   0.400   7.829   8.520
   25        0.291   0.400   7.830   8.521
   26        0.295   0.409   7.828   8.531
   27        0.289   0.399   7.835   8.522
   28        0.289   0.394   7.845   8.528
   29        0.295   0.410   7.829   8.534
   30        0.285   0.382   7.843   8.510
   31        0.293   0.409   7.831   8.533
   32        0.295   0.409   7.827   8.531
   33        0.289   0.394   7.843   8.527
   34        0.289   0.399   7.834   8.522
   35        0.280   0.376   7.844   8.500
   36        0.285   0.381   7.841   8.508
   37        0.285   0.381   7.840   8.507
   38        1.270   2.766   0.008   4.044
   39        1.270   2.766   0.008   4.044
   40        1.279   2.738   0.007   4.023
   41        1.275   2.739   0.005   4.020
   42        1.275   2.739   0.005   4.019
   43        1.279   2.738   0.007   4.023
   44        1.277   2.751   0.007   4.035
   45        1.278   2.751   0.008   4.037
   46        1.273   2.755   0.007   4.035
   47        1.275   2.754   0.008   4.036
   48        1.270   2.779   0.008   4.056
   49        1.272   2.759   0.007   4.039
   50        1.272   2.758   0.008   4.038
   51        1.271   2.765   0.008   4.043
   52        1.273   2.757   0.007   4.037
   53        1.274   2.759   0.008   4.041
   54        1.272   2.747   0.006   4.026
   55        1.272   2.759   0.008   4.039
   56        1.278   2.751   0.008   4.037
   57        1.277   2.751   0.007   4.035
   58        1.272   2.759   0.007   4.039
   59        1.270   2.779   0.008   4.056
   60        1.275   2.754   0.008   4.036
   61        1.273   2.755   0.007   4.035
   62        1.269   2.771   0.008   4.047
   63        1.269   2.771   0.008   4.047
   64        1.272   2.758   0.007   4.038
   65        1.270   2.780   0.008   4.057
   66        1.270   2.780   0.008   4.057
   67        1.272   2.758   0.007   4.037
   68        1.272   2.758   0.008   4.038
   69        1.277   2.736   0.006   4.020
   70        1.279   2.738   0.007   4.023
   71        1.281   2.728   0.006   4.015
   72        1.276   2.761   0.007   4.044
   73        1.279   2.737   0.007   4.023
   74        1.271   2.764   0.008   4.043
   75        1.272   2.759   0.008   4.039
   76        1.272   2.759   0.008   4.039
   77        1.272   2.748   0.006   4.026
   78        1.274   2.759   0.008   4.041
   79        1.273   2.757   0.007   4.037
   80        1.277   2.736   0.006   4.020
   81        1.272   2.758   0.008   4.038
   82        1.279   2.737   0.007   4.023
   83        1.276   2.761   0.007   4.044
   84        1.281   2.727   0.006   4.015
   85        1.279   2.738   0.007   4.023
   86        1.280   2.736   0.007   4.023
   87        1.280   2.736   0.007   4.023
   88        1.272   2.762   0.008   4.041
   89        1.272   2.746   0.006   4.023
   90        1.272   2.746   0.006   4.023
   91        1.272   2.762   0.008   4.041
--------------------------------------------------
tot          97.33  161.72  212.86  471.92
 
magnetization (x)
 
# of ion       s       p       d       tot
------------------------------------------
    1        0.004   0.002  -0.000   0.005
    2        0.005   0.009   0.001   0.014
    3        0.005   0.009   0.001   0.014
    4        0.005   0.009   0.001   0.014
    5        0.005   0.009   0.001   0.014
    6        0.006   0.008   0.000   0.014
    7        0.005   0.010   0.001   0.016
    8        0.005   0.010   0.001   0.016
    9        0.006   0.008   0.000   0.014
   10        0.005   0.011   0.000   0.015
   11       -0.001  -0.001   0.124   0.122
   12        0.003   0.003   0.549   0.554
   13        0.003   0.003   0.550   0.555
   14        0.001  -0.000   0.487   0.488
   15       -0.000  -0.000   0.177   0.176
   16       -0.001  -0.001   0.109   0.108
   17       -0.001  -0.001   0.111   0.110
   18       -0.000  -0.001   0.153   0.152
   19        0.000   0.001   0.292   0.293
   20        0.001  -0.000   0.487   0.488
   21       -0.001  -0.001   0.110   0.108
   22       -0.000  -0.000   0.178   0.177
   23       -0.001  -0.000   0.099   0.098
   24       -0.001  -0.001   0.139   0.138
   25       -0.001  -0.001   0.139   0.138
   26       -0.001  -0.001   0.102   0.101
   27       -0.000  -0.000   0.296   0.295
   28        0.000   0.000   0.380   0.380
   29       -0.001  -0.001   0.112   0.110
   30        0.000   0.001   0.292   0.294
   31       -0.001  -0.001   0.154   0.153
   32       -0.001  -0.001   0.102   0.101
   33        0.000   0.000   0.379   0.379
   34       -0.000  -0.000   0.296   0.296
   35        0.002  -0.000   0.500   0.501
   36        0.000   0.002   0.312   0.314
   37        0.000   0.002   0.312   0.314
   38        0.004   0.008   0.000   0.012
   39        0.004   0.008   0.000   0.012
   40        0.008   0.076   0.000   0.085
   41        0.007   0.078   0.000   0.086
   42        0.007   0.078   0.000   0.085
   43        0.008   0.076   0.000   0.085
   44        0.009   0.101   0.000   0.111
   45        0.011   0.102   0.000   0.113
   46        0.002   0.005   0.000   0.007
   47        0.002   0.013   0.000   0.015
   48        0.003   0.011   0.000   0.014
   49        0.003   0.007   0.000   0.010
   50        0.003   0.010   0.000   0.013
   51        0.003   0.001   0.000   0.004
   52        0.002   0.007   0.000   0.009
   53        0.002   0.015   0.000   0.017
   54        0.004   0.017   0.000   0.021
   55        0.003   0.011   0.000   0.014
   56        0.011   0.102   0.000   0.113
   57        0.009   0.101   0.000   0.110
   58        0.003   0.007   0.000   0.010
   59        0.003   0.011   0.000   0.014
   60        0.002   0.012   0.000   0.015
   61        0.002   0.005   0.000   0.007
   62        0.003   0.005   0.000   0.008
   63        0.003   0.005   0.000   0.008
   64        0.002   0.004   0.000   0.007
   65        0.003   0.005   0.000   0.008
   66        0.003   0.005   0.000   0.008
   67        0.002   0.004   0.000   0.007
   68        0.003   0.018   0.000   0.021
   69        0.005   0.024   0.000   0.028
   70        0.009   0.076   0.000   0.084
   71        0.006   0.054   0.000   0.060
   72        0.008   0.052   0.000   0.060
   73        0.009   0.079   0.000   0.088
   74        0.003   0.001   0.000   0.004
   75        0.003   0.010   0.000   0.013
   76        0.003   0.011   0.000   0.013
   77        0.004   0.017   0.000   0.021
   78        0.002   0.015   0.000   0.017
   79        0.002   0.007   0.000   0.009
   80        0.005   0.024   0.000   0.028
   81        0.003   0.017   0.000   0.021
   82        0.009   0.079   0.000   0.088
   83        0.008   0.052   0.000   0.060
   84        0.006   0.054   0.000   0.060
   85        0.008   0.076   0.000   0.084
   86        0.010   0.094   0.000   0.104
   87        0.010   0.094   0.000   0.104
   88        0.003   0.010   0.000   0.013
   89        0.004   0.014   0.000   0.018
   90        0.004   0.014   0.000   0.018
   91        0.003   0.010   0.000   0.013
--------------------------------------------------
tot           0.32    1.88    6.95    9.15
 

 total amount of memory used by VASP MPI-rank0   145651. kBytes
=======================================================================

   base      :      30000. kBytes
   nonlr-proj:      39457. kBytes
   fftplans  :       9349. kBytes
   grid      :      55332. kBytes
   one-center:       1415. kBytes
   wavefun   :      10098. kBytes
 
  
  
 General timing and accounting informations for this job:
 ========================================================
  
                  Total CPU time used (sec):      259.531
                            User time (sec):      255.918
                          System time (sec):        3.613
                         Elapsed time (sec):      266.898
  
                   Maximum memory used (kb):      205612.
                   Average memory used (kb):           0.
  
                          Minor page faults:        40600
                          Major page faults:           52
                 Voluntary context switches:         1202
