 vasp.5.4.4.18Apr17-6-g9f103f2a35 (build May 12 2020 05:39:39) gamma-only       
  
 MD_VERSION_INFO: Compiled 2020-05-12T12:39:39-UTC in devlin.sd.materialsdesign.
 com:/home/medea2/data/build/wwolf/vasp-gpu5.4.4/13047/x86_64/src/src/build/gam 
 from svn 13047
 
 This VASP executable licensed from Materials Design, Inc.
 
 executed on                        Lin64 date 2023.01.19  16:46:50
 running on   16 total cores
 distrk:  each k-point on   16 cores,    1 groups
 distr:  one band on NCORES_PER_BAND=   1 cores,   16 groups


--------------------------------------------------------------------------------------------------------


 INCAR:
 POTCAR:    PAW_PBE Li_sv 10Sep2004               
 POTCAR:    PAW_PBE Ni 02Aug2007                  
 POTCAR:    PAW_PBE O 08Apr2002                   

 ----------------------------------------------------------------------------- 
|                                                                             |
|           W    W    AA    RRRRR   N    N  II  N    N   GGGG   !!!           |
|           W    W   A  A   R    R  NN   N  II  NN   N  G    G  !!!           |
|           W    W  A    A  R    R  N N  N  II  N N  N  G       !!!           |
|           W WW W  AAAAAA  RRRRR   N  N N  II  N  N N  G  GGG   !            |
|           WW  WW  A    A  R   R   N   NN  II  N   NN  G    G                |
|           W    W  A    A  R    R  N    N  II  N    N   GGGG   !!!           |
|                                                                             |
|      For optimal performance we recommend to set                            |
|        NCORE= 4 - approx SQRT( number of cores)                             |
|      NCORE specifies how many cores store one orbital (NPAR=cpu/NCORE).     |
|      This setting can  greatly improve the performance of VASP for DFT.     |
|      The default,   NCORE=1            might be grossly inefficient         |
|      on modern multi-core architectures or massively parallel machines.     |
|      Do your own testing !!!!                                               |
|      Unfortunately you need to use the default for GW and RPA calculations. |
|      (for HF NCORE is supported but not extensively tested yet)             |
|                                                                             |
 ----------------------------------------------------------------------------- 

 POTCAR:    PAW_PBE Li_sv 10Sep2004               
  local pseudopotential read in
  atomic valenz-charges read in
  non local Contribution for L=           0  read in
    real space projection operators read in
  non local Contribution for L=           0  read in
    real space projection operators read in
  non local Contribution for L=           1  read in
    real space projection operators read in
    PAW grid and wavefunctions read in
 
   number of l-projection  operators is LMAX  =           3
   number of lm-projection operators is LMMAX =           5
 
 POTCAR:    PAW_PBE Ni 02Aug2007                  
  local pseudopotential read in
  partial core-charges read in
  partial kinetic energy density read in
  atomic valenz-charges read in
  non local Contribution for L=           2  read in
    real space projection operators read in
  non local Contribution for L=           2  read in
    real space projection operators read in
  non local Contribution for L=           0  read in
    real space projection operators read in
  non local Contribution for L=           0  read in
    real space projection operators read in
  non local Contribution for L=           1  read in
    real space projection operators read in
  non local Contribution for L=           1  read in
    real space projection operators read in
    PAW grid and wavefunctions read in
 
   number of l-projection  operators is LMAX  =           6
   number of lm-projection operators is LMMAX =          18
 
 POTCAR:    PAW_PBE O 08Apr2002                   
  local pseudopotential read in
  partial core-charges read in
  partial kinetic energy density read in
  kinetic energy density of atom read in
  atomic valenz-charges read in
  non local Contribution for L=           0  read in
    real space projection operators read in
  non local Contribution for L=           0  read in
    real space projection operators read in
  non local Contribution for L=           1  read in
    real space projection operators read in
  non local Contribution for L=           1  read in
    real space projection operators read in
    PAW grid and wavefunctions read in
 
   number of l-projection  operators is LMAX  =           4
   number of lm-projection operators is LMMAX =           8
 
 Optimization of the real space projectors (new method)

 maximal supplied QI-value         = 22.11
 optimisation between [QCUT,QGAM] = [ 11.28, 22.77] = [ 35.61,145.23] Ry 
 Optimized for a Real-space Cutoff    1.10 Angstroem

   l    n(q)    QCUT    max X(q) W(low)/X(q) W(high)/X(q)  e(spline) 
   0      7    11.276    10.506    0.54E-04    0.58E-04    0.16E-07
   0      7    11.276     8.367    0.11E-03    0.14E-03    0.35E-07
   1      7    11.276     8.983    0.23E-03    0.43E-03    0.86E-07
 Optimization of the real space projectors (new method)

 maximal supplied QI-value         = 16.25
 optimisation between [QCUT,QGAM] = [ 11.38, 22.75] = [ 36.24,144.96] Ry 
 Optimized for a Real-space Cutoff    1.47 Angstroem

   l    n(q)    QCUT    max X(q) W(low)/X(q) W(high)/X(q)  e(spline) 
   2      9    11.376    60.317    0.17E-03    0.16E-04    0.16E-06
   2      9    11.376    55.921    0.17E-03    0.16E-04    0.17E-06
   0     10    11.376    51.690    0.45E-04    0.60E-04    0.21E-06
   0     10    11.376    30.015    0.37E-04    0.55E-04    0.19E-06
   1     10    11.376    18.849    0.83E-04    0.11E-03    0.92E-07
   1     10    11.376    14.624    0.69E-04    0.92E-04    0.82E-07
 Optimization of the real space projectors (new method)

 maximal supplied QI-value         = 24.76
 optimisation between [QCUT,QGAM] = [ 11.39, 22.77] = [ 36.31,145.25] Ry 
 Optimized for a Real-space Cutoff    1.10 Angstroem

   l    n(q)    QCUT    max X(q) W(low)/X(q) W(high)/X(q)  e(spline) 
   0      7    11.387    20.381    0.22E-03    0.48E-03    0.18E-06
   0      7    11.387    15.268    0.22E-03    0.52E-03    0.19E-06
   1      7    11.387     5.964    0.22E-03    0.73E-03    0.24E-06
   1      7    11.387     5.382    0.19E-03    0.60E-03    0.21E-06

 ----------------------------------------------------------------------------- 
|                                                                             |
|  ADVICE TO THIS USER RUNNING 'VASP/VAMP'   (HEAR YOUR MASTER'S VOICE ...):  |
|                                                                             |
|      You enforced a specific xc-type in the INCAR file,                     |
|      a different type was found on the POTCAR file                          |
|          I HOPE YOU KNOW, WHAT YOU ARE  DOING                               |
|                                                                             |
 ----------------------------------------------------------------------------- 

  PAW_PBE Li_sv 10Sep2004               :
 energy of atom  1       EATOM= -202.7858
 kinetic energy error for atom=    0.0143 (will be added to EATOM!!)
  PAW_PBE Ni 02Aug2007                  :
 energy of atom  2       EATOM=-1077.6739
 kinetic energy error for atom=    0.0030 (will be added to EATOM!!)
  PAW_PBE O 08Apr2002                   :
 energy of atom  3       EATOM= -432.3788
 kinetic energy error for atom=    0.0224 (will be added to EATOM!!)
 
 
 POSCAR: ce120648_1                              
  positions in direct lattice
  No initial velocities read in
 exchange correlation table for  LEXCH =       14
   RHO(1)=    0.500       N(1)  =     2000
   RHO(2)=  100.500       N(2)  =     4000
 


--------------------------------------------------------------------------------------------------------


 ion  position               nearest neighbor table
   1  0.008  0.501  0.998-  51 2.04  86 2.08  99 2.10  50 2.11  98 2.12  63 2.18  22 2.84  46 2.84

   2  0.111  0.834  0.222-  70 2.09  52 2.10  47 2.10  65 2.10  64 2.12  71 2.13
   3  0.223  0.167  0.112-  55 2.09  54 2.10  49 2.11  48 2.12  72 2.12  85 2.13
   4  0.327  0.500  0.002-  51 2.04  86 2.10  56 2.10  92 2.13  87 2.14  57 2.15  22 2.84
   5  0.444  0.834  0.220-  52 2.08  53 2.09  58 2.10  77 2.10  76 2.14  71 2.14
   6  0.554  0.166  0.112-  55 2.09  91 2.09  78 2.09  54 2.11  61 2.13  60 2.13
   7  0.663  0.500  0.996-  93 2.09  92 2.09  57 2.11  98 2.11  62 2.15  63 2.15
   8  0.011  0.500  0.344-  69 2.03  68 2.03  50 2.10  81 2.10  63 2.18  62 2.18  31 2.84  30 2.84

   9  0.111  0.833  0.554-  82 2.09  89 2.10  70 2.10  65 2.11  83 2.14  88 2.14
  10  0.220  0.167  0.444-  49 2.09  90 2.10  67 2.10  66 2.11  72 2.14  73 2.14
  11  0.665  0.499  0.341-  80 2.04  75 2.08  56 2.10  81 2.11  57 2.12  62 2.18  36 2.84  24 2.84

  12  0.779  0.833  0.557- 100 2.09  95 2.10  82 2.11  77 2.12  83 2.12  76 2.13
  13  0.889  0.166  0.444-  67 2.09  79 2.10  78 2.10  66 2.10  61 2.12  84 2.13
  14  0.325  0.500  0.658-  68 2.05  69 2.05  87 2.13  74 2.13  92 2.16  93 2.16  30 2.84  31 2.84

  15  0.444  0.834  0.889-  58 2.09  53 2.09  94 2.10  89 2.11  88 2.12  59 2.13
  16  0.556  0.166  0.777-  97 2.09  96 2.09  91 2.10  90 2.11  73 2.12  60 2.13
  17  0.669  0.500  0.661-  80 2.04  75 2.10  99 2.10  93 2.13  74 2.14  98 2.15  36 2.84
  18  0.779  0.834  0.887- 100 2.09  94 2.09  47 2.09  95 2.11  64 2.13  59 2.13
  19  0.887  0.166  0.777-  79 2.08  96 2.09  97 2.10  48 2.10  85 2.14  84 2.14
  20  0.000  1.000  0.000-  85 1.86  64 1.86  97 1.96  52 1.96  49 1.96 100 1.96  23 2.82  29 2.82
                            38 2.82  26 2.82  32 2.86  44 2.87
  21  0.109  0.335  0.221-  72 1.85  63 1.89  69 1.96  51 1.96  66 1.96  48 1.96  45 2.81  27 2.81
                            24 2.84  33 2.85  39 2.86  30 2.87
  22  0.222  0.667  0.111-  71 1.86  86 1.86  56 1.96  50 1.96  47 1.96  53 1.96  31 2.82  34 2.82
                            40 2.82  46 2.82   1 2.84   4 2.84  28 2.86  25 2.86
  23  0.330  0.000  0.997-  58 1.87  55 1.87  85 1.90  88 1.91  91 1.95  52 1.95  38 2.78  20 2.82
                            41 2.82  26 2.86  32 2.87  35 2.87
  24  0.445  0.334  0.225-  54 1.86  75 1.90  72 1.92  57 1.94  78 1.96  51 1.97  33 2.79  36 2.82
                            21 2.84  11 2.84  42 2.86  27 2.86  39 2.87
  25  0.559  0.668  0.112-  53 1.86  56 1.87  59 1.91  62 1.91  77 1.93  92 1.94  28 2.79  37 2.81
                            43 2.83  34 2.86  40 2.86  22 2.86
  26  0.670  0.000  0.003-  94 1.87  91 1.87  61 1.91  64 1.91  97 1.94  58 1.94  29 2.78  35 2.82
                            20 2.82  41 2.86  44 2.86  23 2.86
  27  0.778  0.333  0.220-  78 1.86  81 1.87  60 1.91  63 1.91  66 1.92  57 1.94  45 2.79  21 2.81
                            42 2.83  30 2.86  24 2.86  36 2.86
  28  0.886  0.667  0.112-  47 1.86  50 1.87  59 1.91  62 1.91  65 1.92  98 1.94  25 2.79  37 2.81
                            43 2.83  31 2.86  46 2.86  22 2.86
  29  0.997  0.000  0.330-  70 1.87  67 1.87  64 1.91  61 1.91  82 1.94  49 1.94  26 2.78  20 2.82
                            35 2.82  32 2.86  38 2.86  41 2.86
  30  0.111  0.333  0.559-  69 1.86  66 1.87  84 1.90  87 1.91  81 1.95  90 1.95  39 2.78  36 2.82
                            42 2.82  14 2.84   8 2.84  27 2.86  33 2.86  21 2.87
  31  0.225  0.667  0.444-  68 1.86  65 1.87  71 1.90  74 1.91  50 1.95  89 1.95  34 2.78  22 2.82
                            43 2.82  14 2.84   8 2.84  28 2.86  40 2.86  37 2.87
  32  0.337  1.000  0.337-  49 1.87  52 1.87  76 1.90  73 1.91  70 1.94  55 1.94  44 2.78  41 2.82
                            35 2.82  29 2.86  20 2.86  23 2.87
  33  0.445  0.334  0.553-  90 1.86  75 1.90  72 1.92  93 1.94  96 1.95  69 1.96  24 2.79  36 2.82
                            21 2.85  42 2.86  45 2.86  30 2.86
  34  0.552  0.667  0.444-  80 1.86  77 1.87  71 1.90  74 1.91  56 1.94  95 1.94  31 2.78  22 2.82
                            43 2.82  25 2.86  37 2.86  46 2.87
  35  0.667  0.000  0.334-  76 1.86  61 1.86  58 1.96  79 1.96  82 1.96  55 1.96  44 2.82  29 2.82
                            32 2.82  26 2.82  38 2.86  23 2.87
  36  0.778  0.333  0.556-  84 1.86  75 1.86  99 1.96  81 1.96  78 1.96  96 1.96  30 2.82  39 2.82
                            33 2.82  24 2.82  11 2.84  17 2.84  27 2.86  45 2.86
  37  0.887  0.665  0.442-  83 1.85  62 1.89  68 1.96  80 1.96  65 1.96  77 1.96  25 2.81  28 2.81
                            46 2.84  40 2.85  34 2.86  31 2.87
  38  0.004  0.000  0.670-  82 1.87  79 1.87  85 1.90  88 1.91  67 1.94 100 1.94  23 2.78  41 2.82
                            20 2.82  29 2.86  35 2.86  44 2.87
  39  0.111  0.333  0.885-  51 1.86  48 1.87  84 1.90  87 1.91  99 1.94  54 1.94  30 2.78  36 2.82
                            42 2.82  45 2.86  21 2.86  24 2.87
  40  0.220  0.666  0.778-  89 1.86  86 1.90  83 1.92  92 1.94  53 1.95  68 1.96  46 2.79  22 2.82
                            37 2.85  43 2.86  25 2.86  31 2.86
  41  0.333  0.000  0.667-  73 1.85  88 1.85  67 1.96  70 1.96  91 1.96  94 1.96  38 2.82  32 2.82
                            23 2.82  44 2.82  26 2.86  29 2.86
  42  0.444  0.332  0.889-  87 1.86  60 1.86  54 1.94  90 1.95  93 1.97  57 1.97  30 2.82  39 2.82
                            45 2.83  27 2.83  33 2.86  24 2.86
  43  0.555  0.668  0.778-  74 1.86  59 1.86  95 1.94  89 1.95  92 1.97  98 1.97  31 2.82  34 2.82
                            25 2.83  28 2.83  40 2.86  46 2.86
  44  0.663  1.000  0.663-  97 1.87 100 1.87  76 1.90  73 1.91  94 1.95  79 1.95  32 2.78  35 2.82
                            41 2.82  26 2.86  38 2.87  20 2.87
  45  0.778  0.332  0.892-  96 1.86  99 1.87  60 1.91  63 1.91  48 1.93  93 1.94  27 2.79  21 2.81
                            42 2.83  39 2.86  33 2.86  36 2.86
  46  0.891  0.666  0.778-  95 1.86  86 1.90  83 1.92  98 1.94  47 1.96  80 1.97  40 2.79  22 2.82
                            37 2.84   1 2.84  43 2.86  28 2.86  34 2.87
  47  0.994  0.737  0.006-  28 1.86  22 1.96  46 1.96  18 2.09   2 2.10
  48  0.003  0.263  0.993-  39 1.87  45 1.93  21 1.96  19 2.10   3 2.12
  49  0.122  0.070  0.229-  32 1.87  29 1.94  20 1.96  10 2.09   3 2.11
  50  0.100  0.596  0.218-  28 1.87  31 1.95  22 1.96   8 2.10   1 2.11
  51  0.215  0.405  0.098-  39 1.86  21 1.96  24 1.97   4 2.04   1 2.04
  52  0.229  0.929  0.123-  32 1.87  23 1.95  20 1.96   5 2.08   2 2.10
  53  0.345  0.737  0.005-  25 1.86  40 1.95  22 1.96  15 2.09   5 2.09
  54  0.338  0.264  0.011-  24 1.86  42 1.94  39 1.94   3 2.10   6 2.11
  55  0.437  0.070  0.211-  23 1.87  32 1.94  35 1.96   3 2.09   6 2.09
  56  0.450  0.597  0.218-  25 1.87  34 1.94  22 1.96   4 2.10  11 2.10
  57  0.558  0.407  0.115-  27 1.94  24 1.94  42 1.97   7 2.11  11 2.12   4 2.15
  58  0.545  0.930  0.104-  23 1.87  26 1.94  35 1.96  15 2.09   5 2.10
  59  0.664  0.736  0.993-  43 1.86  25 1.91  28 1.91  15 2.13  18 2.13
  60  0.660  0.264  0.997-  42 1.86  45 1.91  27 1.91  16 2.13   6 2.13
  61  0.774  0.068  0.226-  35 1.86  29 1.91  26 1.91  13 2.12   6 2.13
  62  0.778  0.595  0.223-  37 1.89  28 1.91  25 1.91   7 2.15  11 2.18   8 2.18
  63  0.890  0.405  0.112-  21 1.89  27 1.91  45 1.91   7 2.15   1 2.18   8 2.18
  64  0.893  0.932  0.108-  20 1.86  29 1.91  26 1.91   2 2.12  18 2.13
  65  0.009  0.736  0.336-  31 1.87  28 1.92  37 1.96   2 2.10   9 2.11
  66  0.003  0.264  0.343-  30 1.87  27 1.92  21 1.96  13 2.10  10 2.11
  67  0.105  0.070  0.545-  29 1.87  38 1.94  41 1.96  13 2.09  10 2.10
  68  0.117  0.596  0.550-  31 1.86  37 1.96  40 1.96   8 2.03  14 2.05
  69  0.216  0.404  0.451-  30 1.86  21 1.96  33 1.96   8 2.03  14 2.05
  70  0.212  0.930  0.438-  29 1.87  32 1.94  41 1.96   2 2.09   9 2.10
  71  0.330  0.735  0.327-  22 1.86  34 1.90  31 1.90   2 2.13   5 2.14
  72  0.322  0.266  0.327-  21 1.85  24 1.92  33 1.92   3 2.12  10 2.14
  73  0.441  0.069  0.559-  41 1.85  32 1.91  44 1.91  16 2.12  10 2.14
  74  0.448  0.598  0.564-  43 1.86  31 1.91  34 1.91  14 2.13  17 2.14
  75  0.562  0.402  0.448-  36 1.86  33 1.90  24 1.90  11 2.08  17 2.10
  76  0.559  0.932  0.441-  35 1.86  44 1.90  32 1.90  12 2.13   5 2.14
  77  0.660  0.737  0.337-  34 1.87  25 1.93  37 1.96   5 2.10  12 2.12
  78  0.672  0.263  0.327-  27 1.86  36 1.96  24 1.96   6 2.09  13 2.10
  79  0.790  0.071  0.562-  38 1.87  44 1.95  35 1.96  19 2.08  13 2.10
  80  0.764  0.595  0.549-  34 1.86  37 1.96  46 1.97  17 2.04  11 2.04
  81  0.884  0.404  0.434-  27 1.87  30 1.95  36 1.96   8 2.10  11 2.11
  82  0.896  0.930  0.456-  38 1.87  29 1.94  35 1.96   9 2.09  12 2.11
  83  0.994  0.734  0.655-  37 1.85  46 1.92  40 1.92  12 2.12   9 2.14
  84  0.994  0.265  0.664-  36 1.86  39 1.90  30 1.90  13 2.13  19 2.14
  85  0.108  0.068  0.893-  20 1.86  23 1.90  38 1.90   3 2.13  19 2.14
  86  0.114  0.598  0.895-  22 1.86  40 1.90  46 1.90   1 2.08   4 2.10
  87  0.231  0.402  0.782-  42 1.86  30 1.91  39 1.91  14 2.13   4 2.14
  88  0.226  0.931  0.774-  41 1.85  38 1.91  23 1.91  15 2.12   9 2.14
  89  0.327  0.737  0.672-  40 1.86  43 1.95  31 1.95   9 2.10  15 2.11
  90  0.339  0.263  0.660-  33 1.86  42 1.95  30 1.95  10 2.10  16 2.11
  91  0.456  0.071  0.895-  26 1.87  23 1.95  41 1.96   6 2.09  16 2.10
  92  0.443  0.593  0.890-  40 1.94  25 1.94  43 1.97   7 2.09   4 2.13  14 2.16
  93  0.557  0.407  0.776-  33 1.94  45 1.94  42 1.97   7 2.09  17 2.13  14 2.16
  94  0.562  0.929  0.789-  26 1.87  44 1.95  41 1.96  18 2.09  15 2.10
  95  0.678  0.736  0.672-  46 1.86  43 1.94  34 1.94  12 2.10  18 2.11
  96  0.671  0.263  0.678-  45 1.86  33 1.95  36 1.96  16 2.09  19 2.09
  97  0.771  0.070  0.878-  44 1.87  26 1.94  20 1.96  16 2.09  19 2.10
  98  0.781  0.593  0.891-  28 1.94  46 1.94  43 1.97   7 2.11   1 2.12  17 2.15
  99  0.884  0.403  0.784-  45 1.87  39 1.94  36 1.96  17 2.10   1 2.10
 100  0.878  0.930  0.771-  44 1.87  38 1.94  20 1.96  12 2.09  18 2.09
 
  LATTYP: Found a base centered orthorhombic cell.
 ALAT       =     8.5106653716
 B/A-ratio  =     1.7311136896
 C/A-ratio  =     1.6621286065
  
  Lattice vectors:
  
 A1 = (   4.2518792022,  -7.3684585667,  -0.0000102343)
 A2 = (  -8.5072118535,  -0.0019938681,   0.0000102343)
 A3 = (  -0.0000072692,   0.0000042085, -14.1458203744)


Analysis of symmetry for initial positions (statically):
=====================================================================
 Subroutine PRICEL returns:
 Original cell was already a primitive cell.
 

 Routine SETGRP: Setting up the symmetry group for a 
 base centered orthorhombic supercell.


 Subroutine GETGRP returns: Found  2 space group operations
 (whereof  1 operations were pure point group operations)
 out of a pool of  8 trial point group operations.


The static configuration has the point symmetry C_1 .
 The point group associated with its full space group is C_2 .


Analysis of symmetry for dynamics (positions and initial velocities):
=====================================================================
 Subroutine PRICEL returns:
 Original cell was already a primitive cell.
 

 Routine SETGRP: Setting up the symmetry group for a 
 base centered orthorhombic supercell.


 Subroutine GETGRP returns: Found  2 space group operations
 (whereof  1 operations were pure point group operations)
 out of a pool of  8 trial point group operations.


The dynamic configuration has the point symmetry C_1 .
 The point group associated with its full space group is C_2 .


Analysis of structural, dynamic, and magnetic symmetry:
=====================================================================
 Subroutine PRICEL returns:
 Original cell was already a primitive cell.
 

 Routine SETGRP: Setting up the symmetry group for a 
 base centered orthorhombic supercell.


 Subroutine GETGRP returns: Found  2 space group operations
 (whereof  1 operations were pure point group operations)
 out of a pool of  8 trial point group operations.


The magnetic configuration has the point symmetry C_1 .
 The point group associated with its full space group is C_2 .


 Subroutine INISYM returns: Found  2 space group operations
 (whereof  1 operations are pure point group operations),
 and found     1 'primitive' translations

 
 
 KPOINTS: Automatic mesh                          

Automatic generation of k-mesh.
Space group operators:
 irot       det(A)        alpha          n_x          n_y          n_z        tau_x        tau_y        tau_z
    1     1.000000     0.000000     1.000000     0.000000     0.000000     0.000000     0.000000     0.000000
    2     1.000000   180.000000     0.500000     0.866025     0.000000    -0.333333     0.000000    -0.666667
 
 Subroutine IBZKPT returns following result:
 ===========================================
 
 Found      1 irreducible k-points:
 
 Following reciprocal coordinates:
            Coordinates               Weight
  0.000000  0.000000  0.000000      1.000000
 
 Following cartesian coordinates:
            Coordinates               Weight
  0.000000  0.000000  0.000000      1.000000
 


--------------------------------------------------------------------------------------------------------




 Dimension of arrays:
   k-points           NKPTS =      1   k-points in BZ     NKDIM =      1   number of bands    NBANDS=    432
   number of dos      NEDOS =    301   number of ions     NIONS =    100
   non local maximal  LDIM  =      6   non local SUM 2l+1 LMDIM =     18
   total plane-waves  NPLWV = 442368
   max r-space proj   IRMAX =   6746   max aug-charges    IRDMAX=  16366
   dimension x,y,z NGX =    64 NGY =  108 NGZ =   64
   dimension x,y,z NGXF=   128 NGYF=  216 NGZF=  128
   support grid    NGXF=   128 NGYF=  216 NGZF=  128
   ions per type =              19  27  54
   NGX,Y,Z   is equivalent  to a cutoff of  12.51, 12.69, 12.51 a.u.
   NGXF,Y,Z  is equivalent  to a cutoff of  25.01, 25.38, 25.01 a.u.

 SYSTEM =  unknown system                          
 POSCAR =  ce120648_1                              

 Startparameter for this run:
   NWRITE =      1    write-flag & timer
   PREC   = accura    normal or accurate (medium, high low for compatibility)
   ISTART =      0    job   : 0-new  1-cont  2-samecut
   ICHARG =      2    charge: 1-file 2-atom 10-const
   ISPIN  =      2    spin polarized calculation?
   LNONCOLLINEAR =      F non collinear calculations
   LSORBIT =      F    spin-orbit coupling
   INIWAV =      1    electr: 0-lowe 1-rand  2-diag
   LASPH  =      F    aspherical Exc in radial PAW
   METAGGA=      F    non-selfconsistent MetaGGA calc.

 Electronic Relaxation 1
   ENCUT  =  500.0 eV  36.75 Ry    6.06 a.u.  15.51 25.79 15.51*2*pi/ulx,y,z
   ENINI  =  500.0     initial cutoff
   ENAUG  =  628.9 eV  augmentation charge cutoff
   NELM   =     80;   NELMIN=  2; NELMDL= -5     # of ELM steps 
   EDIFF  = 0.1E-04   stopping-criterion for ELM
   LREAL  =      T    real-space projection
   NLSPLINE    = F    spline interpolate recip. space projectors
   LCOMPAT=      F    compatible to vasp.4.4
   GGA_COMPAT  = T    GGA compatible to vasp.4.4-vasp.4.6
   LMAXPAW     = -100 max onsite density
   LMAXMIX     =    2 max onsite mixed and CHGCAR
   VOSKOWN=      1    Vosko Wilk Nusair interpolation
   ROPT   =   -0.00025  -0.00025  -0.00025
 Ionic relaxation
   EDIFFG = -.2E-01   stopping-criterion for IOM
   NSW    =     20    number of steps for IOM
   NBLOCK =      1;   KBLOCK =     20    inner block; outer block 
   IBRION =      1    ionic relax: 0-MD 1-quasi-New 2-CG
   NFREE  =      0    steps in history (QN), initial steepest desc. (CG)
   ISIF   =      3    stress and relaxation
   IWAVPR =     11    prediction:  0-non 1-charg 2-wave 3-comb
   ISYM   =      2    0-nonsym 1-usesym 2-fastsym
   LCORR  =      T    Harris-Foulkes like correction to forces

   POTIM  = 0.5000    time-step for ionic-motion
   TEIN   =    0.0    initial temperature
   TEBEG  =    0.0;   TEEND  =   0.0 temperature during run
   SMASS  =  -3.00    Nose mass-parameter (am)
   estimated Nose-frequenzy (Omega)   =  0.10E-29 period in steps =****** mass=  -0.165E-26a.u.
   SCALEE = 1.0000    scale energy and forces
   NPACO  =    256;   APACO  = 16.0  distance and # of slots for P.C.
   PSTRESS=    0.0 pullay stress

  Mass of Ions in am
   POMASS =   7.01 58.69 16.00
  Ionic Valenz
   ZVAL   =   3.00 10.00  6.00
  Atomic Wigner-Seitz radii
   RWIGS  =   1.23  1.15  0.73
  virtual crystal weights 
   VCA    =   1.00  1.00  1.00
   NELECT =     651.0000    total number of electrons
   NUPDOWN=      -1.0000    fix difference up-down

 DOS related values:
   EMIN   =  10.00;   EMAX   =-10.00  energy-range for DOS
   EFERMI =   0.00
   ISMEAR =     0;   SIGMA  =   0.05  broadening in eV -4-tet -1-fermi 0-gaus

 Electronic relaxation 2 (details)
   IALGO  =     38    algorithm
   LDIAG  =      T    sub-space diagonalisation (order eigenvalues)
   LSUBROT=      F    optimize rotation matrix (better conditioning)
   TURBO    =      0    0=normal 1=particle mesh
   IRESTART =      0    0=no restart 2=restart with 2 vectors
   NREBOOT  =      0    no. of reboots
   NMIN     =      0    reboot dimension
   EREF     =   0.00    reference energy to select bands
   IMIX   =      4    mixing-type and parameters
     AMIX     =   0.40;   BMIX     =  1.00
     AMIX_MAG =   1.60;   BMIX_MAG =  1.00
     AMIN     =   0.10
     WC   =   100.;   INIMIX=   1;  MIXPRE=   1;  MAXMIX= -45

 Intra band minimization:
   WEIMIN = 0.0010     energy-eigenvalue tresh-hold
   EBREAK =  0.58E-08  absolut break condition
   DEPER  =   0.30     relativ break condition  

   TIME   =   0.40     timestep for ELM

  volume/ion in A,a.u.               =       8.87        59.85
  Fermi-wavevector in a.u.,A,eV,Ry     =   1.476788  2.790725 29.672996  2.180904
  Thomas-Fermi vector in A             =   2.591272
 
 Write flags
   LWAVE        =      F    write WAVECAR
   LDOWNSAMPLE  =      F    k-point downsampling of WAVECAR
   LCHARG       =      T    write CHGCAR
   LVTOT        =      F    write LOCPOT, total local potential
   LVHAR        =      F    write LOCPOT, Hartree potential only
   LELF         =      F    write electronic localiz. function (ELF)
   LORBIT       =      0    0 simple, 1 ext, 2 COOP (PROOUT), +10 PAW based schemes


 Dipole corrections
   LMONO  =      F    monopole corrections only (constant potential shift)
   LDIPOL =      F    correct potential (dipole corrections)
   IDIPOL =      0    1-x, 2-y, 3-z, 4-all directions 
   EPSILON=  1.0000000 bulk dielectric constant

 Exchange correlation treatment:
   GGA     =    PS    GGA type
   LEXCH   =    14    internal setting for exchange type
   VOSKOWN=      1    Vosko Wilk Nusair interpolation
   LHFCALC =     F    Hartree Fock is set to
   LHFONE  =     F    Hartree Fock one center treatment
   AEXX    =    0.0000 exact exchange contribution

 Linear response parameters
   LEPSILON=     F    determine dielectric tensor
   LRPA    =     F    only Hartree local field effects (RPA)
   LNABLA  =     F    use nabla operator in PAW spheres
   LVEL    =     F    velocity operator in full k-point grid
   LINTERFAST=   F  fast interpolation
   KINTER  =     0    interpolate to denser k-point grid
   CSHIFT  =0.1000    complex shift for real part using Kramers Kronig
   OMEGAMAX=  -1.0    maximum frequency
   DEG_THRESHOLD= 0.2000000E-02 threshold for treating states as degnerate
   RTIME   =   -0.100 relaxation time in fs
  (WPLASMAI=    0.000 imaginary part of plasma frequency in eV, 0.658/RTIME)
   DFIELD  = 0.0000000 0.0000000 0.0000000 field for delta impulse in time
 
 Orbital magnetization related:
   ORBITALMAG=     F  switch on orbital magnetization
   LCHIMAG   =     F  perturbation theory with respect to B field
   DQ        =  0.001000  dq finite difference perturbation B field
   LLRAUG    =     F  two centre corrections for induced B field



--------------------------------------------------------------------------------------------------------


 quasi-Newton-method for relaxation of ions
 charge density and potential will be updated during run
 spin polarized calculation
 Variant of blocked Davidson
 Davidson routine will perform the subspace rotation
 perform sub-space diagonalisation
    after iterative eigenvector-optimisation
 modified Broyden-mixing scheme, WC =      100.0
 initial mixing is a Kerker type mixing with AMIX =  0.4000 and BMIX =      1.0000
 Hartree-type preconditioning will be used
 using additional bands          106
 real space projection scheme for non local part
 use partial core corrections
 calculate Harris-corrections to forces 
   (improved forces if not selfconsistent)
 use gradient corrections 
 use of overlap-Matrix (Vanderbilt PP)
 Gauss-broadening in eV      SIGMA  =   0.05


--------------------------------------------------------------------------------------------------------


  energy-cutoff  :      500.00
  volume of cell :      886.85
      direct lattice vectors                 reciprocal lattice vectors
    -4.251879202  7.368458567  0.000010234    -0.000031803  0.135695243  0.000000040
     0.000007269 -0.000004208 14.145820374     0.000000085 -0.000000049  0.070692259
     8.507211853  0.001993868 -0.000010234     0.117531430  0.067820079 -0.000000040

  length of vectors
     8.507212140 14.145820374  8.507212087     0.135695247  0.070692259  0.135695248


 
 k-points in units of 2pi/SCALE and weight: Automatic mesh                          
   0.00000000  0.00000000  0.00000000       1.000
 
 k-points in reciprocal lattice and weights: Automatic mesh                          
   0.00000000  0.00000000  0.00000000       1.000
 
 position of ions in fractional coordinates (direct lattice) 
   0.00756654  0.50064464  0.99848851
   0.11089710  0.83368175  0.22220107
   0.22317492  0.16679532  0.11204930
   0.32742630  0.50027326  0.00186790
   0.44416509  0.83371618  0.22003606
   0.55398881  0.16606020  0.11192532
   0.66316470  0.50000000  0.99649803
   0.01114855  0.50000000  0.34448188
   0.11060675  0.83311315  0.55381126
   0.22047792  0.16688685  0.44394008
   0.66515518  0.49935536  0.34089987
   0.77871597  0.83320468  0.55650826
   0.88886774  0.16631825  0.44423043
   0.32515730  0.50000000  0.65849064
   0.44383466  0.83387140  0.88934079
   0.55600746  0.16612860  0.77716800
   0.66853457  0.49972674  0.66075964
   0.77859199  0.83393980  0.88732214
   0.88670273  0.16628382  0.77749843
   0.00030036  0.99992989  0.00019821
   0.10901420  0.33495576  0.22081131
   0.22221012  0.66710800  0.11125438
   0.32993902  0.00001213  0.99660531
   0.44495944  0.33425695  0.22477279
   0.55887233  0.66761275  0.11163576
   0.66976126  0.00000000  0.00309459
   0.77846069  0.33254098  0.21969051
   0.88635718  0.66745902  0.11179402
   0.99696034  0.00000000  0.33029367
   0.11108023  0.33336024  0.55871819
   0.22538485  0.66663976  0.44441356
   0.33674032  0.99989771  0.33696973
   0.44504971  0.33406688  0.55335604
   0.55209880  0.66653354  0.44428717
   0.66686488  0.00007011  0.33363369
   0.77792105  0.33289200  0.55554346
   0.88747798  0.66504424  0.44234753
   0.00363640  0.00010229  0.67007366
   0.11095384  0.33346646  0.88543213
   0.22002270  0.66593312  0.77838305
   0.33344602  0.00000000  0.66677936
   0.44446001  0.33194873  0.88875343
   0.55542010  0.66805127  0.77779335
   0.66327198  0.99998787  0.66327236
   0.77830243  0.33238725  0.89220566
   0.89143946  0.66574305  0.77829278
   0.99362913  0.73738016  0.00583206
   0.00331196  0.26317712  0.99336097
   0.12248840  0.07033150  0.22939471
   0.10041325  0.59631187  0.21756920
   0.21521565  0.40500494  0.09779229
   0.22904896  0.92919768  0.12291219
   0.34496452  0.73714025  0.00480990
   0.33818734  0.26407004  0.01113908
   0.43744360  0.07036315  0.21149405
   0.45049963  0.59677788  0.21782854
   0.55800951  0.40687752  0.11482533
   0.54485628  0.93016238  0.10401734
   0.66351466  0.73639057  0.99333355
   0.66000022  0.26360943  0.99684799
   0.77425565  0.06844541  0.22599998
   0.77843575  0.59523872  0.22335985
   0.89002652  0.40476128  0.11176908
   0.89266665  0.93155459  0.10758898
   0.00924133  0.73640315  0.33609962
   0.00276629  0.26359685  0.34257466
   0.10479698  0.07037196  0.54496385
   0.11722777  0.59581591  0.54979256
   0.21645922  0.40418409  0.45056110
   0.21163051  0.92962804  0.43813031
   0.33029206  0.73534681  0.32724763
   0.32205280  0.26629834  0.32716178
   0.44060144  0.06850648  0.55932907
   0.44844352  0.59837911  0.56401698
   0.56196252  0.40157588  0.44769222
   0.55939695  0.93161969  0.44105703
   0.66002764  0.73682288  0.33664529
   0.67249873  0.26261984  0.32696246
   0.78957886  0.07080232  0.56238230
   0.76445896  0.59499506  0.54854899
   0.88423587  0.40368813  0.43374658
   0.89606138  0.92966850  0.45582173
   0.99382845  0.73370166  0.65538614
   0.99391430  0.26465319  0.66362540
   0.10772370  0.06838031  0.89273028
   0.11435889  0.59842412  0.89529585
   0.23068364  0.40162089  0.78177686
   0.22599573  0.93149352  0.77393478
   0.32662777  0.73665147  0.67210860
   0.33877526  0.26334853  0.65996111
   0.45561607  0.07078497  0.89510775
   0.44296525  0.59299276  0.89033177
   0.55699844  0.40700724  0.77629859
   0.56177442  0.92921503  0.78894941
   0.67780575  0.73592996  0.67152068
   0.67147657  0.26285975  0.67829786
   0.77068401  0.06983762  0.87818961
   0.78149200  0.59312248  0.89134284
   0.88449521  0.40322212  0.78383297
   0.87816072  0.92963685  0.77077694
 
 position of ions in cartesian coordinates  (Angst):
   8.46218491  0.05774248  7.08201901
   1.41879656  0.81758022 11.79311115
   0.00431554  1.64467786  2.35945777
  -1.37628282  2.41262874  7.07677901
  -0.01663687  3.27324728 11.79360162
  -1.40331988  4.08226606  2.34906228
   5.65772729  4.88848640  7.07290678
   2.88318168  0.08283238  7.07290678
   4.24110923  0.81610198 11.78506444
   2.83924804  1.62546687  2.36074912
   0.07195157  4.90184599  7.06379454
   1.42333349  5.73904246 11.78636601
  -0.00019467  6.55047015  2.35271264
   4.21939345  2.39721893  7.07290678
   5.67868521  3.27214702 11.79579048
   4.24745747  4.09846680  2.35002307
   2.77869764  4.92738464  7.06904478
   4.23816440  5.73878851 11.79676150
   2.84419217  6.53518186  2.35222217
   0.00041639  0.00220938 14.14482861
   1.41497582  0.80370547  4.73822287
   0.00165884  1.63756508  9.43679107
   7.07547165  2.43312910  0.00016477
   0.02027838  3.27911196  4.72834103
  -1.42654372  4.11824739  9.44393462
  -2.82141764  4.93511426  0.00000682
  -1.44096469  5.73649197  4.70407069
  -2.81762340  6.53130625  9.44176333
  -1.42907671  7.34671952  0.00000682
   4.28083671  0.81960268  4.71564949
   2.82241600  1.66162223  9.43016406
   1.43490099  2.48192476 14.14437340
   2.81522189  3.28043226  4.72564897
   1.43219252  4.06900018  9.42866483
   0.00286357  4.91443146  0.00099517
   1.41850199  5.73318530  4.70903271
  -0.01030018  6.54022391  9.40760092
   5.68499705  0.02813070  0.00144016
   7.06079881  0.81932280  4.71714872
   5.68636441  1.62277734  9.42016458
   4.25466108  2.45831265 -0.00000341
   5.67102585  3.27675583  4.69568256
   4.25527849  4.09413800  9.45013099
   2.82245342  4.88861037 14.14564879
   4.28093707  5.73666675  4.70188917
   2.83081350  6.57008374  9.41748276
  -4.17517110  7.32152360 10.43085740
   8.43665208  0.02638356  3.72284613
   1.43070403  0.90300779  0.99489567
   1.42396660  0.74032217  8.43531940
  -0.08312827  1.58600088  5.72912833
   0.07175828  1.68797893 13.14426456
  -1.42582327  2.54186326 10.42745705
  -1.34316728  2.49194050  3.73549070
  -0.06073214  3.22370644  0.99534679
  -0.06235213  3.31991967  8.44191508
  -1.39574266  4.11189719  5.75562085
  -1.43175878  4.01495441 13.15791446
   5.62932012  4.89105776 10.41684535
   5.67415774  4.86517075  3.72896820
  -1.36941129  5.70552100  0.96822209
  -1.40964089  5.73631442  8.42014569
  -2.83343907  6.55834469  5.72568833
  -2.88022175  6.57778782 13.17761193
   2.81998301  0.06876140 10.41702334
   2.90259519  0.02106523  3.72879021
   4.19053934  0.77327849  0.99546460
   4.17876780  0.86488167  8.42830041
   2.91266321  1.59586745  5.71751314
   2.82744676  1.56026031 13.15034895
   1.37960832  2.43439275 10.40208392
   1.41390691  2.37368391  3.76700843
   2.88494729  3.24766840  0.96907915
   2.89148861  3.30545955  8.46456222
   1.41921873  4.14168849  5.68062143
   1.37368411  4.12276874 13.17852600
   0.05756036  4.86405444 10.42296742
  -0.07784254  4.95592984  3.71497662
   1.42711195  5.81910013  1.00155923
   1.41623964  5.63397540  8.41669545
  -0.06968712  6.51631851  5.71050438
   0.06783404  6.60349609 13.15092811
   1.34987556  7.32428742 10.37881535
   1.41960025  7.32493841  3.74373987
   7.13661796  0.79553732  0.96728755
   7.13023563  0.84443133  8.46519212
   5.66990532  1.70133991  5.68125133
   5.62312736  1.66677938 13.17673441
   4.32899378  2.40808019 10.42053584
   4.17399941  2.49756623  3.72527771
   5.67764728  3.35897256  1.00130697
   5.69081056  3.26574380  8.38836449
   4.23584944  4.10576605  5.75744906
   4.32316955  4.14098069 13.14450658
   2.83082587  4.99571941 10.41033309
   2.91538824  4.94909861  3.71836674
   4.19409025  5.68050390  0.98790933
   4.26003710  5.76016615  8.39020294
   2.90746928  6.51892747  5.70390871
   2.82333618  6.47222380 13.15047699
 


--------------------------------------------------------------------------------------------------------


 use serial FFT for orbitals x direction half grid
 k-point  1 :   0.0000 0.0000 0.0000  plane waves:   11254

 maximum and minimum number of plane-waves per node :     11254    11254

 maximum number of plane-waves:     11254
 maximum index in each direction: 
   IXMAX=   15   IYMAX=   25   IZMAX=   13
   IXMIN=    0   IYMIN=  -25   IZMIN=  -15

 The following grids will avoid any aliasing or wrap around errors in the Hartre
 e energy
  - symmetry arguments have not been applied
  - exchange correlation energies might require even more grid points
  - we recommend to set PREC=Normal or Accurate and rely on VASP defaults
 NGX is ok and might be reduce to    64
 NGY is ok and might be reduce to   108
 NGZ is ok and might be reduce to    60

 serial   3D FFT for wavefunctions
 parallel 3D FFT for charge:
    minimum data exchange during FFTs selected (reduces bandwidth)


 total amount of memory used by VASP MPI-rank0   146596. kBytes
=======================================================================

   base      :      30000. kBytes
   nonlr-proj:      40186. kBytes
   fftplans  :       9349. kBytes
   grid      :      55332. kBytes
   one-center:       1555. kBytes
   wavefun   :      10174. kBytes
 
     INWAV:  cpu time    0.0000: real time    0.0000
 Broyden mixing: mesh for mixing (old mesh)
   NGX = 31   NGY = 51   NGZ = 31
  (NGX  =128   NGY  =216   NGZ  =128)
  gives a total of  49011 points

 initial charge density was supplied:
 charge density of overlapping atoms calculated
 number of electron     651.0000000 magnetization      67.5000000
 keeping initial charge density in first step


--------------------------------------------------------------------------------------------------------


 Maximum index for non-local projection operator         6511
 Maximum index for augmentation-charges         1075 (set IRDMAX)


--------------------------------------------------------------------------------------------------------


 First call to EWALD:  gamma=   0.184
 Maximum number of real-space cells 3x 2x 3
 Maximum number of reciprocal cells 2x 4x 2

    FEWALD:  cpu time    0.0039: real time    0.0040


--------------------------------------- Iteration      1(   1)  ---------------------------------------


    POTLOK:  cpu time    0.2592: real time    0.3176
    SETDIJ:  cpu time    0.0306: real time    0.0307
     EDDAV:  cpu time    4.8335: real time    4.8704
    --------------------------------------------
      LOOP:  cpu time    5.1238: real time    5.2191

 eigenvalue-minimisations  :  1760
 total energy-change (2. order) : 0.1162238E+05  (-0.2978065E+05)
 number of electron     651.0000000 magnetization      67.5000000
 augmentation part      651.0000000 magnetization      67.5000000

 Free energy of the ion-electron system (eV)
  ---------------------------------------------------
  alpha Z        PSCENC =      2035.81112896
  Ewald energy   TEWEN  =    -39521.58885644
  -Hartree energ DENC   =    -17898.28520758
  -exchange      EXHF   =         0.00000000
  -V(xc)+E(xc)   XCENC  =      2654.10111796
  PAW double counting   =     46172.96597911   -48344.98150297
  entropy T*S    EENTRO =        -0.02620415
  eigenvalues    EBANDS =     10369.48189179
  atomic energy  EATOM  =     56154.90156720
  Solvation  Ediel_sol  =         0.00000000
  ---------------------------------------------------
  free energy    TOTEN  =     11622.37991387 eV

  energy without entropy =    11622.40611802  energy(sigma->0) =    11622.39301595


--------------------------------------------------------------------------------------------------------




--------------------------------------- Iteration      1(   2)  ---------------------------------------


     EDDAV:  cpu time    4.8796: real time    4.8913
    --------------------------------------------
      LOOP:  cpu time    4.8795: real time    4.8911

 eigenvalue-minimisations  :  1792
 total energy-change (2. order) :-0.9434183E+04  (-0.8610038E+04)
 number of electron     651.0000000 magnetization      67.5000000
 augmentation part      651.0000000 magnetization      67.5000000

 Free energy of the ion-electron system (eV)
  ---------------------------------------------------
  alpha Z        PSCENC =      2035.81112896
  Ewald energy   TEWEN  =    -39521.58885644
  -Hartree energ DENC   =    -17898.28520758
  -exchange      EXHF   =         0.00000000
  -V(xc)+E(xc)   XCENC  =      2654.10111796
  PAW double counting   =     46172.96597911   -48344.98150297
  entropy T*S    EENTRO =        -0.02627708
  eigenvalues    EBANDS =       935.29866609
  atomic energy  EATOM  =     56154.90156720
  Solvation  Ediel_sol  =         0.00000000
  ---------------------------------------------------
  free energy    TOTEN  =      2188.19661524 eV

  energy without entropy =     2188.22289233  energy(sigma->0) =     2188.20975379


--------------------------------------------------------------------------------------------------------




--------------------------------------- Iteration      1(   3)  ---------------------------------------


     EDDAV:  cpu time    5.0777: real time    5.0898
    --------------------------------------------
      LOOP:  cpu time    5.0777: real time    5.0898

 eigenvalue-minimisations  :  1888
 total energy-change (2. order) :-0.2529171E+04  (-0.2147362E+04)
 number of electron     651.0000000 magnetization      67.5000000
 augmentation part      651.0000000 magnetization      67.5000000

 Free energy of the ion-electron system (eV)
  ---------------------------------------------------
  alpha Z        PSCENC =      2035.81112896
  Ewald energy   TEWEN  =    -39521.58885644
  -Hartree energ DENC   =    -17898.28520758
  -exchange      EXHF   =         0.00000000
  -V(xc)+E(xc)   XCENC  =      2654.10111796
  PAW double counting   =     46172.96597911   -48344.98150297
  entropy T*S    EENTRO =        -0.11892258
  eigenvalues    EBANDS =     -1593.77919500
  atomic energy  EATOM  =     56154.90156720
  Solvation  Ediel_sol  =         0.00000000
  ---------------------------------------------------
  free energy    TOTEN  =      -340.97389135 eV

  energy without entropy =     -340.85496877  energy(sigma->0) =     -340.91443006


--------------------------------------------------------------------------------------------------------




--------------------------------------- Iteration      1(   4)  ---------------------------------------


     EDDAV:  cpu time    5.4405: real time    5.4534
    --------------------------------------------
      LOOP:  cpu time    5.4405: real time    5.4534

 eigenvalue-minimisations  :  2048
 total energy-change (2. order) :-0.4302492E+03  (-0.4123423E+03)
 number of electron     651.0000000 magnetization      67.5000000
 augmentation part      651.0000000 magnetization      67.5000000

 Free energy of the ion-electron system (eV)
  ---------------------------------------------------
  alpha Z        PSCENC =      2035.81112896
  Ewald energy   TEWEN  =    -39521.58885644
  -Hartree energ DENC   =    -17898.28520758
  -exchange      EXHF   =         0.00000000
  -V(xc)+E(xc)   XCENC  =      2654.10111796
  PAW double counting   =     46172.96597911   -48344.98150297
  entropy T*S    EENTRO =        -0.20429731
  eigenvalues    EBANDS =     -2023.94303368
  atomic energy  EATOM  =     56154.90156720
  Solvation  Ediel_sol  =         0.00000000
  ---------------------------------------------------
  free energy    TOTEN  =      -771.22310476 eV

  energy without entropy =     -771.01880744  energy(sigma->0) =     -771.12095610


--------------------------------------------------------------------------------------------------------




--------------------------------------- Iteration      1(   5)  ---------------------------------------


     EDDAV:  cpu time    6.5165: real time    6.5320
    CHARGE:  cpu time    0.3607: real time    0.3616
    MIXING:  cpu time    0.0057: real time    0.0057
    --------------------------------------------
      LOOP:  cpu time    6.8826: real time    6.8990

 eigenvalue-minimisations  :  2592
 total energy-change (2. order) :-0.2455384E+02  (-0.2427170E+02)
 number of electron     650.9999881 magnetization      73.1680139
 augmentation part      196.6748902 magnetization      50.9763874

 Broyden mixing:
  rms(total) = 0.15030E+02    rms(broyden)= 0.15029E+02
  rms(prec ) = 0.16518E+02
  weight for this iteration     100.00

 Free energy of the ion-electron system (eV)
  ---------------------------------------------------
  alpha Z        PSCENC =      2035.81112896
  Ewald energy   TEWEN  =    -39521.58885644
  -Hartree energ DENC   =    -17898.28520758
  -exchange      EXHF   =         0.00000000
  -V(xc)+E(xc)   XCENC  =      2654.10111796
  PAW double counting   =     46172.96597911   -48344.98150297
  entropy T*S    EENTRO =        -0.20238114
  eigenvalues    EBANDS =     -2048.49878642
  atomic energy  EATOM  =     56154.90156720
  Solvation  Ediel_sol  =         0.00000000
  ---------------------------------------------------
  free energy    TOTEN  =      -795.77694133 eV

  energy without entropy =     -795.57456019  energy(sigma->0) =     -795.67575076


--------------------------------------------------------------------------------------------------------




--------------------------------------- Iteration      1(   6)  ---------------------------------------


    POTLOK:  cpu time    0.2267: real time    0.2273
    SETDIJ:  cpu time    0.0316: real time    0.0317
     EDDAV:  cpu time    6.6357: real time    6.6515
    CHARGE:  cpu time    0.3539: real time    0.3548
    MIXING:  cpu time    0.0052: real time    0.0052
    --------------------------------------------
      LOOP:  cpu time    7.2531: real time    7.2704

 eigenvalue-minimisations  :  2656
 total energy-change (2. order) :-0.8692716E+01  (-0.1649066E+03)
 number of electron     650.9999878 magnetization      67.9402615
 augmentation part      246.1778832 magnetization      68.2010087

 Broyden mixing:
  rms(total) = 0.25098E+02    rms(broyden)= 0.25097E+02
  rms(prec ) = 0.26435E+02
  weight for this iteration     100.00

 eigenvalues of (default mixing * dielectric matrix)
  average eigenvalue GAMMA=   0.2671
  0.2671

 Free energy of the ion-electron system (eV)
  ---------------------------------------------------
  alpha Z        PSCENC =      2035.81112896
  Ewald energy   TEWEN  =    -39521.58885644
  -Hartree energ DENC   =    -17087.38713657
  -exchange      EXHF   =         0.00000000
  -V(xc)+E(xc)   XCENC  =      2693.93214836
  PAW double counting   =     50664.80345853   -52558.40590907
  entropy T*S    EENTRO =        -0.10392409
  eigenvalues    EBANDS =     -3186.43213419
  atomic energy  EATOM  =     56154.90156720
  Solvation  Ediel_sol  =         0.00000000
  ---------------------------------------------------
  free energy    TOTEN  =      -804.46965731 eV

  energy without entropy =     -804.36573322  energy(sigma->0) =     -804.41769527


--------------------------------------------------------------------------------------------------------




--------------------------------------- Iteration      1(   7)  ---------------------------------------


    POTLOK:  cpu time    0.2260: real time    0.2265
    SETDIJ:  cpu time    0.0316: real time    0.0316
     EDDAV:  cpu time    6.1084: real time    6.1229
    CHARGE:  cpu time    0.3501: real time    0.3509
    MIXING:  cpu time    0.0053: real time    0.0053
    --------------------------------------------
      LOOP:  cpu time    6.7213: real time    6.7372

 eigenvalue-minimisations  :  2400
 total energy-change (2. order) : 0.1735828E+03  (-0.4770381E+02)
 number of electron     650.9999879 magnetization      61.6914514
 augmentation part      228.2777827 magnetization      55.4482941

 Broyden mixing:
  rms(total) = 0.10166E+02    rms(broyden)= 0.10165E+02
  rms(prec ) = 0.11216E+02
  weight for this iteration     100.00

 eigenvalues of (default mixing * dielectric matrix)
  average eigenvalue GAMMA=   0.5052
  0.5052  0.5052

 Free energy of the ion-electron system (eV)
  ---------------------------------------------------
  alpha Z        PSCENC =      2035.81112896
  Ewald energy   TEWEN  =    -39521.58885644
  -Hartree energ DENC   =    -17384.06402327
  -exchange      EXHF   =         0.00000000
  -V(xc)+E(xc)   XCENC  =      2662.50507520
  PAW double counting   =     52630.10265737   -54714.40096319
  entropy T*S    EENTRO =        -0.03377819
  eigenvalues    EBANDS =     -2494.11970846
  atomic energy  EATOM  =     56154.90156720
  Solvation  Ediel_sol  =         0.00000000
  ---------------------------------------------------
  free energy    TOTEN  =      -630.88690083 eV

  energy without entropy =     -630.85312263  energy(sigma->0) =     -630.87001173


--------------------------------------------------------------------------------------------------------




--------------------------------------- Iteration      1(   8)  ---------------------------------------


    POTLOK:  cpu time    0.2263: real time    0.2268
    SETDIJ:  cpu time    0.0314: real time    0.0315
     EDDAV:  cpu time    6.9580: real time    6.9745
    CHARGE:  cpu time    0.3527: real time    0.3536
    MIXING:  cpu time    0.0055: real time    0.0055
    --------------------------------------------
      LOOP:  cpu time    7.5739: real time    7.5919

 eigenvalue-minimisations  :  2800
 total energy-change (2. order) :-0.8772285E+02  (-0.1758142E+02)
 number of electron     650.9999881 magnetization      56.6164174
 augmentation part      213.9870970 magnetization      54.3248661

 Broyden mixing:
  rms(total) = 0.12977E+02    rms(broyden)= 0.12976E+02
  rms(prec ) = 0.17495E+02
  weight for this iteration     100.00

 eigenvalues of (default mixing * dielectric matrix)
  average eigenvalue GAMMA=   0.4730
  0.6029  0.6029  0.2132

 Free energy of the ion-electron system (eV)
  ---------------------------------------------------
  alpha Z        PSCENC =      2035.81112896
  Ewald energy   TEWEN  =    -39521.58885644
  -Hartree energ DENC   =    -17462.45195478
  -exchange      EXHF   =         0.00000000
  -V(xc)+E(xc)   XCENC  =      2646.73696664
  PAW double counting   =     54494.36660475   -56680.89144704
  entropy T*S    EENTRO =        -0.05795626
  eigenvalues    EBANDS =     -2385.43580208
  atomic energy  EATOM  =     56154.90156720
  Solvation  Ediel_sol  =         0.00000000
  ---------------------------------------------------
  free energy    TOTEN  =      -718.60974904 eV

  energy without entropy =     -718.55179278  energy(sigma->0) =     -718.58077091


--------------------------------------------------------------------------------------------------------




--------------------------------------- Iteration      1(   9)  ---------------------------------------


    POTLOK:  cpu time    0.2265: real time    0.2270
    SETDIJ:  cpu time    0.0315: real time    0.0316
     EDDAV:  cpu time    5.7198: real time    5.7334
    CHARGE:  cpu time    0.3535: real time    0.3543
    MIXING:  cpu time    0.0059: real time    0.0059
    --------------------------------------------
      LOOP:  cpu time    6.3372: real time    6.3523

 eigenvalue-minimisations  :  2208
 total energy-change (2. order) : 0.6797262E+02  (-0.1450649E+02)
 number of electron     650.9999885 magnetization      52.2430749
 augmentation part      212.9588521 magnetization      41.8382761

 Broyden mixing:
  rms(total) = 0.11490E+02    rms(broyden)= 0.11489E+02
  rms(prec ) = 0.13884E+02
  weight for this iteration     100.00

 eigenvalues of (default mixing * dielectric matrix)
  average eigenvalue GAMMA=   0.4551
  0.6870  0.6870  0.3031  0.1434

 Free energy of the ion-electron system (eV)
  ---------------------------------------------------
  alpha Z        PSCENC =      2035.81112896
  Ewald energy   TEWEN  =    -39521.58885644
  -Hartree energ DENC   =    -17377.59382048
  -exchange      EXHF   =         0.00000000
  -V(xc)+E(xc)   XCENC  =      2640.97021883
  PAW double counting   =     55632.28854712   -57826.10517858
  entropy T*S    EENTRO =        -0.09510539
  eigenvalues    EBANDS =     -2389.22563339
  atomic energy  EATOM  =     56154.90156720
  Solvation  Ediel_sol  =         0.00000000
  ---------------------------------------------------
  free energy    TOTEN  =      -650.63713218 eV

  energy without entropy =     -650.54202679  energy(sigma->0) =     -650.58957949


--------------------------------------------------------------------------------------------------------




--------------------------------------- Iteration      1(  10)  ---------------------------------------


    POTLOK:  cpu time    0.2263: real time    0.2268
    SETDIJ:  cpu time    0.0315: real time    0.0316
     EDDAV:  cpu time    6.3044: real time    6.3194
    CHARGE:  cpu time    0.3527: real time    0.3536
    MIXING:  cpu time    0.0059: real time    0.0059
    --------------------------------------------
      LOOP:  cpu time    6.9208: real time    6.9372

 eigenvalue-minimisations  :  2496
 total energy-change (2. order) : 0.3736766E+02  (-0.1039875E+02)
 number of electron     650.9999880 magnetization      50.0824640
 augmentation part      218.5676615 magnetization      46.9998638

 Broyden mixing:
  rms(total) = 0.59506E+01    rms(broyden)= 0.59494E+01
  rms(prec ) = 0.68551E+01
  weight for this iteration     100.00

 eigenvalues of (default mixing * dielectric matrix)
  average eigenvalue GAMMA=   0.4447
  0.7395  0.7395  0.3057  0.3057  0.1330

 Free energy of the ion-electron system (eV)
  ---------------------------------------------------
  alpha Z        PSCENC =      2035.81112896
  Ewald energy   TEWEN  =    -39521.58885644
  -Hartree energ DENC   =    -17328.52023668
  -exchange      EXHF   =         0.00000000
  -V(xc)+E(xc)   XCENC  =      2637.17679683
  PAW double counting   =     56800.36564507   -59009.39798058
  entropy T*S    EENTRO =        -0.02320996
  eigenvalues    EBANDS =     -2381.99433076
  atomic energy  EATOM  =     56154.90156720
  Solvation  Ediel_sol  =         0.00000000
  ---------------------------------------------------
  free energy    TOTEN  =      -613.26947636 eV

  energy without entropy =     -613.24626640  energy(sigma->0) =     -613.25787138


--------------------------------------------------------------------------------------------------------




--------------------------------------- Iteration      1(  11)  ---------------------------------------


    POTLOK:  cpu time    0.2272: real time    0.2278
    SETDIJ:  cpu time    0.0317: real time    0.0318
     EDDAV:  cpu time    5.9268: real time    5.9409
    CHARGE:  cpu time    0.3532: real time    0.3540
    MIXING:  cpu time    0.0064: real time    0.0064
    --------------------------------------------
      LOOP:  cpu time    6.5453: real time    6.5609

 eigenvalue-minimisations  :  2304
 total energy-change (2. order) :-0.4513424E+01  (-0.7029898E+01)
 number of electron     650.9999881 magnetization      45.6788990
 augmentation part      216.0639250 magnetization      37.7961470

 Broyden mixing:
  rms(total) = 0.80010E+01    rms(broyden)= 0.80001E+01
  rms(prec ) = 0.96445E+01
  weight for this iteration     100.00

 eigenvalues of (default mixing * dielectric matrix)
  average eigenvalue GAMMA=   0.4637
  0.8678  0.8678  0.3745  0.3745  0.1797  0.1182

 Free energy of the ion-electron system (eV)
  ---------------------------------------------------
  alpha Z        PSCENC =      2035.81112896
  Ewald energy   TEWEN  =    -39521.58885644
  -Hartree energ DENC   =    -17364.94963030
  -exchange      EXHF   =         0.00000000
  -V(xc)+E(xc)   XCENC  =      2637.51285702
  PAW double counting   =     56938.18383394   -59157.14390526
  entropy T*S    EENTRO =        -0.07645587
  eigenvalues    EBANDS =     -2340.43343969
  atomic energy  EATOM  =     56154.90156720
  Solvation  Ediel_sol  =         0.00000000
  ---------------------------------------------------
  free energy    TOTEN  =      -617.78290045 eV

  energy without entropy =     -617.70644457  energy(sigma->0) =     -617.74467251


--------------------------------------------------------------------------------------------------------




--------------------------------------- Iteration      1(  12)  ---------------------------------------


    POTLOK:  cpu time    0.2262: real time    0.2268
    SETDIJ:  cpu time    0.0318: real time    0.0319
     EDDAV:  cpu time    6.0265: real time    6.0408
    CHARGE:  cpu time    0.3537: real time    0.3545
    MIXING:  cpu time    0.0064: real time    0.0064
    --------------------------------------------
      LOOP:  cpu time    6.6446: real time    6.6604

 eigenvalue-minimisations  :  2352
 total energy-change (2. order) :-0.5437472E+01  (-0.9232275E+01)
 number of electron     650.9999884 magnetization      43.2350238
 augmentation part      213.4704280 magnetization      34.1172442

 Broyden mixing:
  rms(total) = 0.88945E+01    rms(broyden)= 0.88941E+01
  rms(prec ) = 0.10939E+02
  weight for this iteration     100.00

 eigenvalues of (default mixing * dielectric matrix)
  average eigenvalue GAMMA=   0.4270
  0.8735  0.8735  0.3877  0.3877  0.2506  0.1261  0.0899

 Free energy of the ion-electron system (eV)
  ---------------------------------------------------
  alpha Z        PSCENC =      2035.81112896
  Ewald energy   TEWEN  =    -39521.58885644
  -Hartree energ DENC   =    -17396.54064064
  -exchange      EXHF   =         0.00000000
  -V(xc)+E(xc)   XCENC  =      2638.03704553
  PAW double counting   =     57482.92091939   -59714.10296809
  entropy T*S    EENTRO =        -0.08128916
  eigenvalues    EBANDS =     -2302.57727943
  atomic energy  EATOM  =     56154.90156720
  Solvation  Ediel_sol  =         0.00000000
  ---------------------------------------------------
  free energy    TOTEN  =      -623.22037269 eV

  energy without entropy =     -623.13908353  energy(sigma->0) =     -623.17972811


--------------------------------------------------------------------------------------------------------




--------------------------------------- Iteration      1(  13)  ---------------------------------------


    POTLOK:  cpu time    0.2259: real time    0.2265
    SETDIJ:  cpu time    0.0315: real time    0.0316
     EDDAV:  cpu time    6.1218: real time    6.1364
    CHARGE:  cpu time    0.3526: real time    0.3535
    MIXING:  cpu time    0.0068: real time    0.0068
    --------------------------------------------
      LOOP:  cpu time    6.7387: real time    6.7547

 eigenvalue-minimisations  :  2384
 total energy-change (2. order) : 0.1686820E+02  (-0.9318544E+01)
 number of electron     650.9999880 magnetization      41.4258656
 augmentation part      215.8230034 magnetization      36.2401540

 Broyden mixing:
  rms(total) = 0.47132E+01    rms(broyden)= 0.47121E+01
  rms(prec ) = 0.53438E+01
  weight for this iteration     100.00

 eigenvalues of (default mixing * dielectric matrix)
  average eigenvalue GAMMA=   0.4087
  0.8905  0.8905  0.4210  0.4210  0.3001  0.1399  0.1031  0.1031

 Free energy of the ion-electron system (eV)
  ---------------------------------------------------
  alpha Z        PSCENC =      2035.81112896
  Ewald energy   TEWEN  =    -39521.58885644
  -Hartree energ DENC   =    -17382.52622012
  -exchange      EXHF   =         0.00000000
  -V(xc)+E(xc)   XCENC  =      2637.68643643
  PAW double counting   =     57985.63160415   -60221.69181259
  entropy T*S    EENTRO =        -0.04677896
  eigenvalues    EBANDS =     -2294.52924092
  atomic energy  EATOM  =     56154.90156720
  Solvation  Ediel_sol  =         0.00000000
  ---------------------------------------------------
  free energy    TOTEN  =      -606.35217229 eV

  energy without entropy =     -606.30539333  energy(sigma->0) =     -606.32878281


--------------------------------------------------------------------------------------------------------




--------------------------------------- Iteration      1(  14)  ---------------------------------------


    POTLOK:  cpu time    0.2260: real time    0.2265
    SETDIJ:  cpu time    0.0316: real time    0.0317
     EDDAV:  cpu time    5.9265: real time    5.9407
    CHARGE:  cpu time    0.3528: real time    0.3537
    MIXING:  cpu time    0.0072: real time    0.0072
    --------------------------------------------
      LOOP:  cpu time    6.5442: real time    6.5597

 eigenvalue-minimisations  :  2304
 total energy-change (2. order) : 0.5993308E+01  (-0.1351264E+01)
 number of electron     650.9999880 magnetization      36.5329640
 augmentation part      216.4886422 magnetization      30.2705606

 Broyden mixing:
  rms(total) = 0.28743E+01    rms(broyden)= 0.28737E+01
  rms(prec ) = 0.32307E+01
  weight for this iteration     100.00

 eigenvalues of (default mixing * dielectric matrix)
  average eigenvalue GAMMA=   0.4147
  1.1986  0.5127  0.5127  0.5623  0.3619  0.1827  0.1827  0.1137  0.1046

 Free energy of the ion-electron system (eV)
  ---------------------------------------------------
  alpha Z        PSCENC =      2035.81112896
  Ewald energy   TEWEN  =    -39521.58885644
  -Hartree energ DENC   =    -17384.99851136
  -exchange      EXHF   =         0.00000000
  -V(xc)+E(xc)   XCENC  =      2637.76119880
  PAW double counting   =     58251.48552046   -60493.49158195
  entropy T*S    EENTRO =        -0.07313856
  eigenvalues    EBANDS =     -2280.16619134
  atomic energy  EATOM  =     56154.90156720
  Solvation  Ediel_sol  =         0.00000000
  ---------------------------------------------------
  free energy    TOTEN  =      -600.35886422 eV

  energy without entropy =     -600.28572566  energy(sigma->0) =     -600.32229494


--------------------------------------------------------------------------------------------------------




--------------------------------------- Iteration      1(  15)  ---------------------------------------


    POTLOK:  cpu time    0.2260: real time    0.2265
    SETDIJ:  cpu time    0.0331: real time    0.0332
     EDDAV:  cpu time    5.9905: real time    6.0047
    CHARGE:  cpu time    0.3498: real time    0.3506
    MIXING:  cpu time    0.0073: real time    0.0073
    --------------------------------------------
      LOOP:  cpu time    6.6066: real time    6.6223

 eigenvalue-minimisations  :  2336
 total energy-change (2. order) :-0.2623840E+01  (-0.1129548E+01)
 number of electron     650.9999881 magnetization      34.2392049
 augmentation part      215.9051301 magnetization      28.4708732

 Broyden mixing:
  rms(total) = 0.30220E+01    rms(broyden)= 0.30215E+01
  rms(prec ) = 0.35040E+01
  weight for this iteration     100.00

 eigenvalues of (default mixing * dielectric matrix)
  average eigenvalue GAMMA=   0.4211
  1.2864  0.5706  0.5706  0.5674  0.3385  0.3385  0.1781  0.1403  0.1102  0.1102

 Free energy of the ion-electron system (eV)
  ---------------------------------------------------
  alpha Z        PSCENC =      2035.81112896
  Ewald energy   TEWEN  =    -39521.58885644
  -Hartree energ DENC   =    -17404.33678427
  -exchange      EXHF   =         0.00000000
  -V(xc)+E(xc)   XCENC  =      2637.77208052
  PAW double counting   =     58999.71706921   -61255.01442194
  entropy T*S    EENTRO =        -0.03890602
  eigenvalues    EBANDS =     -2250.20558095
  atomic energy  EATOM  =     56154.90156720
  Solvation  Ediel_sol  =         0.00000000
  ---------------------------------------------------
  free energy    TOTEN  =      -602.98270373 eV

  energy without entropy =     -602.94379771  energy(sigma->0) =     -602.96325072


--------------------------------------------------------------------------------------------------------




--------------------------------------- Iteration      1(  16)  ---------------------------------------


    POTLOK:  cpu time    0.2269: real time    0.2274
    SETDIJ:  cpu time    0.0314: real time    0.0315
     EDDAV:  cpu time    5.6730: real time    5.6865
    CHARGE:  cpu time    0.3520: real time    0.3529
    MIXING:  cpu time    0.0075: real time    0.0075
    --------------------------------------------
      LOOP:  cpu time    6.2908: real time    6.3058

 eigenvalue-minimisations  :  2192
 total energy-change (2. order) : 0.1640060E+01  (-0.1031512E+01)
 number of electron     650.9999879 magnetization      31.2118430
 augmentation part      215.8600292 magnetization      24.1106321

 Broyden mixing:
  rms(total) = 0.19452E+01    rms(broyden)= 0.19443E+01
  rms(prec ) = 0.21618E+01
  weight for this iteration     100.00

 eigenvalues of (default mixing * dielectric matrix)
  average eigenvalue GAMMA=   0.4553
  1.5295  0.7278  0.7278  0.4787  0.4028  0.4028  0.2263  0.1651  0.1325  0.1076
  0.1076

 Free energy of the ion-electron system (eV)
  ---------------------------------------------------
  alpha Z        PSCENC =      2035.81112896
  Ewald energy   TEWEN  =    -39521.58885644
  -Hartree energ DENC   =    -17411.10306515
  -exchange      EXHF   =         0.00000000
  -V(xc)+E(xc)   XCENC  =      2637.56121858
  PAW double counting   =     59301.92455347   -61562.30691351
  entropy T*S    EENTRO =        -0.04804081
  eigenvalues    EBANDS =     -2236.49423587
  atomic energy  EATOM  =     56154.90156720
  Solvation  Ediel_sol  =         0.00000000
  ---------------------------------------------------
  free energy    TOTEN  =      -601.34264357 eV

  energy without entropy =     -601.29460276  energy(sigma->0) =     -601.31862316


--------------------------------------------------------------------------------------------------------




--------------------------------------- Iteration      1(  17)  ---------------------------------------


    POTLOK:  cpu time    0.2262: real time    0.2267
    SETDIJ:  cpu time    0.0314: real time    0.0315
     EDDAV:  cpu time    6.1918: real time    6.2065
    CHARGE:  cpu time    0.3515: real time    0.3524
    MIXING:  cpu time    0.0078: real time    0.0078
    --------------------------------------------
      LOOP:  cpu time    6.8087: real time    6.8248

 eigenvalue-minimisations  :  2432
 total energy-change (2. order) :-0.1436815E+01  (-0.2624240E+00)
 number of electron     650.9999879 magnetization      28.7363752
 augmentation part      215.8558869 magnetization      21.6715277

 Broyden mixing:
  rms(total) = 0.18291E+01    rms(broyden)= 0.18287E+01
  rms(prec ) = 0.19855E+01
  weight for this iteration     100.00

 eigenvalues of (default mixing * dielectric matrix)
  average eigenvalue GAMMA=   0.4723
  1.7651  0.7829  0.7829  0.4495  0.4495  0.3685  0.3685  0.1739  0.1739  0.1353
  0.1088  0.1088

 Free energy of the ion-electron system (eV)
  ---------------------------------------------------
  alpha Z        PSCENC =      2035.81112896
  Ewald energy   TEWEN  =    -39521.58885644
  -Hartree energ DENC   =    -17413.39561964
  -exchange      EXHF   =         0.00000000
  -V(xc)+E(xc)   XCENC  =      2636.91011692
  PAW double counting   =     59712.81204757   -61978.03106510
  entropy T*S    EENTRO =        -0.04012291
  eigenvalues    EBANDS =     -2230.15865477
  atomic energy  EATOM  =     56154.90156720
  Solvation  Ediel_sol  =         0.00000000
  ---------------------------------------------------
  free energy    TOTEN  =      -602.77945821 eV

  energy without entropy =     -602.73933530  energy(sigma->0) =     -602.75939676


--------------------------------------------------------------------------------------------------------




--------------------------------------- Iteration      1(  18)  ---------------------------------------


    POTLOK:  cpu time    0.2258: real time    0.2264
    SETDIJ:  cpu time    0.0330: real time    0.0331
     EDDAV:  cpu time    6.1913: real time    6.2061
    CHARGE:  cpu time    0.3513: real time    0.3522
    MIXING:  cpu time    0.0078: real time    0.0078
    --------------------------------------------
      LOOP:  cpu time    6.8094: real time    6.8256

 eigenvalue-minimisations  :  2448
 total energy-change (2. order) :-0.8566673E+00  (-0.2494204E+00)
 number of electron     650.9999879 magnetization      27.1346632
 augmentation part      215.9851558 magnetization      20.5156316

 Broyden mixing:
  rms(total) = 0.13716E+01    rms(broyden)= 0.13714E+01
  rms(prec ) = 0.14512E+01
  weight for this iteration     100.00

 eigenvalues of (default mixing * dielectric matrix)
  average eigenvalue GAMMA=   0.4827
  1.8026  0.8646  0.8646  0.5144  0.5144  0.3788  0.3788  0.2604  0.1745  0.1714
  0.1332  0.1086  0.1086

 Free energy of the ion-electron system (eV)
  ---------------------------------------------------
  alpha Z        PSCENC =      2035.81112896
  Ewald energy   TEWEN  =    -39521.58885644
  -Hartree energ DENC   =    -17413.59316565
  -exchange      EXHF   =         0.00000000
  -V(xc)+E(xc)   XCENC  =      2636.54455422
  PAW double counting   =     60059.25887648   -62328.57764051
  entropy T*S    EENTRO =        -0.03727846
  eigenvalues    EBANDS =     -2226.35531135
  atomic energy  EATOM  =     56154.90156720
  Solvation  Ediel_sol  =         0.00000000
  ---------------------------------------------------
  free energy    TOTEN  =      -603.63612555 eV

  energy without entropy =     -603.59884709  energy(sigma->0) =     -603.61748632


--------------------------------------------------------------------------------------------------------




--------------------------------------- Iteration      1(  19)  ---------------------------------------


    POTLOK:  cpu time    0.2262: real time    0.2267
    SETDIJ:  cpu time    0.0317: real time    0.0318
     EDDAV:  cpu time    5.9979: real time    6.0121
    CHARGE:  cpu time    0.3508: real time    0.3517
    MIXING:  cpu time    0.0083: real time    0.0083
    --------------------------------------------
      LOOP:  cpu time    6.6149: real time    6.6306

 eigenvalue-minimisations  :  2352
 total energy-change (2. order) :-0.1516194E+01  (-0.4123649E+00)
 number of electron     650.9999879 magnetization      24.9945147
 augmentation part      216.0649198 magnetization      18.5912520

 Broyden mixing:
  rms(total) = 0.14192E+01    rms(broyden)= 0.14188E+01
  rms(prec ) = 0.15601E+01
  weight for this iteration     100.00

 eigenvalues of (default mixing * dielectric matrix)
  average eigenvalue GAMMA=   0.5038
  1.8278  1.0298  1.0298  0.5819  0.5819  0.3813  0.3813  0.3843  0.1770  0.1770
  0.1087  0.1087  0.1391  0.1453

 Free energy of the ion-electron system (eV)
  ---------------------------------------------------
  alpha Z        PSCENC =      2035.81112896
  Ewald energy   TEWEN  =    -39521.58885644
  -Hartree energ DENC   =    -17411.39055383
  -exchange      EXHF   =         0.00000000
  -V(xc)+E(xc)   XCENC  =      2636.15509273
  PAW double counting   =     60226.84148919   -62497.34589967
  entropy T*S    EENTRO =        -0.05326570
  eigenvalues    EBANDS =     -2228.48302193
  atomic energy  EATOM  =     56154.90156720
  Solvation  Ediel_sol  =         0.00000000
  ---------------------------------------------------
  free energy    TOTEN  =      -605.15231949 eV

  energy without entropy =     -605.09905379  energy(sigma->0) =     -605.12568664


--------------------------------------------------------------------------------------------------------




--------------------------------------- Iteration      1(  20)  ---------------------------------------


    POTLOK:  cpu time    0.2263: real time    0.2269
    SETDIJ:  cpu time    0.0316: real time    0.0317
     EDDAV:  cpu time    5.9653: real time    5.9795
    CHARGE:  cpu time    0.3509: real time    0.3518
    MIXING:  cpu time    0.0087: real time    0.0087
    --------------------------------------------
      LOOP:  cpu time    6.5829: real time    6.5985

 eigenvalue-minimisations  :  2336
 total energy-change (2. order) :-0.9789507E+00  (-0.2139460E+00)
 number of electron     650.9999879 magnetization      24.0442469
 augmentation part      216.0755881 magnetization      17.6753335

 Broyden mixing:
  rms(total) = 0.84281E+00    rms(broyden)= 0.84254E+00
  rms(prec ) = 0.89836E+00
  weight for this iteration     100.00

 eigenvalues of (default mixing * dielectric matrix)
  average eigenvalue GAMMA=   0.5204
  1.7679  1.1636  1.1636  0.6438  0.6438  0.4028  0.4028  0.3887  0.3887  0.1840
  0.1670  0.1085  0.1085  0.1362  0.1362

 Free energy of the ion-electron system (eV)
  ---------------------------------------------------
  alpha Z        PSCENC =      2035.81112896
  Ewald energy   TEWEN  =    -39521.58885644
  -Hartree energ DENC   =    -17411.03228218
  -exchange      EXHF   =         0.00000000
  -V(xc)+E(xc)   XCENC  =      2635.91356581
  PAW double counting   =     60401.20275872   -62673.23323377
  entropy T*S    EENTRO =        -0.01698087
  eigenvalues    EBANDS =     -2228.08893765
  atomic energy  EATOM  =     56154.90156720
  Solvation  Ediel_sol  =         0.00000000
  ---------------------------------------------------
  free energy    TOTEN  =      -606.13127023 eV

  energy without entropy =     -606.11428935  energy(sigma->0) =     -606.12277979


--------------------------------------------------------------------------------------------------------




--------------------------------------- Iteration      1(  21)  ---------------------------------------


    POTLOK:  cpu time    0.2266: real time    0.2271
    SETDIJ:  cpu time    0.0315: real time    0.0316
     EDDAV:  cpu time    5.8786: real time    5.8925
    CHARGE:  cpu time    0.3486: real time    0.3494
    MIXING:  cpu time    0.0092: real time    0.0092
    --------------------------------------------
      LOOP:  cpu time    6.4945: real time    6.5099

 eigenvalue-minimisations  :  2304
 total energy-change (2. order) :-0.5718954E+00  (-0.1016094E+00)
 number of electron     650.9999879 magnetization      22.8373141
 augmentation part      216.1054414 magnetization      16.6904224

 Broyden mixing:
  rms(total) = 0.10006E+01    rms(broyden)= 0.10004E+01
  rms(prec ) = 0.11206E+01
  weight for this iteration     100.00

 eigenvalues of (default mixing * dielectric matrix)
  average eigenvalue GAMMA=   0.5338
  1.6397  1.3838  1.3838  0.7084  0.7084  0.4377  0.4377  0.4030  0.4030  0.1888
  0.1888  0.1086  0.1086  0.1613  0.1392  0.1392

 Free energy of the ion-electron system (eV)
  ---------------------------------------------------
  alpha Z        PSCENC =      2035.81112896
  Ewald energy   TEWEN  =    -39521.58885644
  -Hartree energ DENC   =    -17408.86226833
  -exchange      EXHF   =         0.00000000
  -V(xc)+E(xc)   XCENC  =      2635.85220548
  PAW double counting   =     60423.77852303   -62695.01845928
  entropy T*S    EENTRO =        -0.03785608
  eigenvalues    EBANDS =     -2231.53915023
  atomic energy  EATOM  =     56154.90156720
  Solvation  Ediel_sol  =         0.00000000
  ---------------------------------------------------
  free energy    TOTEN  =      -606.70316567 eV

  energy without entropy =     -606.66530959  energy(sigma->0) =     -606.68423763


--------------------------------------------------------------------------------------------------------




--------------------------------------- Iteration      1(  22)  ---------------------------------------


    POTLOK:  cpu time    0.2261: real time    0.2266
    SETDIJ:  cpu time    0.0313: real time    0.0314
     EDDAV:  cpu time    5.8803: real time    5.8943
    CHARGE:  cpu time    0.3457: real time    0.3466
    MIXING:  cpu time    0.0089: real time    0.0089
    --------------------------------------------
      LOOP:  cpu time    6.4923: real time    6.5078

 eigenvalue-minimisations  :  2288
 total energy-change (2. order) : 0.4714342E-01  (-0.6517035E-01)
 number of electron     650.9999879 magnetization      21.5271695
 augmentation part      216.1776366 magnetization      15.5848200

 Broyden mixing:
  rms(total) = 0.59830E+00    rms(broyden)= 0.59812E+00
  rms(prec ) = 0.67097E+00
  weight for this iteration     100.00

 eigenvalues of (default mixing * dielectric matrix)
  average eigenvalue GAMMA=   0.5607
  1.8562  1.8562  0.8170  0.8170  0.7828  0.5055  0.5055  0.5325  0.4225  0.4225
  0.1086  0.1086  0.1796  0.1796  0.1641  0.1368  0.1368

 Free energy of the ion-electron system (eV)
  ---------------------------------------------------
  alpha Z        PSCENC =      2035.81112896
  Ewald energy   TEWEN  =    -39521.58885644
  -Hartree energ DENC   =    -17406.76606647
  -exchange      EXHF   =         0.00000000
  -V(xc)+E(xc)   XCENC  =      2635.87946842
  PAW double counting   =     60477.16916854   -62748.07741707
  entropy T*S    EENTRO =        -0.01815476
  eigenvalues    EBANDS =     -2233.96686063
  atomic energy  EATOM  =     56154.90156720
  Solvation  Ediel_sol  =         0.00000000
  ---------------------------------------------------
  free energy    TOTEN  =      -606.65602226 eV

  energy without entropy =     -606.63786750  energy(sigma->0) =     -606.64694488


--------------------------------------------------------------------------------------------------------




--------------------------------------- Iteration      1(  23)  ---------------------------------------


    POTLOK:  cpu time    0.2257: real time    0.2263
    SETDIJ:  cpu time    0.0319: real time    0.0319
     EDDAV:  cpu time    6.3020: real time    6.3169
    CHARGE:  cpu time    0.3445: real time    0.3453
    MIXING:  cpu time    0.0095: real time    0.0095
    --------------------------------------------
      LOOP:  cpu time    6.9136: real time    6.9300

 eigenvalue-minimisations  :  2512
 total energy-change (2. order) :-0.5102914E-01  (-0.2242058E-01)
 number of electron     650.9999879 magnetization      21.2397779
 augmentation part      216.2169917 magnetization      15.4471743

 Broyden mixing:
  rms(total) = 0.53636E+00    rms(broyden)= 0.53631E+00
  rms(prec ) = 0.60802E+00
  weight for this iteration     100.00

 eigenvalues of (default mixing * dielectric matrix)
  average eigenvalue GAMMA=   0.5510
  1.7807  1.7807  0.7955  0.7955  0.8203  0.8203  0.4627  0.4627  0.4357  0.3736
  0.3736  0.1086  0.1086  0.1802  0.1802  0.1640  0.1372  0.1372

 Free energy of the ion-electron system (eV)
[...]
 -----------------------------------------------------------------------------------
      8.46218      0.05774      7.08202        -0.002182     -0.004887      0.003909
      1.41880      0.81758     11.79311        -0.001949     -0.001000     -0.001532
      0.00432      1.64468      2.35946         0.003282      0.000104      0.007037
     -1.37628      2.41263      7.07678         0.000073      0.002811      0.002561
     -0.01664      3.27325     11.79360        -0.002671      0.000357     -0.000017
     -1.40332      4.08227      2.34906         0.004587     -0.002505      0.003053
      5.65773      4.88849      7.07291         0.001319      0.002285     -0.000000
      2.88318      0.08283      7.07291        -0.004400     -0.007621     -0.000000
      4.24111      0.81610     11.78506        -0.002727     -0.002581     -0.005218
      2.83925      1.62547      2.36075        -0.000872     -0.003652      0.005218
      0.07195      4.90185      7.06379        -0.003141     -0.004333     -0.003909
      1.42333      5.73904     11.78637        -0.001551      0.002895     -0.007037
     -0.00019      6.55047      2.35271         0.000109     -0.002188      0.001532
      4.21939      2.39722      7.07291         0.003221      0.005579     -0.000000
      5.67869      3.27215     11.79579        -0.002212     -0.003383     -0.000751
      4.24746      4.09847      2.35002        -0.001824     -0.003607      0.000751
      2.77870      4.92738      7.06904         0.002398      0.001469     -0.002561
      4.23816      5.73879     11.79676        -0.004463      0.002720     -0.003053
      2.84419      6.53518      2.35222         0.001645     -0.002134      0.000017
      0.00042      0.00221     14.14483         0.000022     -0.000506      0.001583
      1.41498      0.80371      4.73822        -0.002121     -0.009828      0.011558
      0.00166      1.63757      9.43679        -0.003358     -0.002526     -0.004958
      7.07547      2.43313      0.00016        -0.001452     -0.002560      0.001626
      0.02028      3.27911      4.72834         0.011508     -0.006017      0.001852
     -1.42654      4.11825      9.44393         0.000899      0.009244     -0.011583
     -2.82142      4.93511      0.00001         0.001775      0.003074     -0.000000
     -1.44096      5.73649      4.70407        -0.009876      0.007121      0.011581
     -2.81762      6.53131      9.44176         0.011105     -0.004993     -0.011581
     -1.42908      7.34672      0.00001         0.000028      0.000048     -0.000000
      4.28084      0.81960      4.71565        -0.000997      0.008525      0.000158
      2.82242      1.66162      9.43016         0.007881      0.003399     -0.000158
      1.43490      2.48192     14.14437         0.001154      0.003331      0.002713
      2.81522      3.28043      4.72565        -0.012887     -0.005432      0.002559
      1.43219      4.06900      9.42866         0.007502      0.003721     -0.000357
      0.00286      4.91443      0.00100        -0.000449     -0.000234     -0.001583
      1.41850      5.73319      4.70903        -0.000509     -0.004171      0.004958
     -0.01030      6.54022      9.40760        -0.007451     -0.006751     -0.011558
      5.68500      0.02813      0.00144         0.002308      0.002665     -0.002713
      7.06080      0.81932      4.71715        -0.000529      0.008358      0.000357
      5.68636      1.62278      9.42016         0.001740     -0.013877     -0.002559
      4.25466      2.45831     -0.00000         0.000690      0.001194     -0.000000
      5.67103      3.27676      4.69568         0.000558     -0.005379      0.005273
      4.25528      4.09414      9.45013        -0.004938     -0.002206     -0.005273
      2.82245      4.88861     14.14565        -0.001491     -0.002537     -0.001626
      4.28094      5.73667      4.70189         0.007556      0.005400      0.011583
      2.83081      6.57008      9.41748        -0.010965      0.006958     -0.001852
     -4.17517      7.32152     10.43086        -0.002820      0.005741      0.004337
      8.43665      0.02638      3.72285         0.000048     -0.004528      0.003661
      1.43070      0.90301      0.99490         0.006182     -0.002452      0.002062
      1.42397      0.74032      8.43532         0.002239     -0.000478     -0.000524
     -0.08313      1.58600      5.72913        -0.005875     -0.001546      0.006745
      0.07176      1.68798     13.14426        -0.003752     -0.000921      0.002339
     -1.42582      2.54186     10.42746         0.005230     -0.003561      0.006107
     -1.34317      2.49194      3.73549        -0.000848      0.000075     -0.003062
     -0.06073      3.22371      0.99535         0.000286      0.000699      0.006608
     -0.06235      3.31992      8.44192        -0.002677     -0.005271     -0.005162
     -1.39574      4.11190      5.75562         0.003314     -0.002176      0.000491
     -1.43176      4.01495     13.15791         0.000528      0.001163     -0.001332
      5.62932      4.89106     10.41685         0.002674      0.001990      0.000773
      5.67416      4.86517      3.72897         0.000386      0.003310     -0.000773
     -1.36941      5.70552      0.96822        -0.002904      0.002588     -0.004698
     -1.40964      5.73631      8.42015        -0.000991     -0.000628      0.001316
     -2.83344      6.55834      5.72569        -0.000049     -0.001172     -0.001316
     -2.88022      6.57779     13.17761         0.003693     -0.001221      0.004698
      2.81998      0.06876     10.41702         0.001504     -0.001400      0.000557
      2.90260      0.02107      3.72879        -0.001964      0.000602     -0.000557
      4.19054      0.77328      0.99546        -0.001787      0.001271      0.004380
      4.17877      0.86488      8.42830        -0.002720     -0.000228     -0.007038
      2.91266      1.59587      5.71751         0.001163     -0.002470      0.007038
      2.82745      1.56026     13.15035         0.001994     -0.000912     -0.004380
      1.37961      2.43439     10.40208         0.008916      0.003429     -0.003645
      1.41391      2.37368      3.76701        -0.001674      0.004781     -0.004130
      2.88495      3.24767      0.96908        -0.001797      0.002568     -0.005409
      2.89149      3.30546      8.46456         0.006018      0.002324      0.000463
      1.41922      4.14169      5.68062        -0.000584      0.000797     -0.007277
      1.37368      4.12277     13.17853        -0.000200     -0.000435      0.002807
      0.05756      4.86405     10.42297        -0.003946     -0.002222     -0.003661
     -0.07784      4.95593      3.71498         0.006382      0.000429     -0.004337
      1.42711      5.81910      1.00156         0.001079     -0.003710     -0.002339
      1.41624      5.63398      8.41670         0.001599     -0.005861     -0.006745
     -0.06969      6.51632      5.71050        -0.001533      0.001700      0.000524
      0.06783      6.60350     13.15093        -0.005214      0.004128     -0.002062
      1.34988      7.32429     10.37882         0.004978      0.000941      0.004130
      1.41960      7.32494      3.74374        -0.001488      0.009436      0.003645
      7.13662      0.79554      0.96729        -0.000277     -0.000391     -0.002807
      7.13024      0.84443      8.46519         0.000983     -0.000108      0.007277
      5.66991      1.70134      5.68125        -0.000996      0.006374     -0.000463
      5.62313      1.66678     13.17673         0.003122     -0.000273      0.005409
      4.32899      2.40808     10.42054        -0.002508      0.000660      0.000778
      4.17400      2.49757      3.72528         0.001826     -0.001842     -0.000778
      5.67765      3.35897      1.00131         0.004393      0.002480      0.000332
      5.69081      3.26574      8.38836         0.004872      0.000130      0.000547
      4.23585      4.10577      5.75745        -0.002323      0.004284     -0.000547
      4.32317      4.14098     13.14451        -0.000049      0.005044     -0.000332
      2.83083      4.99572     10.41033         0.000489     -0.000697      0.003062
      2.91539      4.94910      3.71837        -0.005699      0.002748     -0.006107
      4.19409      5.68050      0.98791         0.000743      0.001039      0.001332
      4.26004      5.76017      8.39020        -0.003542      0.001782     -0.000491
      2.90747      6.51893      5.70391        -0.003226     -0.004954      0.005162
      2.82334      6.47222     13.15048         0.000463      0.000597     -0.006608
 -----------------------------------------------------------------------------------
    total drift:                               -0.004126     -0.003719     -0.000093


--------------------------------------------------------------------------------------------------------



  FREE ENERGIE OF THE ION-ELECTRON SYSTEM (eV)
  ---------------------------------------------------
  free  energy   TOTEN  =      -606.7126304178 eV

  energy  without entropy=     -606.6969388972  energy(sigma->0) =     -606.70478466
 


--------------------------------------------------------------------------------------------------------


    POTLOK:  cpu time    0.2627: real time    0.2633


--------------------------------------------------------------------------------------------------------


 Quasi-Newton relaxation of ions (Broydens 2nd method)
  g(Force)  = 0.254E-03   g(Stress)= 0.106E-03

 Reset! Starting new Quasi-Newton update for ions 


--------------------------------------------------------------------------------------------------------


  
 reached required accuracy - stopping structural energy minimisation
     LOOP+:  cpu time  293.9545: real time  294.8235
    4ORBIT:  cpu time    0.0000: real time    0.0000

volume of typ            1:    16.7 %

volume of typ            2:    19.4 %

volume of typ            3:     9.9 %
 
total charge     
 
# of ion       s       p       d       tot
------------------------------------------
    1        2.082   0.262   0.100   2.443
    2        2.078   0.253   0.096   2.427
    3        2.076   0.248   0.094   2.418
    4        2.079   0.256   0.097   2.433
    5        2.077   0.250   0.095   2.423
    6        2.077   0.251   0.095   2.424
    7        2.078   0.256   0.097   2.431
    8        2.082   0.266   0.101   2.449
    9        2.076   0.249   0.094   2.419
   10        2.076   0.249   0.094   2.419
   11        2.082   0.262   0.100   2.443
   12        2.076   0.248   0.094   2.418
   13        2.078   0.253   0.096   2.427
   14        2.080   0.258   0.098   2.436
   15        2.078   0.253   0.096   2.428
   16        2.078   0.253   0.096   2.428
   17        2.079   0.256   0.097   2.433
   18        2.077   0.251   0.095   2.424
   19        2.077   0.250   0.095   2.423
   20        0.268   0.353   7.853   8.474
   21        0.265   0.346   7.853   8.464
   22        0.268   0.352   7.853   8.473
   23        0.276   0.369   7.846   8.491
   24        0.266   0.350   7.851   8.467
   25        0.278   0.375   7.849   8.503
   26        0.277   0.373   7.843   8.493
   27        0.280   0.378   7.848   8.506
   28        0.280   0.378   7.848   8.506
   29        0.277   0.371   7.845   8.492
   30        0.276   0.370   7.847   8.492
   31        0.276   0.370   7.847   8.492
   32        0.277   0.373   7.845   8.494
   33        0.267   0.352   7.850   8.470
   34        0.277   0.372   7.846   8.495
   35        0.268   0.353   7.853   8.474
   36        0.268   0.352   7.853   8.473
   37        0.265   0.346   7.853   8.464
   38        0.277   0.373   7.845   8.494
   39        0.277   0.372   7.846   8.495
   40        0.267   0.352   7.850   8.470
   41        0.269   0.355   7.852   8.477
   42        0.269   0.356   7.856   8.481
   43        0.269   0.356   7.856   8.481
   44        0.276   0.369   7.846   8.491
   45        0.278   0.375   7.849   8.503
   46        0.266   0.350   7.851   8.467
   47        1.267   2.770   0.006   4.043
   48        1.268   2.768   0.006   4.042
   49        1.268   2.769   0.006   4.042
   50        1.268   2.768   0.006   4.042
   51        1.265   2.777   0.006   4.048
   52        1.267   2.769   0.006   4.042
   53        1.267   2.771   0.006   4.044
   54        1.267   2.771   0.006   4.044
   55        1.267   2.770   0.006   4.043
   56        1.268   2.770   0.006   4.043
   57        1.262   2.784   0.005   4.051
   58        1.267   2.770   0.006   4.043
   59        1.262   2.781   0.007   4.050
   60        1.262   2.781   0.007   4.050
   61        1.262   2.784   0.007   4.052
   62        1.257   2.796   0.006   4.059
   63        1.257   2.796   0.006   4.059
   64        1.262   2.784   0.007   4.052
   65        1.268   2.770   0.006   4.043
   66        1.268   2.770   0.006   4.043
   67        1.268   2.769   0.006   4.043
   68        1.265   2.778   0.006   4.049
   69        1.265   2.778   0.006   4.049
   70        1.268   2.769   0.006   4.043
   71        1.262   2.782   0.007   4.051
   72        1.265   2.776   0.007   4.048
   73        1.261   2.784   0.007   4.053
   74        1.262   2.783   0.007   4.052
   75        1.259   2.791   0.007   4.057
   76        1.261   2.784   0.007   4.052
   77        1.268   2.768   0.006   4.042
   78        1.267   2.770   0.006   4.043
   79        1.267   2.769   0.006   4.042
   80        1.265   2.777   0.006   4.048
   81        1.268   2.768   0.006   4.042
   82        1.268   2.769   0.006   4.042
   83        1.265   2.776   0.007   4.048
   84        1.262   2.782   0.007   4.051
   85        1.261   2.784   0.007   4.052
   86        1.259   2.791   0.007   4.057
   87        1.262   2.783   0.007   4.052
   88        1.261   2.784   0.007   4.053
   89        1.267   2.770   0.006   4.043
   90        1.267   2.770   0.006   4.043
   91        1.268   2.768   0.006   4.041
   92        1.261   2.785   0.005   4.051
   93        1.261   2.785   0.005   4.051
   94        1.268   2.768   0.006   4.041
   95        1.267   2.771   0.006   4.044
   96        1.267   2.771   0.006   4.044
   97        1.267   2.770   0.006   4.043
   98        1.262   2.784   0.005   4.051
   99        1.268   2.770   0.006   4.043
  100        1.267   2.770   0.006   4.043
--------------------------------------------------
tot         115.15  164.53  214.10  493.78
 
magnetization (x)
 
# of ion       s       p       d       tot
------------------------------------------
    1        0.007   0.013   0.001   0.021
    2        0.007   0.013   0.001   0.021
    3        0.007   0.014   0.001   0.022
    4        0.007   0.012   0.001   0.020
    5        0.007   0.012   0.001   0.020
    6        0.007   0.013   0.001   0.021
    7        0.005   0.010   0.001   0.017
    8        0.007   0.014   0.001   0.022
    9        0.007   0.014   0.001   0.022
   10        0.007   0.014   0.001   0.022
   11        0.007   0.013   0.001   0.021
   12        0.007   0.014   0.001   0.022
   13        0.007   0.013   0.001   0.021
   14        0.007   0.012   0.001   0.020
   15        0.007   0.013   0.001   0.021
   16        0.007   0.013   0.001   0.021
   17        0.007   0.012   0.001   0.020
   18        0.007   0.013   0.001   0.021
   19        0.007   0.012   0.001   0.020
   20       -0.000  -0.001   0.628   0.627
   21       -0.000  -0.001   0.672   0.671
   22       -0.000  -0.001   0.619   0.617
   23       -0.000  -0.001   0.438   0.437
   24       -0.000  -0.001   0.610   0.609
   25       -0.001  -0.001   0.407   0.406
   26       -0.001  -0.001   0.396   0.395
   27       -0.001  -0.001   0.384   0.382
   28       -0.001  -0.001   0.384   0.382
   29       -0.000  -0.001   0.418   0.417
   30       -0.000  -0.001   0.425   0.424
   31       -0.000  -0.001   0.425   0.424
   32       -0.001  -0.001   0.406   0.405
   33       -0.000  -0.001   0.588   0.587
   34       -0.001  -0.001   0.402   0.401
   35       -0.000  -0.001   0.628   0.627
   36       -0.000  -0.001   0.619   0.617
   37       -0.000  -0.001   0.672   0.671
   38       -0.001  -0.001   0.406   0.405
   39       -0.001  -0.001   0.402   0.401
   40       -0.000  -0.001   0.588   0.587
   41       -0.000  -0.001   0.612   0.611
   42       -0.000  -0.001   0.622   0.621
   43       -0.000  -0.001   0.622   0.621
   44       -0.000  -0.001   0.438   0.437
   45       -0.001  -0.001   0.407   0.406
   46       -0.000  -0.001   0.610   0.609
   47        0.013   0.091   0.000   0.104
   48        0.012   0.077   0.000   0.089
   49        0.012   0.081   0.000   0.094
   50        0.012   0.084   0.000   0.097
   51        0.013   0.090   0.000   0.104
   52        0.012   0.088   0.000   0.101
   53        0.012   0.085   0.000   0.098
   54        0.012   0.068   0.000   0.080
   55        0.012   0.087   0.000   0.099
   56        0.012   0.082   0.000   0.095
   57        0.014   0.091   0.000   0.105
   58        0.012   0.078   0.000   0.089
   59        0.004  -0.003   0.000   0.001
   60        0.004  -0.003   0.000   0.001
   61        0.004  -0.000   0.000   0.004
   62        0.004  -0.004   0.000   0.000
   63        0.004  -0.004   0.000   0.000
   64        0.004  -0.000   0.000   0.004
   65        0.012   0.077   0.000   0.089
   66        0.012   0.077   0.000   0.089
   67        0.012   0.082   0.000   0.094
   68        0.013   0.089   0.000   0.103
   69        0.013   0.089   0.000   0.103
   70        0.012   0.082   0.000   0.094
   71        0.004  -0.004   0.000  -0.000
   72        0.010   0.041   0.000   0.051
   73        0.004  -0.003   0.000   0.001
   74        0.005   0.003   0.000   0.007
   75        0.004  -0.002   0.000   0.003
   76        0.003  -0.005   0.000  -0.001
   77        0.012   0.077   0.000   0.089
   78        0.013   0.091   0.000   0.104
   79        0.012   0.088   0.000   0.101
   80        0.013   0.090   0.000   0.104
   81        0.012   0.084   0.000   0.097
   82        0.012   0.081   0.000   0.094
   83        0.010   0.041   0.000   0.051
   84        0.004  -0.004   0.000  -0.000
   85        0.003  -0.005   0.000  -0.001
   86        0.004  -0.002   0.000   0.003
   87        0.005   0.003   0.000   0.007
   88        0.004  -0.003   0.000   0.001
   89        0.012   0.071   0.000   0.084
   90        0.012   0.071   0.000   0.084
   91        0.012   0.084   0.000   0.097
   92        0.014   0.093   0.000   0.107
   93        0.014   0.093   0.000   0.107
   94        0.012   0.084   0.000   0.097
   95        0.012   0.068   0.000   0.080
   96        0.012   0.085   0.000   0.098
   97        0.012   0.078   0.000   0.089
   98        0.014   0.091   0.000   0.105
   99        0.012   0.082   0.000   0.095
  100        0.012   0.087   0.000   0.099
--------------------------------------------------
tot           0.64    3.27   13.86   17.78
 

 total amount of memory used by VASP MPI-rank0   146596. kBytes
=======================================================================

   base      :      30000. kBytes
   nonlr-proj:      40186. kBytes
   fftplans  :       9349. kBytes
   grid      :      55332. kBytes
   one-center:       1555. kBytes
   wavefun   :      10174. kBytes
 
  
  
 General timing and accounting informations for this job:
 ========================================================
  
                  Total CPU time used (sec):      305.111
                            User time (sec):      301.290
                          System time (sec):        3.821
                         Elapsed time (sec):      311.066
  
                   Maximum memory used (kb):      200996.
                   Average memory used (kb):           0.
  
                          Minor page faults:        33785
                          Major page faults:           51
                 Voluntary context switches:          873
