 vasp.5.4.4.18Apr17-6-g9f103f2a35 (build May 12 2020 05:39:39) gamma-only       
  
 MD_VERSION_INFO: Compiled 2020-05-12T12:39:39-UTC in devlin.sd.materialsdesign.
 com:/home/medea2/data/build/wwolf/vasp-gpu5.4.4/13047/x86_64/src/src/build/gam 
 from svn 13047
 
 This VASP executable licensed from Materials Design, Inc.
 
 executed on                        Lin64 date 2023.01.20  00:56:52
 running on   16 total cores
 distrk:  each k-point on   16 cores,    1 groups
 distr:  one band on NCORES_PER_BAND=   1 cores,   16 groups


--------------------------------------------------------------------------------------------------------


 INCAR:
 POTCAR:    PAW_PBE Li_sv 10Sep2004               
 POTCAR:    PAW_PBE Ni 02Aug2007                  
 POTCAR:    PAW_PBE O 08Apr2002                   

 ----------------------------------------------------------------------------- 
|                                                                             |
|           W    W    AA    RRRRR   N    N  II  N    N   GGGG   !!!           |
|           W    W   A  A   R    R  NN   N  II  NN   N  G    G  !!!           |
|           W    W  A    A  R    R  N N  N  II  N N  N  G       !!!           |
|           W WW W  AAAAAA  RRRRR   N  N N  II  N  N N  G  GGG   !            |
|           WW  WW  A    A  R   R   N   NN  II  N   NN  G    G                |
|           W    W  A    A  R    R  N    N  II  N    N   GGGG   !!!           |
|                                                                             |
|      For optimal performance we recommend to set                            |
|        NCORE= 4 - approx SQRT( number of cores)                             |
|      NCORE specifies how many cores store one orbital (NPAR=cpu/NCORE).     |
|      This setting can  greatly improve the performance of VASP for DFT.     |
|      The default,   NCORE=1            might be grossly inefficient         |
|      on modern multi-core architectures or massively parallel machines.     |
|      Do your own testing !!!!                                               |
|      Unfortunately you need to use the default for GW and RPA calculations. |
|      (for HF NCORE is supported but not extensively tested yet)             |
|                                                                             |
 ----------------------------------------------------------------------------- 

 POTCAR:    PAW_PBE Li_sv 10Sep2004               
  local pseudopotential read in
  atomic valenz-charges read in
  non local Contribution for L=           0  read in
    real space projection operators read in
  non local Contribution for L=           0  read in
    real space projection operators read in
  non local Contribution for L=           1  read in
    real space projection operators read in
    PAW grid and wavefunctions read in
 
   number of l-projection  operators is LMAX  =           3
   number of lm-projection operators is LMMAX =           5
 
 POTCAR:    PAW_PBE Ni 02Aug2007                  
  local pseudopotential read in
  partial core-charges read in
  partial kinetic energy density read in
  atomic valenz-charges read in
  non local Contribution for L=           2  read in
    real space projection operators read in
  non local Contribution for L=           2  read in
    real space projection operators read in
  non local Contribution for L=           0  read in
    real space projection operators read in
  non local Contribution for L=           0  read in
    real space projection operators read in
  non local Contribution for L=           1  read in
    real space projection operators read in
  non local Contribution for L=           1  read in
    real space projection operators read in
    PAW grid and wavefunctions read in
 
   number of l-projection  operators is LMAX  =           6
   number of lm-projection operators is LMMAX =          18
 
 POTCAR:    PAW_PBE O 08Apr2002                   
  local pseudopotential read in
  partial core-charges read in
  partial kinetic energy density read in
  kinetic energy density of atom read in
  atomic valenz-charges read in
  non local Contribution for L=           0  read in
    real space projection operators read in
  non local Contribution for L=           0  read in
    real space projection operators read in
  non local Contribution for L=           1  read in
    real space projection operators read in
  non local Contribution for L=           1  read in
    real space projection operators read in
    PAW grid and wavefunctions read in
 
   number of l-projection  operators is LMAX  =           4
   number of lm-projection operators is LMMAX =           8
 
 Optimization of the real space projectors (new method)

 maximal supplied QI-value         = 22.11
 optimisation between [QCUT,QGAM] = [ 11.28, 22.77] = [ 35.61,145.23] Ry 
 Optimized for a Real-space Cutoff    1.10 Angstroem

   l    n(q)    QCUT    max X(q) W(low)/X(q) W(high)/X(q)  e(spline) 
   0      7    11.276    10.506    0.54E-04    0.58E-04    0.16E-07
   0      7    11.276     8.367    0.11E-03    0.14E-03    0.35E-07
   1      7    11.276     8.983    0.23E-03    0.43E-03    0.86E-07
 Optimization of the real space projectors (new method)

 maximal supplied QI-value         = 16.25
 optimisation between [QCUT,QGAM] = [ 11.38, 22.75] = [ 36.24,144.96] Ry 
 Optimized for a Real-space Cutoff    1.47 Angstroem

   l    n(q)    QCUT    max X(q) W(low)/X(q) W(high)/X(q)  e(spline) 
   2      9    11.376    60.317    0.17E-03    0.16E-04    0.16E-06
   2      9    11.376    55.921    0.17E-03    0.16E-04    0.17E-06
   0     10    11.376    51.690    0.45E-04    0.60E-04    0.21E-06
   0     10    11.376    30.015    0.37E-04    0.55E-04    0.19E-06
   1     10    11.376    18.849    0.83E-04    0.11E-03    0.92E-07
   1     10    11.376    14.624    0.69E-04    0.92E-04    0.82E-07
 Optimization of the real space projectors (new method)

 maximal supplied QI-value         = 24.76
 optimisation between [QCUT,QGAM] = [ 11.39, 22.77] = [ 36.31,145.25] Ry 
 Optimized for a Real-space Cutoff    1.10 Angstroem

   l    n(q)    QCUT    max X(q) W(low)/X(q) W(high)/X(q)  e(spline) 
   0      7    11.387    20.381    0.22E-03    0.48E-03    0.18E-06
   0      7    11.387    15.268    0.22E-03    0.52E-03    0.19E-06
   1      7    11.387     5.964    0.22E-03    0.73E-03    0.24E-06
   1      7    11.387     5.382    0.19E-03    0.60E-03    0.21E-06

 ----------------------------------------------------------------------------- 
|                                                                             |
|  ADVICE TO THIS USER RUNNING 'VASP/VAMP'   (HEAR YOUR MASTER'S VOICE ...):  |
|                                                                             |
|      You enforced a specific xc-type in the INCAR file,                     |
|      a different type was found on the POTCAR file                          |
|          I HOPE YOU KNOW, WHAT YOU ARE  DOING                               |
|                                                                             |
 ----------------------------------------------------------------------------- 

  PAW_PBE Li_sv 10Sep2004               :
 energy of atom  1       EATOM= -202.7858
 kinetic energy error for atom=    0.0143 (will be added to EATOM!!)
  PAW_PBE Ni 02Aug2007                  :
 energy of atom  2       EATOM=-1077.6739
 kinetic energy error for atom=    0.0030 (will be added to EATOM!!)
  PAW_PBE O 08Apr2002                   :
 energy of atom  3       EATOM= -432.3788
 kinetic energy error for atom=    0.0224 (will be added to EATOM!!)
 
 
 POSCAR: ce283491_1                              
  positions in direct lattice
  No initial velocities read in
 exchange correlation table for  LEXCH =       14
   RHO(1)=    0.500       N(1)  =     2000
   RHO(2)=  100.500       N(2)  =     4000
 


--------------------------------------------------------------------------------------------------------


 ion  position               nearest neighbor table
   1  0.002  0.498  1.000-  94 2.09  95 2.10  47 2.11  46 2.12  59 2.13  82 2.15
   2  0.113  0.835  0.222-  61 2.09  66 2.10  48 2.11  43 2.12  60 2.13  67 2.15
   3  0.200  0.167  0.111-  44 1.98  45 1.98  68 2.15  81 2.15  50 2.28  51 2.28  17 2.78  16 2.78

   4  0.360  0.500  0.024-  52 1.98  53 2.01  47 2.07  88 2.12  83 2.28  21 2.78  20 2.78
   5  0.447  0.833  0.199-  49 1.98  54 2.01  48 2.07  73 2.12  72 2.28  21 2.78  19 2.78
   6  0.974  0.500  0.331-  77 1.98  58 2.01  64 2.07  59 2.12  46 2.28  23 2.78  33 2.78
   7  0.133  0.833  0.578-  85 1.98  84 1.98  79 2.15  66 2.15  61 2.28  78 2.28  36 2.78  37 2.78

   8  0.555  0.168  0.446-  51 2.09  68 2.10  92 2.11  75 2.12  74 2.13  69 2.15
   9  0.778  0.832  0.558-  78 2.09  79 2.10  91 2.11  72 2.12  73 2.13  96 2.15
  10  0.886  0.167  0.418-  62 1.98  57 2.01  63 2.07  74 2.12  75 2.28  23 2.78  25 2.78
  11  0.220  0.165  0.776-  50 2.09  81 2.10  63 2.11  86 2.12  87 2.13  80 2.15
  12  0.332  0.502  0.665-  89 2.09  70 2.10  64 2.11  83 2.12  88 2.13  65 2.15
  13  0.579  0.166  0.804-  93 1.98  56 2.01  92 2.07  87 2.12  86 2.28  22 2.78  41 2.78
  14  0.667  0.500  0.644-  71 1.98  76 1.98  95 2.15  70 2.15  94 2.28  89 2.28  30 2.78  32 2.78

  15  0.754  0.834  0.891-  90 1.98  55 2.01  91 2.07  60 2.12  43 2.28  22 2.78  39 2.78
  16  0.003  0.001  0.998-  45 1.86  60 1.88  81 1.90  96 1.90  93 1.97  48 2.00  34 2.77   3 2.78
                            19 2.81  40 2.82  25 2.84  28 2.85  22 2.86
  17  0.116  0.333  0.225-  44 1.86  59 1.88  68 1.90  65 1.90  62 1.97  47 2.00  29 2.77   3 2.78
                            20 2.81  26 2.82  41 2.84  35 2.85  23 2.86
  18  0.222  0.667  0.111-  49 1.86  52 1.86  67 1.87  82 1.87  43 1.91  46 1.91  42 2.79  27 2.79
                            24 2.81  30 2.82  36 2.82  21 2.83
  19  0.336  0.999  0.000-  54 1.85  81 1.86  48 1.92  87 1.92  84 1.97  51 2.00   5 2.78  22 2.79
                            16 2.81  31 2.81  37 2.84  28 2.85  34 2.85
  20  0.447  0.334  0.222-  53 1.85  68 1.86  47 1.92  74 1.92  71 1.97  50 2.00   4 2.78  23 2.79
                            17 2.81  38 2.81  32 2.84  35 2.85  29 2.85
  21  0.557  0.667  0.111-  49 1.87  52 1.87  55 1.90  58 1.90  73 1.92  88 1.92   5 2.78   4 2.78
                            33 2.79  39 2.79  24 2.82  18 2.83  36 2.86  30 2.86
  22  0.667  0.000  0.001-  90 1.87  93 1.87  54 1.90  57 1.90  60 1.92  87 1.92  13 2.78  15 2.78
                            25 2.79  19 2.79  31 2.82  40 2.83  37 2.86  16 2.86
  23  0.777  0.333  0.221-  62 1.87  77 1.87  56 1.90  53 1.90  74 1.92  59 1.92  10 2.78   6 2.78
                            41 2.79  20 2.79  38 2.82  26 2.83  17 2.86  32 2.86
  24  0.890  0.667  0.111-  55 1.88  58 1.88  43 1.88  46 1.88  61 1.90  94 1.90  27 2.80  42 2.80
                            39 2.81  33 2.81  18 2.81  21 2.82
  25  0.997  0.001  0.331-  57 1.85  66 1.86  63 1.92  60 1.92  45 1.97  78 2.00  10 2.78  22 2.79
                            37 2.81  31 2.81  16 2.84  34 2.85  28 2.85
  26  0.111  0.333  0.555-  62 1.86  77 1.86  80 1.87  65 1.87  86 1.91  83 1.91  29 2.79  35 2.79
                            38 2.81  32 2.82  17 2.82  23 2.83
  27  0.223  0.665  0.441-  64 1.86  61 1.87  85 1.87  67 1.90  70 1.91  46 1.92  30 2.77  18 2.79
                            24 2.80  33 2.85  39 2.85  36 2.85
  28  0.337  0.998  0.337-  48 1.86  51 1.87  45 1.87  69 1.90  66 1.91  72 1.92  37 2.77  40 2.79
                            31 2.80  19 2.85  25 2.85  16 2.85
  29  0.441  0.332  0.555-  92 1.86  89 1.87  71 1.87  65 1.90  68 1.91  86 1.92  17 2.77  26 2.79
                            38 2.80  41 2.85  20 2.85  32 2.85
  30  0.553  0.666  0.447-  76 1.86  73 1.88  70 1.90  67 1.90  52 1.97  91 2.00  27 2.77  14 2.78
                            39 2.81  18 2.82  33 2.84  42 2.85  21 2.86
  31  0.667  0.000  0.335-  57 1.88  54 1.88  72 1.88  75 1.88  78 1.90  51 1.90  34 2.80  28 2.80
                            25 2.81  19 2.81  40 2.81  22 2.82
  32  0.780  0.334  0.561-  71 1.86  74 1.88  95 1.90  80 1.90  77 1.97  92 2.00  35 2.77  14 2.78
                            41 2.81  26 2.82  20 2.84  29 2.85  23 2.86
  33  0.886  0.666  0.441-  58 1.85  79 1.86  64 1.92  73 1.92  76 1.97  61 2.00   6 2.78  21 2.79
                            36 2.81  24 2.81  30 2.84  27 2.85  42 2.85
  34  0.997  0.002  0.667-  63 1.86  78 1.87  84 1.87  96 1.90  81 1.91  75 1.92  16 2.77  40 2.79
                            31 2.80  25 2.85  19 2.85  37 2.85
  35  0.111  0.335  0.885-  47 1.86  50 1.87  44 1.87  80 1.90  95 1.91  83 1.92  32 2.77  26 2.79
                            38 2.80  20 2.85  41 2.85  17 2.85
  36  0.217  0.667  0.775-  85 1.86  88 1.88  79 1.90  82 1.90  49 1.97  64 2.00  42 2.77   7 2.78
                            33 2.81  18 2.82  39 2.84  27 2.85  21 2.86
  37  0.330  0.999  0.661-  84 1.86  87 1.88  66 1.90  69 1.90  90 1.97  63 2.00  28 2.77   7 2.78
                            25 2.81  40 2.82  19 2.84  34 2.85  22 2.86
  38  0.443  0.333  0.888-  56 1.88  53 1.88  86 1.88  83 1.88  50 1.90  89 1.90  35 2.80  29 2.80
                            20 2.81  41 2.81  26 2.81  23 2.82
  39  0.556  0.668  0.781-  55 1.85  70 1.86  91 1.92  88 1.92  85 1.97  94 2.00  15 2.78  21 2.79
                            30 2.81  24 2.81  36 2.84  42 2.85  27 2.85
  40  0.667  0.000  0.667-  93 1.86  90 1.86  96 1.87  69 1.87  75 1.91  72 1.91  34 2.79  28 2.79
                            31 2.81  16 2.82  37 2.82  22 2.83
  41  0.777  0.332  0.892-  56 1.85  95 1.86  92 1.92  59 1.92  44 1.97  89 2.00  13 2.78  23 2.79
                            32 2.81  38 2.81  17 2.84  29 2.85  35 2.85
  42  0.893  0.668  0.781-  91 1.86  94 1.87  76 1.87  82 1.90  79 1.91  43 1.92  36 2.77  18 2.79
                            24 2.80  39 2.85  33 2.85  30 2.85
  43  0.002  0.737  0.005-  24 1.88  18 1.91  42 1.92   2 2.12  15 2.28
  44  0.014  0.267  0.006-  17 1.86  35 1.87  41 1.97   3 1.98
  45  0.119  0.066  0.216-  16 1.86  28 1.87  25 1.97   3 1.98
  46  0.107  0.596  0.217-  24 1.88  18 1.91  27 1.92   1 2.12   6 2.28
  47  0.224  0.405  0.099-  35 1.86  20 1.92  17 2.00   4 2.07   1 2.11
  48  0.237  0.928  0.124-  28 1.86  19 1.92  16 2.00   5 2.07   2 2.11
  49  0.338  0.734  0.010-  18 1.86  21 1.87  36 1.97   5 1.98
  50  0.324  0.263  0.988-  35 1.87  38 1.90  20 2.00  11 2.09   3 2.28
  51  0.447  0.070  0.235-  28 1.87  31 1.90  19 2.00   8 2.09   3 2.28
  52  0.439  0.599  0.212-  18 1.86  21 1.87  30 1.97   4 1.98
  53  0.552  0.400  0.108-  20 1.85  38 1.88  23 1.90   4 2.01
  54  0.554  0.934  0.114-  19 1.85  31 1.88  22 1.90   5 2.01
  55  0.669  0.733  0.999-  39 1.85  24 1.88  21 1.90  15 2.01
  56  0.664  0.267  0.996-  41 1.85  38 1.88  23 1.90  13 2.01
  57  0.779  0.066  0.226-  25 1.85  31 1.88  22 1.90  10 2.01
  58  0.782  0.600  0.223-  33 1.85  24 1.88  21 1.90   6 2.01
  59  0.898  0.401  0.117-  17 1.88  23 1.92  41 1.92   6 2.12   1 2.13
  60  0.892  0.932  0.105-  16 1.88  22 1.92  25 1.92  15 2.12   2 2.13
  61  0.010  0.737  0.331-  27 1.87  24 1.90  33 2.00   2 2.09   7 2.28
  62  0.995  0.266  0.338-  26 1.86  23 1.87  17 1.97  10 1.98
  63  0.096  0.072  0.553-  34 1.86  25 1.92  37 2.00  10 2.07  11 2.11
  64  0.109  0.595  0.541-  27 1.86  33 1.92  36 2.00   6 2.07  12 2.11
  65  0.220  0.401  0.446-  26 1.87  29 1.90  17 1.90  12 2.15
  66  0.212  0.932  0.438-  25 1.86  37 1.90  28 1.91   2 2.10   7 2.15
  67  0.331  0.735  0.329-  18 1.87  27 1.90  30 1.90   2 2.15
  68  0.339  0.265  0.329-  20 1.86  17 1.90  29 1.91   8 2.10   3 2.15
  69  0.449  0.068  0.558-  40 1.87  28 1.90  37 1.90   8 2.15
  70  0.448  0.598  0.565-  39 1.86  30 1.90  27 1.91  12 2.10  14 2.15
  71  0.562  0.400  0.459-  32 1.86  29 1.87  20 1.97  14 1.98
  72  0.561  0.930  0.446-  31 1.88  40 1.91  28 1.92   9 2.12   5 2.28
  73  0.661  0.735  0.337-  30 1.88  21 1.92  33 1.92   5 2.12   9 2.13
  74  0.673  0.265  0.342-  32 1.88  23 1.92  20 1.92  10 2.12   8 2.13
  75  0.772  0.070  0.552-  31 1.88  40 1.91  34 1.92   8 2.12  10 2.28
  76  0.771  0.600  0.563-  30 1.86  42 1.87  33 1.97  14 1.98
  77  0.894  0.401  0.439-  26 1.86  23 1.87  32 1.97   6 1.98
  78  0.886  0.930  0.454-  34 1.87  31 1.90  25 2.00   9 2.09   7 2.28
  79  0.994  0.735  0.657-  33 1.86  36 1.90  42 1.91   9 2.10   7 2.15
  80  0.002  0.265  0.664-  26 1.87  35 1.90  32 1.90  11 2.15
  81  0.121  0.068  0.893-  19 1.86  16 1.90  34 1.91  11 2.10   3 2.15
  82  0.113  0.599  0.893-  18 1.87  42 1.90  36 1.90   1 2.15
  83  0.226  0.404  0.776-  38 1.88  26 1.91  35 1.92  12 2.12   4 2.28
  84  0.214  0.934  0.763-  37 1.86  34 1.87  19 1.97   7 1.98
  85  0.319  0.733  0.659-  36 1.86  27 1.87  39 1.97   7 1.98
  86  0.332  0.263  0.670-  38 1.88  26 1.91  29 1.92  11 2.12  13 2.28
  87  0.441  0.068  0.880-  37 1.88  22 1.92  19 1.92  13 2.12  11 2.13
  88  0.435  0.599  0.886-  36 1.88  21 1.92  39 1.92   4 2.12  12 2.13
  89  0.543  0.404  0.768-  29 1.87  38 1.90  41 2.00  12 2.09  14 2.28
  90  0.566  0.932  0.783-  40 1.86  22 1.87  37 1.97  15 1.98
  91  0.679  0.739  0.681-  42 1.86  39 1.92  30 2.00  15 2.07   9 2.11
  92  0.654  0.261  0.669-  29 1.86  41 1.92  32 2.00  13 2.07   8 2.11
  93  0.768  0.068  0.884-  40 1.86  22 1.87  16 1.97  13 1.98
  94  0.790  0.596  0.892-  42 1.87  24 1.90  39 2.00   1 2.09  14 2.28
  95  0.885  0.402  0.784-  41 1.86  32 1.90  35 1.91   1 2.10  14 2.15
  96  0.885  0.932  0.776-  40 1.87  34 1.90  16 1.90   9 2.15
 
  LATTYP: Found a hexagonal cell.
 ALAT       =     8.4656474035
 C/A-ratio  =     1.6868929142
  
  Lattice vectors:
  
 A1 = (   4.2328237060,  -7.3314657085,   0.0000000000)
 A2 = (  -8.4656474119,   0.0000000000,   0.0000000000)
 A3 = (   0.0000000000,   0.0000000000, -14.2806406193)


Analysis of symmetry for initial positions (statically):
=====================================================================
 Subroutine PRICEL returns:
 Original cell was already a primitive cell.
 

 Routine SETGRP: Setting up the symmetry group for a 
 hexagonal supercell.


 Subroutine GETGRP returns: Found  6 space group operations
 (whereof  1 operations were pure point group operations)
 out of a pool of 24 trial point group operations.


The static configuration has the point symmetry C_1 .
 The point group associated with its full space group is D_3 .


Analysis of symmetry for dynamics (positions and initial velocities):
=====================================================================
 Subroutine PRICEL returns:
 Original cell was already a primitive cell.
 

 Routine SETGRP: Setting up the symmetry group for a 
 hexagonal supercell.


 Subroutine GETGRP returns: Found  6 space group operations
 (whereof  1 operations were pure point group operations)
 out of a pool of 24 trial point group operations.


The dynamic configuration has the point symmetry C_1 .
 The point group associated with its full space group is D_3 .


Analysis of structural, dynamic, and magnetic symmetry:
=====================================================================
 Subroutine PRICEL returns:
 Original cell was already a primitive cell.
 

 Routine SETGRP: Setting up the symmetry group for a 
 hexagonal supercell.


 Subroutine GETGRP returns: Found  6 space group operations
 (whereof  1 operations were pure point group operations)
 out of a pool of 24 trial point group operations.


The magnetic configuration has the point symmetry C_1 .
 The point group associated with its full space group is D_3 .


 Subroutine INISYM returns: Found  6 space group operations
 (whereof  1 operations are pure point group operations),
 and found     1 'primitive' translations

 
 
 KPOINTS: Automatic mesh                          

Automatic generation of k-mesh.
Space group operators:
 irot       det(A)        alpha          n_x          n_y          n_z        tau_x        tau_y        tau_z
    1     1.000000     0.000000     1.000000     0.000000     0.000000     0.000000     0.000000     0.000000
    2     1.000000   120.000000     0.000000     0.000000     1.000000    -0.222222    -0.666667    -0.444444
    3     1.000000   120.000000     0.000000     0.000000    -1.000000    -0.777778    -0.333333    -0.222222
    4     1.000000   180.000000     0.500000    -0.866025     0.000000    -0.888889    -0.666667    -0.777778
    5     1.000000   180.000000     1.000000     0.000000     0.000000    -0.666667     0.000000    -0.333333
    6     1.000000   180.000000    -0.500000    -0.866025     0.000000    -0.444444    -0.333333    -0.555556
 
 Subroutine IBZKPT returns following result:
 ===========================================
 
 Found      1 irreducible k-points:
 
 Following reciprocal coordinates:
            Coordinates               Weight
  0.000000  0.000000  0.000000      1.000000
 
 Following cartesian coordinates:
            Coordinates               Weight
  0.000000  0.000000  0.000000      1.000000
 


--------------------------------------------------------------------------------------------------------




 Dimension of arrays:
   k-points           NKPTS =      1   k-points in BZ     NKDIM =      1   number of bands    NBANDS=    432
   number of dos      NEDOS =    301   number of ions     NIONS =     96
   non local maximal  LDIM  =      6   non local SUM 2l+1 LMDIM =     18
   total plane-waves  NPLWV = 442368
   max r-space proj   IRMAX =   6750   max aug-charges    IRDMAX=  16376
   dimension x,y,z NGX =    64 NGY =  108 NGZ =   64
   dimension x,y,z NGXF=   128 NGYF=  216 NGZF=  128
   support grid    NGXF=   128 NGYF=  216 NGZF=  128
   ions per type =              15  27  54
   NGX,Y,Z   is equivalent  to a cutoff of  12.57, 12.57, 12.57 a.u.
   NGXF,Y,Z  is equivalent  to a cutoff of  25.14, 25.15, 25.14 a.u.

 SYSTEM =  unknown system                          
 POSCAR =  ce283491_1                              

 Startparameter for this run:
   NWRITE =      1    write-flag & timer
   PREC   = accura    normal or accurate (medium, high low for compatibility)
   ISTART =      0    job   : 0-new  1-cont  2-samecut
   ICHARG =      2    charge: 1-file 2-atom 10-const
   ISPIN  =      2    spin polarized calculation?
   LNONCOLLINEAR =      F non collinear calculations
   LSORBIT =      F    spin-orbit coupling
   INIWAV =      1    electr: 0-lowe 1-rand  2-diag
   LASPH  =      F    aspherical Exc in radial PAW
   METAGGA=      F    non-selfconsistent MetaGGA calc.

 Electronic Relaxation 1
   ENCUT  =  500.0 eV  36.75 Ry    6.06 a.u.  15.43 26.04 15.43*2*pi/ulx,y,z
   ENINI  =  500.0     initial cutoff
   ENAUG  =  628.9 eV  augmentation charge cutoff
   NELM   =     80;   NELMIN=  2; NELMDL= -5     # of ELM steps 
   EDIFF  = 0.1E-04   stopping-criterion for ELM
   LREAL  =      T    real-space projection
   NLSPLINE    = F    spline interpolate recip. space projectors
   LCOMPAT=      F    compatible to vasp.4.4
   GGA_COMPAT  = T    GGA compatible to vasp.4.4-vasp.4.6
   LMAXPAW     = -100 max onsite density
   LMAXMIX     =    2 max onsite mixed and CHGCAR
   VOSKOWN=      1    Vosko Wilk Nusair interpolation
   ROPT   =   -0.00025  -0.00025  -0.00025
 Ionic relaxation
   EDIFFG = -.2E-01   stopping-criterion for IOM
   NSW    =     20    number of steps for IOM
   NBLOCK =      1;   KBLOCK =     20    inner block; outer block 
   IBRION =      1    ionic relax: 0-MD 1-quasi-New 2-CG
   NFREE  =      0    steps in history (QN), initial steepest desc. (CG)
   ISIF   =      3    stress and relaxation
   IWAVPR =     11    prediction:  0-non 1-charg 2-wave 3-comb
   ISYM   =      2    0-nonsym 1-usesym 2-fastsym
   LCORR  =      T    Harris-Foulkes like correction to forces

   POTIM  = 0.5000    time-step for ionic-motion
   TEIN   =    0.0    initial temperature
   TEBEG  =    0.0;   TEEND  =   0.0 temperature during run
   SMASS  =  -3.00    Nose mass-parameter (am)
   estimated Nose-frequenzy (Omega)   =  0.10E-29 period in steps =****** mass=  -0.164E-26a.u.
   SCALEE = 1.0000    scale energy and forces
   NPACO  =    256;   APACO  = 16.0  distance and # of slots for P.C.
   PSTRESS=    0.0 pullay stress

  Mass of Ions in am
   POMASS =   7.01 58.69 16.00
  Ionic Valenz
   ZVAL   =   3.00 10.00  6.00
  Atomic Wigner-Seitz radii
   RWIGS  =   1.23  1.15  0.73
  virtual crystal weights 
   VCA    =   1.00  1.00  1.00
   NELECT =     639.0000    total number of electrons
   NUPDOWN=      -1.0000    fix difference up-down

 DOS related values:
   EMIN   =  10.00;   EMAX   =-10.00  energy-range for DOS
   EFERMI =   0.00
   ISMEAR =     0;   SIGMA  =   0.05  broadening in eV -4-tet -1-fermi 0-gaus

 Electronic relaxation 2 (details)
   IALGO  =     38    algorithm
   LDIAG  =      T    sub-space diagonalisation (order eigenvalues)
   LSUBROT=      F    optimize rotation matrix (better conditioning)
   TURBO    =      0    0=normal 1=particle mesh
   IRESTART =      0    0=no restart 2=restart with 2 vectors
   NREBOOT  =      0    no. of reboots
   NMIN     =      0    reboot dimension
   EREF     =   0.00    reference energy to select bands
   IMIX   =      4    mixing-type and parameters
     AMIX     =   0.40;   BMIX     =  1.00
     AMIX_MAG =   1.60;   BMIX_MAG =  1.00
     AMIN     =   0.10
     WC   =   100.;   INIMIX=   1;  MIXPRE=   1;  MAXMIX= -45

 Intra band minimization:
   WEIMIN = 0.0010     energy-eigenvalue tresh-hold
   EBREAK =  0.58E-08  absolut break condition
   DEPER  =   0.30     relativ break condition  

   TIME   =   0.40     timestep for ELM

  volume/ion in A,a.u.               =       9.23        62.31
  Fermi-wavevector in a.u.,A,eV,Ry     =   1.467942  2.774008 29.318564  2.154854
  Thomas-Fermi vector in A             =   2.583499
 
 Write flags
   LWAVE        =      F    write WAVECAR
   LDOWNSAMPLE  =      F    k-point downsampling of WAVECAR
   LCHARG       =      T    write CHGCAR
   LVTOT        =      F    write LOCPOT, total local potential
   LVHAR        =      F    write LOCPOT, Hartree potential only
   LELF         =      F    write electronic localiz. function (ELF)
   LORBIT       =      0    0 simple, 1 ext, 2 COOP (PROOUT), +10 PAW based schemes


 Dipole corrections
   LMONO  =      F    monopole corrections only (constant potential shift)
   LDIPOL =      F    correct potential (dipole corrections)
   IDIPOL =      0    1-x, 2-y, 3-z, 4-all directions 
   EPSILON=  1.0000000 bulk dielectric constant

 Exchange correlation treatment:
   GGA     =    PS    GGA type
   LEXCH   =    14    internal setting for exchange type
   VOSKOWN=      1    Vosko Wilk Nusair interpolation
   LHFCALC =     F    Hartree Fock is set to
   LHFONE  =     F    Hartree Fock one center treatment
   AEXX    =    0.0000 exact exchange contribution

 Linear response parameters
   LEPSILON=     F    determine dielectric tensor
   LRPA    =     F    only Hartree local field effects (RPA)
   LNABLA  =     F    use nabla operator in PAW spheres
   LVEL    =     F    velocity operator in full k-point grid
   LINTERFAST=   F  fast interpolation
   KINTER  =     0    interpolate to denser k-point grid
   CSHIFT  =0.1000    complex shift for real part using Kramers Kronig
   OMEGAMAX=  -1.0    maximum frequency
   DEG_THRESHOLD= 0.2000000E-02 threshold for treating states as degnerate
   RTIME   =   -0.100 relaxation time in fs
  (WPLASMAI=    0.000 imaginary part of plasma frequency in eV, 0.658/RTIME)
   DFIELD  = 0.0000000 0.0000000 0.0000000 field for delta impulse in time
 
 Orbital magnetization related:
   ORBITALMAG=     F  switch on orbital magnetization
   LCHIMAG   =     F  perturbation theory with respect to B field
   DQ        =  0.001000  dq finite difference perturbation B field
   LLRAUG    =     F  two centre corrections for induced B field



--------------------------------------------------------------------------------------------------------


 quasi-Newton-method for relaxation of ions
 charge density and potential will be updated during run
 spin polarized calculation
 Variant of blocked Davidson
 Davidson routine will perform the subspace rotation
 perform sub-space diagonalisation
    after iterative eigenvector-optimisation
 modified Broyden-mixing scheme, WC =      100.0
 initial mixing is a Kerker type mixing with AMIX =  0.4000 and BMIX =      1.0000
 Hartree-type preconditioning will be used
 using additional bands          112
 real space projection scheme for non local part
 use partial core corrections
 calculate Harris-corrections to forces 
   (improved forces if not selfconsistent)
 use gradient corrections 
 use of overlap-Matrix (Vanderbilt PP)
 Gauss-broadening in eV      SIGMA  =   0.05


--------------------------------------------------------------------------------------------------------


  energy-cutoff  :      500.00
  volume of cell :      886.34
      direct lattice vectors                 reciprocal lattice vectors
    -4.232823706  7.331465709  0.000000000     0.000000000  0.136398374  0.000000000
     0.000000000  0.000000000 14.280640619     0.000000000  0.000000000  0.070024870
     8.465647412  0.000000000  0.000000000     0.118124457  0.068199187  0.000000000

  length of vectors
     8.465647404 14.280640619  8.465647412     0.136398374  0.070024870  0.136398374


 
 k-points in units of 2pi/SCALE and weight: Automatic mesh                          
   0.00000000  0.00000000  0.00000000       1.000
 
 k-points in reciprocal lattice and weights: Automatic mesh                          
   0.00000000  0.00000000  0.00000000       1.000
 
 position of ions in fractional coordinates (direct lattice) 
   0.00174469  0.49831910  0.99978276
   0.11307304  0.83501423  0.22243946
   0.20003580  0.16666667  0.11111111
   0.35956027  0.50038908  0.02361770
   0.44705367  0.83294425  0.19860452
   0.97377306  0.49961092  0.33072410
   0.13329753  0.83333333  0.57774198
   0.55533832  0.16834757  0.44618913
   0.77799502  0.83165243  0.55751749
   0.88627966  0.16705575  0.41821750
   0.22026029  0.16498577  0.77603309
   0.33158864  0.50168090  0.66470474
   0.57917326  0.16627759  0.80400472
   0.66666667  0.50000000  0.64448025
   0.75416008  0.83372241  0.89149812
   0.00290921  0.00061711  0.99761314
   0.11640717  0.33271622  0.22460908
   0.22238465  0.66666667  0.11111111
   0.33646058  0.99899049  0.00040230
   0.44716939  0.33434284  0.22181992
   0.55667946  0.66666667  0.11111111
   0.66666667  0.00000000  0.00112390
   0.77665388  0.33333333  0.22109832
   0.89014960  0.66666667  0.11111111
   0.99687275  0.00100951  0.33060838
   0.11094868  0.33333333  0.55539313
   0.22265437  0.66514210  0.44099861
   0.33677916  0.99847543  0.33721131
   0.44056646  0.33180876  0.55512341
   0.55316870  0.66604956  0.44735365
   0.66666667  0.00000000  0.33459404
   0.78016464  0.33395044  0.56085162
   0.88616394  0.66565716  0.44131719
   0.99655417  0.00152457  0.66709882
   0.11067896  0.33485790  0.88501091
   0.21692616  0.66728378  0.77486857
   0.33042412  0.99938289  0.66137061
   0.44318373  0.33333333  0.88762818
   0.55595786  0.66767618  0.78090503
   0.66666667  0.00000000  0.66682910
   0.77737548  0.33232382  0.89161384
   0.89276687  0.66819124  0.78122361
   0.00176793  0.73709280  0.00549853
   0.01435498  0.26699947  0.00646868
   0.11899740  0.06633386  0.21575354
   0.10738052  0.59624053  0.21672369
   0.22442661  0.40523957  0.09870000
   0.23683771  0.92809377  0.12352222
   0.33838218  0.73419850  0.01001163
   0.32372545  0.26308897  0.98767516
   0.44716139  0.07024436  0.23454706
   0.43948166  0.59913483  0.21221059
   0.55158408  0.39973372  0.10830638
   0.55438881  0.93359962  0.11391584
   0.66947140  0.73306705  0.99883325
   0.66386194  0.26693295  0.99602852
   0.77894453  0.06640038  0.22619370
   0.78174926  0.60026628  0.22338897
   0.89803933  0.40130924  0.11699928
   0.89215116  0.93202410  0.10522294
   0.00960788  0.73691103  0.33061638
   0.99495115  0.26580150  0.33829611
   0.09649562  0.07190623  0.55335117
   0.10890672  0.59476043  0.54094007
   0.21994805  0.40133593  0.44644076
   0.21232409  0.93181202  0.43839054
   0.33133701  0.73466926  0.32906284
   0.33938723  0.26514535  0.32948910
   0.44871493  0.06800259  0.55782973
   0.44828867  0.59847868  0.56545369
   0.56202424  0.39966720  0.45879942
   0.56105409  0.92957387  0.44621237
   0.66077850  0.73464257  0.33659560
   0.67255484  0.26535743  0.34248377
   0.77227925  0.07042613  0.55182497
   0.77130910  0.60033280  0.56344185
   0.89385167  0.40086517  0.43939559
   0.88617194  0.92975564  0.45405232
   0.99394610  0.73485465  0.65676854
   0.00199632  0.26533074  0.66439250
   0.12100924  0.06818798  0.89273312
   0.11338528  0.59866407  0.89315938
   0.22595281  0.40375947  0.77600985
   0.21433593  0.93366614  0.76342280
   0.31897835  0.73300053  0.65878038
   0.33156540  0.26290720  0.67039726
   0.44118217  0.06797590  0.87973845
   0.43529400  0.59869076  0.88562662
   0.54323072  0.40357770  0.76816990
   0.56556719  0.93246817  0.78282663
   0.67907778  0.73857290  0.68128216
   0.65425556  0.26142710  0.66887106
   0.76776615  0.06753183  0.88392611
   0.79010262  0.59642230  0.89160584
   0.88504466  0.40152132  0.78383168
   0.88461840  0.93199741  0.77578146
 
 position of ions in cartesian coordinates  (Angst):
   8.45642337  0.01279113  7.11631598
   1.40447579  0.82899112 11.92453813
   0.09391120  1.46655561  2.38010682
  -1.32201611  2.63610379  7.14587662
  -0.21098353  3.27755865 11.89497749
  -1.32201607  7.13918380  7.13476400
   4.32673495  0.97726627 11.90053380
   1.42663065  4.07144385  2.40411115
   1.42663073  5.70384381 11.87652947
  -0.21098366  6.49772894  2.38566313
   5.63729954  1.61483076  2.35610249
   4.22359971  2.43103074  7.16432464
   4.35488217  4.24618889  2.37455051
   2.63406008  4.88764383  7.14032031
   4.35488209  5.52909877 11.90609011
   8.43312692  0.02132877  0.00881273
   1.40873025  0.85343518  4.75140077
  -0.00068754  1.63040544  9.52042713
  -1.42077259  2.46674920 14.26622417
  -0.01493996  3.27840705  4.77462994
  -1.41569853  4.08127637  9.52042713
  -2.81236794  4.88764383  0.00000000
  -1.41569853  5.69401129  4.76021349
  -2.82721885  6.52610127  9.52042713
  -1.42077263  7.30853838  0.01441645
   4.23213621  0.81341644  4.76021349
   2.79088205  1.63238288  9.49865529
   1.42918524  2.46908486 14.25886878
   2.83463890  3.22999789  4.73844166
   1.44567268  4.05553736  9.51161440
   0.01067268  4.88764383  0.00000000
   1.44567268  5.71975031  4.76902622
  -0.01494001  6.49688054  9.50601068
   1.42918528  7.30620272  0.02177184
   7.02370579  0.81143900  4.78198533
   5.64155391  1.59038670  9.52923985
   4.20030334  2.42249311 14.27182789
   5.63842861  3.24918632  4.76021349
   4.25759504  4.07598599  9.53484358
   2.82325756  4.88764383  0.00000000
   4.25759504  5.69930167  4.74579704
   2.83463886  6.54528969  9.54219896
   0.03906528  0.01296152 10.52615738
  -0.00600054  0.10524304  3.81292348
   1.32279838  0.87242536  0.94729002
   1.38018353  0.78725660  8.51469673
  -0.11439888  1.64537600  5.78708066
   0.04320329  1.73636755 13.25377359
  -1.34755718  2.48083735 10.48482492
   6.99103690  2.37338204  3.75707903
   0.09283738  3.27834840  1.00313446
  -0.06374836  3.22204472  8.55602919
  -1.41787454  4.04391977  5.70845360
  -1.38225876  4.06448255 13.33240066
   5.62201571  4.90820661 10.46866709
   5.62201571  4.86708105  3.81197353
  -1.38225876  5.71080511  0.94823996
  -1.41787454  5.73136789  8.57218702
  -2.81076751  6.58394455  5.73095303
  -2.88553827  6.54077564 13.30990122
   2.75821324  0.07043984 10.52356159
  -1.34755723  7.29445024  3.79581570
   4.27602695  0.70745433  1.02686703
   4.11842496  0.79844588  8.49355996
   2.84840874  1.61254159  5.73133418
   2.81252930  1.55664678 13.30687258
   1.38323883  2.42918593 10.49154768
   1.35277223  2.48820584  3.78644546
   2.82305862  3.28973812  0.97112055
   2.88940466  3.28661301  8.54665895
   1.50508460  4.12046144  5.70750365
   1.40263354  4.11334882 13.27491037
   0.05254077  4.84447491 10.49116653
   0.05254077  4.93081275  3.78947409
   1.40263371  5.66193884  1.00573025
   1.50508460  5.65482622  8.57313697
  -0.06374840  6.55324287  5.72461143
   0.09283725  6.49693919 13.27750616
   1.35277228  7.28708175 10.49419516
   5.61606258  0.01463595  3.78909294
   7.04535305  0.88717509  0.97376804
   7.08123249  0.83128029  8.54930644
   5.61300737  1.65656528  5.76594389
   5.55562205  1.57139652 13.33335060
   4.22682330  2.33857883 10.46771714
   4.27188894  2.43086036  3.75448324
   5.58010918  3.23451195  0.97073940
   5.65487994  3.19134303  8.54968759
   4.20365566  3.98267740  5.76334810
   4.23318803  4.14643646 13.31624282
   2.89307803  4.97863546 10.54729416
   2.89307811  4.79665220  3.73334646
   4.23318803  5.62885120  0.96439779
   4.20365557  5.79261026  8.51729252
   2.88940462  6.48867458  5.73398167
   2.82305857  6.48554946 13.30952007
 


--------------------------------------------------------------------------------------------------------


 use serial FFT for orbitals x direction half grid
 k-point  1 :   0.0000 0.0000 0.0000  plane waves:   11301

 maximum and minimum number of plane-waves per node :     11301    11301

 maximum number of plane-waves:     11301
 maximum index in each direction: 
   IXMAX=   15   IYMAX=   26   IZMAX=   13
   IXMIN=    0   IYMIN=  -25   IZMIN=  -15

 The following grids will avoid any aliasing or wrap around errors in the Hartre
 e energy
  - symmetry arguments have not been applied
  - exchange correlation energies might require even more grid points
  - we recommend to set PREC=Normal or Accurate and rely on VASP defaults
 NGX is ok and might be reduce to    64
 NGY is ok and might be reduce to   108
 NGZ is ok and might be reduce to    60

 serial   3D FFT for wavefunctions
 parallel 3D FFT for charge:
    minimum data exchange during FFTs selected (reduces bandwidth)


 total amount of memory used by VASP MPI-rank0   146106. kBytes
=======================================================================

   base      :      30000. kBytes
   nonlr-proj:      39724. kBytes
   fftplans  :       9349. kBytes
   grid      :      55332. kBytes
   one-center:       1492. kBytes
   wavefun   :      10209. kBytes
 
     INWAV:  cpu time    0.0000: real time    0.0000
 Broyden mixing: mesh for mixing (old mesh)
   NGX = 31   NGY = 53   NGZ = 31
  (NGX  =128   NGY  =216   NGZ  =128)
  gives a total of  50933 points

 initial charge density was supplied:
 charge density of overlapping atoms calculated
 number of electron     639.0000000 magnetization      67.5000000
 keeping initial charge density in first step


--------------------------------------------------------------------------------------------------------


 Maximum index for non-local projection operator         6515
 Maximum index for augmentation-charges         1076 (set IRDMAX)


--------------------------------------------------------------------------------------------------------


 First call to EWALD:  gamma=   0.185
 Maximum number of real-space cells 3x 2x 3
 Maximum number of reciprocal cells 2x 4x 2

    FEWALD:  cpu time    0.0038: real time    0.0039


--------------------------------------- Iteration      1(   1)  ---------------------------------------


    POTLOK:  cpu time    0.2509: real time    0.2530
    SETDIJ:  cpu time    0.0288: real time    0.0288
     EDDAV:  cpu time    4.2418: real time    4.2844
    --------------------------------------------
      LOOP:  cpu time    4.5220: real time    4.5668

 eigenvalue-minimisations  :  1744
 total energy-change (2. order) : 0.1130775E+05  (-0.2919740E+05)
 number of electron     639.0000000 magnetization      67.5000000
 augmentation part      639.0000000 magnetization      67.5000000

 Free energy of the ion-electron system (eV)
  ---------------------------------------------------
  alpha Z        PSCENC =      1977.31682871
  Ewald energy   TEWEN  =    -37688.82955180
  -Hartree energ DENC   =    -18880.91873479
  -exchange      EXHF   =         0.00000000
  -V(xc)+E(xc)   XCENC  =      2600.38077616
  PAW double counting   =     45853.99093403   -47965.09191613
  entropy T*S    EENTRO =        -0.01905747
  eigenvalues    EBANDS =     10060.08556150
  atomic energy  EATOM  =     55350.83220507
  Solvation  Ediel_sol  =         0.00000000
  ---------------------------------------------------
  free energy    TOTEN  =     11307.74704529 eV

  energy without entropy =    11307.76610275  energy(sigma->0) =    11307.75657402


--------------------------------------------------------------------------------------------------------




--------------------------------------- Iteration      1(   2)  ---------------------------------------


     EDDAV:  cpu time    4.3308: real time    4.3411
    --------------------------------------------
      LOOP:  cpu time    4.3307: real time    4.3409

 eigenvalue-minimisations  :  1824
 total energy-change (2. order) :-0.9246749E+04  (-0.8387913E+04)
 number of electron     639.0000000 magnetization      67.5000000
 augmentation part      639.0000000 magnetization      67.5000000

 Free energy of the ion-electron system (eV)
  ---------------------------------------------------
  alpha Z        PSCENC =      1977.31682871
  Ewald energy   TEWEN  =    -37688.82955180
  -Hartree energ DENC   =    -18880.91873479
  -exchange      EXHF   =         0.00000000
  -V(xc)+E(xc)   XCENC  =      2600.38077616
  PAW double counting   =     45853.99093403   -47965.09191613
  entropy T*S    EENTRO =        -0.02382182
  eigenvalues    EBANDS =       813.34094264
  atomic energy  EATOM  =     55350.83220507
  Solvation  Ediel_sol  =         0.00000000
  ---------------------------------------------------
  free energy    TOTEN  =      2060.99766207 eV

  energy without entropy =     2061.02148389  energy(sigma->0) =     2061.00957298


--------------------------------------------------------------------------------------------------------




--------------------------------------- Iteration      1(   3)  ---------------------------------------


     EDDAV:  cpu time    4.4178: real time    4.4282
    --------------------------------------------
      LOOP:  cpu time    4.4178: real time    4.4282

 eigenvalue-minimisations  :  1872
 total energy-change (2. order) :-0.2428063E+04  (-0.2063040E+04)
 number of electron     639.0000000 magnetization      67.5000000
 augmentation part      639.0000000 magnetization      67.5000000

 Free energy of the ion-electron system (eV)
  ---------------------------------------------------
  alpha Z        PSCENC =      1977.31682871
  Ewald energy   TEWEN  =    -37688.82955180
  -Hartree energ DENC   =    -18880.91873479
  -exchange      EXHF   =         0.00000000
  -V(xc)+E(xc)   XCENC  =      2600.38077616
  PAW double counting   =     45853.99093403   -47965.09191613
  entropy T*S    EENTRO =        -0.14302019
  eigenvalues    EBANDS =     -1614.60268370
  atomic energy  EATOM  =     55350.83220507
  Solvation  Ediel_sol  =         0.00000000
  ---------------------------------------------------
  free energy    TOTEN  =      -367.06516264 eV

  energy without entropy =     -366.92214244  energy(sigma->0) =     -366.99365254


--------------------------------------------------------------------------------------------------------




--------------------------------------- Iteration      1(   4)  ---------------------------------------


     EDDAV:  cpu time    4.7317: real time    4.7428
    --------------------------------------------
      LOOP:  cpu time    4.7317: real time    4.7428

 eigenvalue-minimisations  :  2048
 total energy-change (2. order) :-0.3881593E+03  (-0.3729330E+03)
 number of electron     639.0000000 magnetization      67.5000000
 augmentation part      639.0000000 magnetization      67.5000000

 Free energy of the ion-electron system (eV)
  ---------------------------------------------------
  alpha Z        PSCENC =      1977.31682871
  Ewald energy   TEWEN  =    -37688.82955180
  -Hartree energ DENC   =    -18880.91873479
  -exchange      EXHF   =         0.00000000
  -V(xc)+E(xc)   XCENC  =      2600.38077616
  PAW double counting   =     45853.99093403   -47965.09191613
  entropy T*S    EENTRO =        -0.26304104
  eigenvalues    EBANDS =     -2002.64191354
  atomic energy  EATOM  =     55350.83220507
  Solvation  Ediel_sol  =         0.00000000
  ---------------------------------------------------
  free energy    TOTEN  =      -755.22441333 eV

  energy without entropy =     -754.96137229  energy(sigma->0) =     -755.09289281


--------------------------------------------------------------------------------------------------------




--------------------------------------- Iteration      1(   5)  ---------------------------------------


     EDDAV:  cpu time    5.7851: real time    5.7988
    CHARGE:  cpu time    0.3354: real time    0.3362
    MIXING:  cpu time    0.0045: real time    0.0045
    --------------------------------------------
      LOOP:  cpu time    6.1246: real time    6.1392

 eigenvalue-minimisations  :  2640
 total energy-change (2. order) :-0.2029836E+02  (-0.2007741E+02)
 number of electron     638.9999968 magnetization      73.1114592
 augmentation part      191.1049896 magnetization      50.8804825

 Broyden mixing:
  rms(total) = 0.15672E+02    rms(broyden)= 0.15671E+02
  rms(prec ) = 0.17158E+02
  weight for this iteration     100.00

 Free energy of the ion-electron system (eV)
  ---------------------------------------------------
  alpha Z        PSCENC =      1977.31682871
  Ewald energy   TEWEN  =    -37688.82955180
  -Hartree energ DENC   =    -18880.91873479
  -exchange      EXHF   =         0.00000000
  -V(xc)+E(xc)   XCENC  =      2600.38077616
  PAW double counting   =     45853.99093403   -47965.09191613
  entropy T*S    EENTRO =        -0.25178902
  eigenvalues    EBANDS =     -2022.95152319
  atomic energy  EATOM  =     55350.83220507
  Solvation  Ediel_sol  =         0.00000000
  ---------------------------------------------------
  free energy    TOTEN  =      -775.52277096 eV

  energy without entropy =     -775.27098194  energy(sigma->0) =     -775.39687645


--------------------------------------------------------------------------------------------------------




--------------------------------------- Iteration      1(   6)  ---------------------------------------


    POTLOK:  cpu time    0.2178: real time    0.2183
    SETDIJ:  cpu time    0.0290: real time    0.0290
     EDDAV:  cpu time    5.9145: real time    5.9285
    CHARGE:  cpu time    0.3306: real time    0.3314
    MIXING:  cpu time    0.0050: real time    0.0050
    --------------------------------------------
      LOOP:  cpu time    6.4969: real time    6.5123

 eigenvalue-minimisations  :  2704
 total energy-change (2. order) :-0.3582952E+02  (-0.1612090E+03)
 number of electron     638.9999928 magnetization      68.1128017
 augmentation part      241.6134163 magnetization      67.6091658

 Broyden mixing:
  rms(total) = 0.26732E+02    rms(broyden)= 0.26731E+02
  rms(prec ) = 0.27731E+02
  weight for this iteration     100.00

 eigenvalues of (default mixing * dielectric matrix)
  average eigenvalue GAMMA=   0.2650
  0.2650

 Free energy of the ion-electron system (eV)
  ---------------------------------------------------
  alpha Z        PSCENC =      1977.31682871
  Ewald energy   TEWEN  =    -37688.82955180
  -Hartree energ DENC   =    -18033.27372137
  -exchange      EXHF   =         0.00000000
  -V(xc)+E(xc)   XCENC  =      2639.86829370
  PAW double counting   =     50491.59004344   -52317.09571448
  entropy T*S    EENTRO =        -0.08198231
  eigenvalues    EBANDS =     -3231.67869373
  atomic energy  EATOM  =     55350.83220507
  Solvation  Ediel_sol  =         0.00000000
  ---------------------------------------------------
  free energy    TOTEN  =      -811.35229277 eV

  energy without entropy =     -811.27031046  energy(sigma->0) =     -811.31130161


--------------------------------------------------------------------------------------------------------




--------------------------------------- Iteration      1(   7)  ---------------------------------------


    POTLOK:  cpu time    0.2174: real time    0.2179
    SETDIJ:  cpu time    0.0292: real time    0.0293
     EDDAV:  cpu time    5.3032: real time    5.3157
    CHARGE:  cpu time    0.3243: real time    0.3251
    MIXING:  cpu time    0.0048: real time    0.0049
    --------------------------------------------
      LOOP:  cpu time    5.8790: real time    5.8929

 eigenvalue-minimisations  :  2368
 total energy-change (2. order) : 0.1926834E+03  (-0.4450103E+02)
 number of electron     638.9999927 magnetization      58.5411504
 augmentation part      223.6408065 magnetization      55.9859507

 Broyden mixing:
  rms(total) = 0.10529E+02    rms(broyden)= 0.10528E+02
  rms(prec ) = 0.11176E+02
  weight for this iteration     100.00

 eigenvalues of (default mixing * dielectric matrix)
  average eigenvalue GAMMA=   0.5557
  0.5557  0.5557

 Free energy of the ion-electron system (eV)
  ---------------------------------------------------
  alpha Z        PSCENC =      1977.31682871
  Ewald energy   TEWEN  =    -37688.82955180
  -Hartree energ DENC   =    -18330.69507966
  -exchange      EXHF   =         0.00000000
  -V(xc)+E(xc)   XCENC  =      2608.32931449
  PAW double counting   =     52445.99684358   -54460.66850171
  entropy T*S    EENTRO =        -0.03873109
  eigenvalues    EBANDS =     -2520.91227004
  atomic energy  EATOM  =     55350.83220507
  Solvation  Ediel_sol  =         0.00000000
  ---------------------------------------------------
  free energy    TOTEN  =      -618.66894245 eV

  energy without entropy =     -618.63021136  energy(sigma->0) =     -618.64957691


--------------------------------------------------------------------------------------------------------




--------------------------------------- Iteration      1(   8)  ---------------------------------------


    POTLOK:  cpu time    0.2175: real time    0.2180
    SETDIJ:  cpu time    0.0293: real time    0.0293
     EDDAV:  cpu time    5.5888: real time    5.6020
    CHARGE:  cpu time    0.3272: real time    0.3280
    MIXING:  cpu time    0.0051: real time    0.0051
    --------------------------------------------
      LOOP:  cpu time    6.1678: real time    6.1825

 eigenvalue-minimisations  :  2528
 total energy-change (2. order) : 0.3373995E+02  (-0.2030136E+02)
 number of electron     638.9999937 magnetization      52.9827358
 augmentation part      210.6642035 magnetization      49.6630013

 Broyden mixing:
  rms(total) = 0.53438E+01    rms(broyden)= 0.53425E+01
  rms(prec ) = 0.56975E+01
  weight for this iteration     100.00

 eigenvalues of (default mixing * dielectric matrix)
  average eigenvalue GAMMA=   0.5301
  0.6319  0.6319  0.3264

 Free energy of the ion-electron system (eV)
  ---------------------------------------------------
  alpha Z        PSCENC =      1977.31682871
  Ewald energy   TEWEN  =    -37688.82955180
  -Hartree energ DENC   =    -18371.09711354
  -exchange      EXHF   =         0.00000000
  -V(xc)+E(xc)   XCENC  =      2586.17888351
  PAW double counting   =     54574.56871850   -56698.74099312
  entropy T*S    EENTRO =        -0.03806922
  eigenvalues    EBANDS =     -2315.11990448
  atomic energy  EATOM  =     55350.83220507
  Solvation  Ediel_sol  =         0.00000000
  ---------------------------------------------------
  free energy    TOTEN  =      -584.92899636 eV

  energy without entropy =     -584.89092714  energy(sigma->0) =     -584.90996175


--------------------------------------------------------------------------------------------------------




--------------------------------------- Iteration      1(   9)  ---------------------------------------


    POTLOK:  cpu time    0.2171: real time    0.2177
    SETDIJ:  cpu time    0.0290: real time    0.0290
     EDDAV:  cpu time    5.5845: real time    5.5977
    CHARGE:  cpu time    0.3236: real time    0.3244
    MIXING:  cpu time    0.0054: real time    0.0054
    --------------------------------------------
      LOOP:  cpu time    6.1597: real time    6.1742

 eigenvalue-minimisations  :  2528
 total energy-change (2. order) : 0.3413570E+01  (-0.8609749E+01)
 number of electron     638.9999937 magnetization      45.6355402
 augmentation part      211.4041698 magnetization      40.9109190

 Broyden mixing:
  rms(total) = 0.42517E+01    rms(broyden)= 0.42511E+01
  rms(prec ) = 0.46604E+01
  weight for this iteration     100.00

 eigenvalues of (default mixing * dielectric matrix)
  average eigenvalue GAMMA=   0.5803
  0.7993  0.7993  0.3613  0.3613

 Free energy of the ion-electron system (eV)
  ---------------------------------------------------
  alpha Z        PSCENC =      1977.31682871
  Ewald energy   TEWEN  =    -37688.82955180
  -Hartree energ DENC   =    -18337.39391252
  -exchange      EXHF   =         0.00000000
  -V(xc)+E(xc)   XCENC  =      2582.86560743
  PAW double counting   =     55683.13622345   -57823.17291563
  entropy T*S    EENTRO =        -0.06599469
  eigenvalues    EBANDS =     -2326.20391638
  atomic energy  EATOM  =     55350.83220507
  Solvation  Ediel_sol  =         0.00000000
  ---------------------------------------------------
  free energy    TOTEN  =      -581.51542636 eV

  energy without entropy =     -581.44943167  energy(sigma->0) =     -581.48242902


--------------------------------------------------------------------------------------------------------




--------------------------------------- Iteration      1(  10)  ---------------------------------------


    POTLOK:  cpu time    0.2172: real time    0.2177
    SETDIJ:  cpu time    0.0292: real time    0.0293
     EDDAV:  cpu time    5.3872: real time    5.3999
    CHARGE:  cpu time    0.3321: real time    0.3328
    MIXING:  cpu time    0.0054: real time    0.0054
    --------------------------------------------
      LOOP:  cpu time    5.9710: real time    5.9851

 eigenvalue-minimisations  :  2416
 total energy-change (2. order) :-0.4594412E+01  (-0.4733800E+01)
 number of electron     638.9999951 magnetization      40.4327488
 augmentation part      212.0750841 magnetization      31.0587798

 Broyden mixing:
  rms(total) = 0.82033E+01    rms(broyden)= 0.82026E+01
  rms(prec ) = 0.96857E+01
  weight for this iteration     100.00

 eigenvalues of (default mixing * dielectric matrix)
  average eigenvalue GAMMA=   0.5573
  1.2049  0.4764  0.4764  0.4876  0.1412

 Free energy of the ion-electron system (eV)
  ---------------------------------------------------
  alpha Z        PSCENC =      1977.31682871
  Ewald energy   TEWEN  =    -37688.82955180
  -Hartree energ DENC   =    -18315.98006227
  -exchange      EXHF   =         0.00000000
  -V(xc)+E(xc)   XCENC  =      2583.53941965
  PAW double counting   =     57032.87463444   -59182.28938611
  entropy T*S    EENTRO =        -0.08984193
  eigenvalues    EBANDS =     -2343.48408446
  atomic energy  EATOM  =     55350.83220507
  Solvation  Ediel_sol  =         0.00000000
  ---------------------------------------------------
  free energy    TOTEN  =      -586.10983870 eV

  energy without entropy =     -586.01999677  energy(sigma->0) =     -586.06491773


--------------------------------------------------------------------------------------------------------




--------------------------------------- Iteration      1(  11)  ---------------------------------------


    POTLOK:  cpu time    0.2181: real time    0.2186
    SETDIJ:  cpu time    0.0292: real time    0.0293
     EDDAV:  cpu time    5.2749: real time    5.2873
    CHARGE:  cpu time    0.3239: real time    0.3246
    MIXING:  cpu time    0.0056: real time    0.0056
    --------------------------------------------
      LOOP:  cpu time    5.8516: real time    5.8655

 eigenvalue-minimisations  :  2352
 total energy-change (2. order) : 0.8655560E+01  (-0.6171895E+01)
 number of electron     638.9999935 magnetization      37.0890899
 augmentation part      212.3055075 magnetization      30.5160703

 Broyden mixing:
  rms(total) = 0.37772E+01    rms(broyden)= 0.37764E+01
  rms(prec ) = 0.41980E+01
  weight for this iteration     100.00

 eigenvalues of (default mixing * dielectric matrix)
  average eigenvalue GAMMA=   0.5631
  1.4210  0.5183  0.5183  0.4910  0.3113  0.1186

 Free energy of the ion-electron system (eV)
  ---------------------------------------------------
  alpha Z        PSCENC =      1977.31682871
  Ewald energy   TEWEN  =    -37688.82955180
  -Hartree energ DENC   =    -18348.51967324
  -exchange      EXHF   =         0.00000000
  -V(xc)+E(xc)   XCENC  =      2585.02129594
  PAW double counting   =     58179.83880946   -60353.10834710
  entropy T*S    EENTRO =        -0.03964534
  eigenvalues    EBANDS =     -2279.96620043
  atomic energy  EATOM  =     55350.83220507
  Solvation  Ediel_sol  =         0.00000000
  ---------------------------------------------------
  free energy    TOTEN  =      -577.45427874 eV

  energy without entropy =     -577.41463340  energy(sigma->0) =     -577.43445607


--------------------------------------------------------------------------------------------------------




--------------------------------------- Iteration      1(  12)  ---------------------------------------


    POTLOK:  cpu time    0.2171: real time    0.2176
    SETDIJ:  cpu time    0.0291: real time    0.0292
     EDDAV:  cpu time    4.9613: real time    4.9730
    CHARGE:  cpu time    0.3243: real time    0.3251
    MIXING:  cpu time    0.0061: real time    0.0061
    --------------------------------------------
      LOOP:  cpu time    5.5380: real time    5.5510

 eigenvalue-minimisations  :  2176
 total energy-change (2. order) : 0.2443399E+01  (-0.1567912E+01)
 number of electron     638.9999936 magnetization      31.4522159
 augmentation part      211.9970065 magnetization      24.8454848

 Broyden mixing:
  rms(total) = 0.25251E+01    rms(broyden)= 0.25243E+01
  rms(prec ) = 0.26731E+01
  weight for this iteration     100.00

 eigenvalues of (default mixing * dielectric matrix)
  average eigenvalue GAMMA=   0.5886
  1.8768  0.5491  0.5491  0.4123  0.4123  0.2063  0.1148

 Free energy of the ion-electron system (eV)
  ---------------------------------------------------
  alpha Z        PSCENC =      1977.31682871
  Ewald energy   TEWEN  =    -37688.82955180
  -Hartree energ DENC   =    -18370.86429254
  -exchange      EXHF   =         0.00000000
  -V(xc)+E(xc)   XCENC  =      2585.13570819
  PAW double counting   =     58791.76703842   -60982.41914833
  entropy T*S    EENTRO =        -0.02025581
  eigenvalues    EBANDS =     -2237.92941176
  atomic energy  EATOM  =     55350.83220507
  Solvation  Ediel_sol  =         0.00000000
  ---------------------------------------------------
  free energy    TOTEN  =      -575.01087985 eV

  energy without entropy =     -574.99062404  energy(sigma->0) =     -575.00075194


--------------------------------------------------------------------------------------------------------




--------------------------------------- Iteration      1(  13)  ---------------------------------------


    POTLOK:  cpu time    0.2174: real time    0.2179
    SETDIJ:  cpu time    0.0291: real time    0.0291
     EDDAV:  cpu time    5.1872: real time    5.1995
    CHARGE:  cpu time    0.3279: real time    0.3287
    MIXING:  cpu time    0.0062: real time    0.0062
    --------------------------------------------
      LOOP:  cpu time    5.7677: real time    5.7814

 eigenvalue-minimisations  :  2304
 total energy-change (2. order) :-0.1198331E+01  (-0.5016784E+00)
 number of electron     638.9999935 magnetization      28.9004145
 augmentation part      211.6475895 magnetization      22.5295210

 Broyden mixing:
  rms(total) = 0.17359E+01    rms(broyden)= 0.17356E+01
  rms(prec ) = 0.18413E+01
  weight for this iteration     100.00

 eigenvalues of (default mixing * dielectric matrix)
  average eigenvalue GAMMA=   0.5929
  1.9754  0.5766  0.5766  0.4566  0.4566  0.4101  0.1731  0.1184

 Free energy of the ion-electron system (eV)
  ---------------------------------------------------
  alpha Z        PSCENC =      1977.31682871
  Ewald energy   TEWEN  =    -37688.82955180
  -Hartree energ DENC   =    -18392.12698737
  -exchange      EXHF   =         0.00000000
  -V(xc)+E(xc)   XCENC  =      2585.07899953
  PAW double counting   =     59694.01091715   -61900.59690699
  entropy T*S    EENTRO =        -0.07745564
  eigenvalues    EBANDS =     -2201.81725926
  atomic energy  EATOM  =     55350.83220507
  Solvation  Ediel_sol  =         0.00000000
  ---------------------------------------------------
  free energy    TOTEN  =      -576.20921060 eV

  energy without entropy =     -576.13175496  energy(sigma->0) =     -576.17048278


--------------------------------------------------------------------------------------------------------




--------------------------------------- Iteration      1(  14)  ---------------------------------------


    POTLOK:  cpu time    0.2171: real time    0.2176
    SETDIJ:  cpu time    0.0290: real time    0.0291
     EDDAV:  cpu time    5.2730: real time    5.2854
    CHARGE:  cpu time    0.3271: real time    0.3278
    MIXING:  cpu time    0.0064: real time    0.0064
    --------------------------------------------
      LOOP:  cpu time    5.8525: real time    5.8663

 eigenvalue-minimisations  :  2352
 total energy-change (2. order) :-0.2948844E+01  (-0.5135916E+00)
 number of electron     638.9999935 magnetization      24.3823997
 augmentation part      211.4399150 magnetization      18.4081474

 Broyden mixing:
  rms(total) = 0.19175E+01    rms(broyden)= 0.19173E+01
  rms(prec ) = 0.20930E+01
  weight for this iteration     100.00

 eigenvalues of (default mixing * dielectric matrix)
  average eigenvalue GAMMA=   0.6227
  2.1834  0.7444  0.7444  0.5069  0.5069  0.4241  0.1174  0.1884  0.1884

 Free energy of the ion-electron system (eV)
  ---------------------------------------------------
  alpha Z        PSCENC =      1977.31682871
  Ewald energy   TEWEN  =    -37688.82955180
  -Hartree energ DENC   =    -18402.91786769
  -exchange      EXHF   =         0.00000000
  -V(xc)+E(xc)   XCENC  =      2584.55255850
  PAW double counting   =     59982.29789826   -62193.10479554
  entropy T*S    EENTRO =        -0.05812625
  eigenvalues    EBANDS =     -2189.24720417
  atomic energy  EATOM  =     55350.83220507
  Solvation  Ediel_sol  =         0.00000000
  ---------------------------------------------------
  free energy    TOTEN  =      -579.15805491 eV

  energy without entropy =     -579.09992866  energy(sigma->0) =     -579.12899178


--------------------------------------------------------------------------------------------------------




--------------------------------------- Iteration      1(  15)  ---------------------------------------


    POTLOK:  cpu time    0.2173: real time    0.2178
    SETDIJ:  cpu time    0.0289: real time    0.0290
     EDDAV:  cpu time    5.2141: real time    5.2264
    CHARGE:  cpu time    0.3273: real time    0.3281
    MIXING:  cpu time    0.0068: real time    0.0068
    --------------------------------------------
      LOOP:  cpu time    5.7944: real time    5.8081

 eigenvalue-minimisations  :  2320
 total energy-change (2. order) :-0.3079051E+01  (-0.5151685E+00)
 number of electron     638.9999935 magnetization      22.0795724
 augmentation part      211.3845845 magnetization      16.2053676

 Broyden mixing:
  rms(total) = 0.11973E+01    rms(broyden)= 0.11970E+01
  rms(prec ) = 0.12836E+01
  weight for this iteration     100.00

 eigenvalues of (default mixing * dielectric matrix)
  average eigenvalue GAMMA=   0.6539
  2.2799  0.9257  0.9257  0.5258  0.5258  0.4417  0.4417  0.1176  0.1816  0.1734

 Free energy of the ion-electron system (eV)
  ---------------------------------------------------
  alpha Z        PSCENC =      1977.31682871
  Ewald energy   TEWEN  =    -37688.82955180
  -Hartree energ DENC   =    -18416.37489409
  -exchange      EXHF   =         0.00000000
  -V(xc)+E(xc)   XCENC  =      2583.75658487
  PAW double counting   =     60444.64740960   -62660.85945557
  entropy T*S    EENTRO =        -0.04542494
  eigenvalues    EBANDS =     -2172.68080792
  atomic energy  EATOM  =     55350.83220507
  Solvation  Ediel_sol  =         0.00000000
  ---------------------------------------------------
  free energy    TOTEN  =      -582.23710606 eV

  energy without entropy =     -582.19168112  energy(sigma->0) =     -582.21439359


--------------------------------------------------------------------------------------------------------




--------------------------------------- Iteration      1(  16)  ---------------------------------------


    POTLOK:  cpu time    0.2176: real time    0.2181
    SETDIJ:  cpu time    0.0289: real time    0.0290
     EDDAV:  cpu time    5.2338: real time    5.2461
    CHARGE:  cpu time    0.3268: real time    0.3276
    MIXING:  cpu time    0.0071: real time    0.0071
    --------------------------------------------
      LOOP:  cpu time    5.8141: real time    5.8279

 eigenvalue-minimisations  :  2336
 total energy-change (2. order) :-0.2672275E+01  (-0.3539292E+00)
 number of electron     638.9999935 magnetization      19.9730595
 augmentation part      211.5493345 magnetization      14.4858832

 Broyden mixing:
  rms(total) = 0.11253E+01    rms(broyden)= 0.11252E+01
  rms(prec ) = 0.12295E+01
  weight for this iteration     100.00

 eigenvalues of (default mixing * dielectric matrix)
  average eigenvalue GAMMA=   0.6576
  2.3760  1.0605  1.0605  0.5368  0.5368  0.4754  0.4754  0.2440  0.1175  0.1877
  0.1627

 Free energy of the ion-electron system (eV)
  ---------------------------------------------------
  alpha Z        PSCENC =      1977.31682871
  Ewald energy   TEWEN  =    -37688.82955180
  -Hartree energ DENC   =    -18410.44066097
  -exchange      EXHF   =         0.00000000
  -V(xc)+E(xc)   XCENC  =      2582.62774209
  PAW double counting   =     60523.26070228   -62737.65697809
  entropy T*S    EENTRO =        -0.04660588
  eigenvalues    EBANDS =     -2181.97306245
  atomic energy  EATOM  =     55350.83220507
  Solvation  Ediel_sol  =         0.00000000
  ---------------------------------------------------
  free energy    TOTEN  =      -584.90938104 eV

  energy without entropy =     -584.86277515  energy(sigma->0) =     -584.88607810


--------------------------------------------------------------------------------------------------------




--------------------------------------- Iteration      1(  17)  ---------------------------------------


    POTLOK:  cpu time    0.2173: real time    0.2178
    SETDIJ:  cpu time    0.0290: real time    0.0291
     EDDAV:  cpu time    5.1213: real time    5.1334
    CHARGE:  cpu time    0.3260: real time    0.3268
    MIXING:  cpu time    0.0074: real time    0.0074
    --------------------------------------------
      LOOP:  cpu time    5.7010: real time    5.7145

 eigenvalue-minimisations  :  2272
 total energy-change (2. order) :-0.1400686E+01  (-0.2937982E+00)
 number of electron     638.9999935 magnetization      18.1198848
 augmentation part      211.4794248 magnetization      12.9610000

 Broyden mixing:
  rms(total) = 0.65734E+00    rms(broyden)= 0.65717E+00
  rms(prec ) = 0.71747E+00
  weight for this iteration     100.00

 eigenvalues of (default mixing * dielectric matrix)
  average eigenvalue GAMMA=   0.6894
  2.5869  1.1203  1.1203  0.6345  0.6345  0.5408  0.5408  0.4347  0.1175  0.1979
  0.1725  0.1725

 Free energy of the ion-electron system (eV)
  ---------------------------------------------------
  alpha Z        PSCENC =      1977.31682871
  Ewald energy   TEWEN  =    -37688.82955180
  -Hartree energ DENC   =    -18407.56568053
  -exchange      EXHF   =         0.00000000
  -V(xc)+E(xc)   XCENC  =      2581.96818429
  PAW double counting   =     60598.77752238   -62813.07867691
  entropy T*S    EENTRO =        -0.01526104
  eigenvalues    EBANDS =     -2185.71563709
  atomic energy  EATOM  =     55350.83220507
  Solvation  Ediel_sol  =         0.00000000
  ---------------------------------------------------
  free energy    TOTEN  =      -586.31006692 eV

  energy without entropy =     -586.29480588  energy(sigma->0) =     -586.30243640


--------------------------------------------------------------------------------------------------------




--------------------------------------- Iteration      1(  18)  ---------------------------------------


    POTLOK:  cpu time    0.2175: real time    0.2180
    SETDIJ:  cpu time    0.0289: real time    0.0289
     EDDAV:  cpu time    5.1753: real time    5.1875
    CHARGE:  cpu time    0.3262: real time    0.3269
    MIXING:  cpu time    0.0078: real time    0.0078
    --------------------------------------------
      LOOP:  cpu time    5.7556: real time    5.7692

 eigenvalue-minimisations  :  2304
 total energy-change (2. order) :-0.5872944E+00  (-0.1215482E+00)
 number of electron     638.9999935 magnetization      17.2679229
 augmentation part      211.6532989 magnetization      12.4329008

 Broyden mixing:
  rms(total) = 0.31687E+00    rms(broyden)= 0.31681E+00
  rms(prec ) = 0.35032E+00
  weight for this iteration     100.00

 eigenvalues of (default mixing * dielectric matrix)
  average eigenvalue GAMMA=   0.7208
  2.7460  1.5578  0.8857  0.8857  0.5307  0.5307  0.5614  0.5614  0.4525  0.1175
  0.1690  0.1911  0.1811

 Free energy of the ion-electron system (eV)
  ---------------------------------------------------
  alpha Z        PSCENC =      1977.31682871
  Ewald energy   TEWEN  =    -37688.82955180
  -Hartree energ DENC   =    -18395.75439326
  -exchange      EXHF   =         0.00000000
  -V(xc)+E(xc)   XCENC  =      2581.32560704
  PAW double counting   =     60584.40362740   -62796.28002036
  entropy T*S    EENTRO =        -0.02875661
  eigenvalues    EBANDS =     -2199.88290750
  atomic energy  EATOM  =     55350.83220507
  Solvation  Ediel_sol  =         0.00000000
  ---------------------------------------------------
  free energy    TOTEN  =      -586.89736130 eV

  energy without entropy =     -586.86860469  energy(sigma->0) =     -586.88298300


--------------------------------------------------------------------------------------------------------




--------------------------------------- Iteration      1(  19)  ---------------------------------------


    POTLOK:  cpu time    0.2171: real time    0.2177
    SETDIJ:  cpu time    0.0290: real time    0.0291
     EDDAV:  cpu time    5.1167: real time    5.1287
    CHARGE:  cpu time    0.3266: real time    0.3274
    MIXING:  cpu time    0.0077: real time    0.0077
    --------------------------------------------
      LOOP:  cpu time    5.6972: real time    5.7107

 eigenvalue-minimisations  :  2272
 total energy-change (2. order) :-0.7580575E-01  (-0.3395155E-01)
 number of electron     638.9999935 magnetization      16.5707026
 augmentation part      211.6084048 magnetization      11.8355013

 Broyden mixing:
  rms(total) = 0.45127E+00    rms(broyden)= 0.45121E+00
  rms(prec ) = 0.50068E+00
  weight for this iteration     100.00

 eigenvalues of (default mixing * dielectric matrix)
  average eigenvalue GAMMA=   0.7284
  2.8883  1.7805  0.9893  0.9893  0.5962  0.5962  0.5338  0.5338  0.4472  0.1175
  0.2024  0.1854  0.1685  0.1685

 Free energy of the ion-electron system (eV)
  ---------------------------------------------------
  alpha Z        PSCENC =      1977.31682871
  Ewald energy   TEWEN  =    -37688.82955180
  -Hartree energ DENC   =    -18393.58140804
  -exchange      EXHF   =         0.00000000
  -V(xc)+E(xc)   XCENC  =      2581.21285735
  PAW double counting   =     60572.31797645   -62783.88120218
  entropy T*S    EENTRO =        -0.02986081
  eigenvalues    EBANDS =     -2202.33101182
  atomic energy  EATOM  =     55350.83220507
  Solvation  Ediel_sol  =         0.00000000
  ---------------------------------------------------
  free energy    TOTEN  =      -586.97316705 eV

  energy without entropy =     -586.94330625  energy(sigma->0) =     -586.95823665


--------------------------------------------------------------------------------------------------------




--------------------------------------- Iteration      1(  20)  ---------------------------------------


    POTLOK:  cpu time    0.2171: real time    0.2176
    SETDIJ:  cpu time    0.0290: real time    0.0291
     EDDAV:  cpu time    5.1765: real time    5.1887
    CHARGE:  cpu time    0.3269: real time    0.3277
    MIXING:  cpu time    0.0082: real time    0.0082
    --------------------------------------------
      LOOP:  cpu time    5.7577: real time    5.7713

 eigenvalue-minimisations  :  2304
 total energy-change (2. order) : 0.3641235E-01  (-0.1569585E-01)
 number of electron     638.9999935 magnetization      15.9475664
 augmentation part      211.6176770 magnetization      11.2832355

 Broyden mixing:
  rms(total) = 0.17950E+00    rms(broyden)= 0.17943E+00
  rms(prec ) = 0.19578E+00
  weight for this iteration     100.00

 eigenvalues of (default mixing * dielectric matrix)
  average eigenvalue GAMMA=   0.7647
  2.9430  2.0687  1.1286  1.1286  0.6626  0.6626  0.5336  0.5336  0.5153  0.4506
  0.1175  0.1953  0.1688  0.1806  0.1806

 Free energy of the ion-electron system (eV)
  ---------------------------------------------------
  alpha Z        PSCENC =      1977.31682871
  Ewald energy   TEWEN  =    -37688.82955180
  -Hartree energ DENC   =    -18391.50911873
  -exchange      EXHF   =         0.00000000
  -V(xc)+E(xc)   XCENC  =      2581.12557870
  PAW double counting   =     60550.69647660   -62761.82171974
  entropy T*S    EENTRO =        -0.02702717
  eigenvalues    EBANDS =     -2204.72042636
  atomic energy  EATOM  =     55350.83220507
  Solvation  Ediel_sol  =         0.00000000
  ---------------------------------------------------
  free energy    TOTEN  =      -586.93675471 eV

  energy without entropy =     -586.90972753  energy(sigma->0) =     -586.92324112


--------------------------------------------------------------------------------------------------------




--------------------------------------- Iteration      1(  21)  ---------------------------------------


    POTLOK:  cpu time    0.2179: real time    0.2184
    SETDIJ:  cpu time    0.0289: real time    0.0289
     EDDAV:  cpu time    5.5909: real time    5.6041
    CHARGE:  cpu time    0.3265: real time    0.3273
    MIXING:  cpu time    0.0086: real time    0.0086
    --------------------------------------------
      LOOP:  cpu time    6.1728: real time    6.1874

 eigenvalue-minimisations  :  2528
 total energy-change (2. order) :-0.1990239E-02  (-0.3394526E-02)
 number of electron     638.9999935 magnetization      15.5295879
 augmentation part      211.6346455 magnetization      10.9177905

 Broyden mixing:
  rms(total) = 0.85758E-01    rms(broyden)= 0.85743E-01
  rms(prec ) = 0.90689E-01
  weight for this iteration     100.00

 eigenvalues of (default mixing * dielectric matrix)
  average eigenvalue GAMMA=   0.8018
  3.1648  2.1488  1.2686  1.2686  0.7583  0.7583  0.5340  0.5340  0.5549  0.5549
  0.4420  0.1175  0.1956  0.1689  0.1785  0.1810

 Free energy of the ion-electron system (eV)
  ---------------------------------------------------
  alpha Z        PSCENC =      1977.31682871
  Ewald energy   TEWEN  =    -37688.82955180
  -Hartree energ DENC   =    -18390.82932521
  -exchange      EXHF   =         0.00000000
  -V(xc)+E(xc)   XCENC  =      2581.09871747
  PAW double counting   =     60527.43598244   -62738.13893083
  entropy T*S    EENTRO =        -0.02950099
  eigenvalues    EBANDS =     -2205.79516981
  atomic energy  EATOM  =     55350.83220507
  Solvation  Ediel_sol  =         0.00000000
  ---------------------------------------------------
  free energy    TOTEN  =      -586.93874495 eV

  energy without entropy =     -586.90924396  energy(sigma->0) =     -586.92399445


--------------------------------------------------------------------------------------------------------




--------------------------------------- Iteration      1(  22)  ---------------------------------------


    POTLOK:  cpu time    0.2174: real time    0.2179
    SETDIJ:  cpu time    0.0286: real time    0.0287
     EDDAV:  cpu time    4.8480: real time    4.8594
    CHARGE:  cpu time    0.3263: real time    0.3271
    MIXING:  cpu time    0.0085: real time    0.0085
    --------------------------------------------
      LOOP:  cpu time    5.4288: real time    5.4416

 eigenvalue-minimisations  :  2112
 total energy-change (2. order) :-0.5147785E-02  (-0.1342793E-02)
 number of electron     638.9999935 magnetization      15.2923605
 augmentation part      211.6356060 magnetization      10.6981998

 Broyden mixing:
  rms(total) = 0.70017E-01    rms(broyden)= 0.70012E-01
  rms(prec ) = 0.75855E-01
  weight for this iteration     100.00

 eigenvalues of (default mixing * dielectric matrix)
  average eigenvalue GAMMA=   0.8276
  3.2498  2.2944  1.4016  1.4016  0.8377  0.8377  0.5346  0.5346  0.5858  0.5858
  0.5153  0.4482  0.1175  0.1953  0.1689  0.1791  0.1805

 Free energy of the ion-electron system (eV)
  ---------------------------------------------------
  alpha Z        PSCENC =      1977.31682871
  Ewald energy   TEWEN  =    -37688.82955180
  -Hartree energ DENC   =    -18390.97876076
  -exchange      EXHF   =         0.00000000
  -V(xc)+E(xc)   XCENC  =      2581.11143498
  PAW double counting   =     60518.29351110   -62728.90199139
  entropy T*S    EENTRO =        -0.02979434
  eigenvalues    EBANDS =     -2205.75777431
  atomic energy  EATOM  =     55350.83220507
  Solvation  Ediel_sol  =         0.00000000
  ---------------------------------------------------
  free energy    TOTEN  =      -586.94389273 eV

  energy without entropy =     -586.91409839  energy(sigma->0) =     -586.92899556


--------------------------------------------------------------------------------------------------------




--------------------------------------- Iteration      1(  23)  ---------------------------------------


    POTLOK:  cpu time    0.2173: real time    0.2178
    SETDIJ:  cpu time    0.0287: real time    0.0288
     EDDAV:  cpu time    5.2209: real time    5.2333
    CHARGE:  cpu time    0.3264: real time    0.3271
    MIXING:  cpu time    0.0088: real time    0.0088
    --------------------------------------------
      LOOP:  cpu time    5.8022: real time    5.8159

 eigenvalue-minimisations  :  2320
 total energy-change (2. order) :-0.3776967E-03  (-0.3545698E-03)
 number of electron     638.9999935 magnetization      15.1110990
 augmentation part      211.6219513 magnetization      10.5258403

 Broyden mixing:
  rms(total) = 0.31816E-01    rms(broyden)= 0.31807E-01
  rms(prec ) = 0.33893E-01
  weight for this iteration     100.00

 eigenvalues of (default mixing * dielectric matrix)
  average eigenvalue GAMMA=   0.8544
  3.4725  2.1935  1.5324  1.5324  0.9570  0.9570  0.5343  0.5343  0.6468  0.6468
  0.5441  0.5441  0.4433  0.1175  0.1953  0.1689  0.1806  0.1791

 Free energy of the ion-electron system (eV)
  ---------------------------------------------------
  alpha Z        PSCENC =      1977.31682871
  Ewald energy   TEWEN  =    -37688.82955180
  -Hartree energ DENC   =    -18390.73915807
  -exchange      EXHF   =         0.00000000
  -V(xc)+E(xc)   XCENC  =      2581.08970249
  PAW double counting   =     60507.39071303   -62717.96286841
  entropy T*S    EENTRO =        -0.03133818
  eigenvalues    EBANDS =     -2206.01080328
  atomic energy  EATOM  =     55350.83220507
[...]
   -.135E+02 -.408E+02 0.320E+03   0.145E+02 0.433E+02 -.339E+03   -.977E+00 -.251E+01 0.192E+02   -.687E-03 0.195E-01 0.486E-02
 -----------------------------------------------------------------------------------------------
   -.293E-02 0.242E-02 0.173E-02   0.586E-13 0.362E-12 -.227E-12   0.255E-14 0.133E-14 0.000E+00   -.591E-06 -.386E-06 -.489E-06
 
 
 POSITION                                       TOTAL-FORCE (eV/Angst)
 -----------------------------------------------------------------------------------
      8.45667      0.01383      7.12417        -0.010568      0.012315      0.006690
      1.40424      0.83043     11.93635        -0.005381      0.015310     -0.006690
      0.09353      1.46745      2.38256        -0.002352      0.004074     -0.000000
     -1.32259      2.63779      7.15304        -0.002863      0.016534     -0.002954
     -0.21196      3.27901     11.90748        -0.012887      0.010746      0.002954
     -1.32259      7.13886      7.14235        -0.002863     -0.016534      0.002954
      4.32694      0.97672     11.91282        -0.002352     -0.004074     -0.000000
      1.42819      4.07172      2.40609         0.015949     -0.002995     -0.006690
      1.42819      5.70492     11.88930         0.015949      0.002995      0.006690
     -0.21196      6.49763      2.38791        -0.012887     -0.010746     -0.002954
      5.63765      1.61373      2.35904        -0.005381     -0.015310      0.006690
      4.22326      2.43033      7.17122        -0.010568     -0.012315     -0.006690
      4.35683      4.24710      2.37722         0.015750      0.005788      0.002954
      2.63522      4.88832      7.14769         0.004704      0.000000     -0.000000
      4.35683      5.52955     11.91817         0.015750     -0.005788     -0.002954
      8.43419      0.02108      0.00796        -0.007948     -0.001456     -0.004284
      1.40920      0.85352      4.75717         0.005235      0.006155      0.004284
     -0.00078      1.63079      9.53026         0.006525     -0.011302     -0.000000
     -1.42077      2.46655     14.28167         0.000598     -0.008102      0.008100
     -0.01457      3.27842      4.77884         0.006718     -0.004569     -0.008100
     -1.41598      4.08199      9.53026        -0.003928      0.006804     -0.000000
     -2.81259      4.88832     -0.00000         0.007857     -0.000000     -0.000000
     -1.41598      5.69466      4.76513        -0.003928     -0.006804     -0.000000
     -2.82746      6.52674      9.53026        -0.001051      0.001820     -0.000000
     -1.42077      7.31010      0.01372         0.000598      0.008102     -0.008100
      4.23263      0.81337      4.76513         0.006525      0.011302     -0.000000
      2.79147      1.63325      9.50852        -0.005279      0.008179      0.000692
      1.42984      2.46893     14.27364         0.009723      0.000482      0.000692
      2.83438      3.23030      4.74339        -0.004444     -0.008661      0.000692
      1.44571      4.05588      9.52230         0.002713     -0.007611      0.004284
      0.01036      4.88832     -0.00000         0.002102     -0.000000     -0.000000
      1.44571      5.72077      4.77309         0.002713      0.007611     -0.004284
     -0.01457      6.49823      9.51654         0.006718      0.004569      0.008100
      1.42984      7.30772      0.02174         0.009723     -0.000482     -0.000692
      7.02489      0.81091      4.78687        -0.005279     -0.008179     -0.000692
      5.64261      1.59064      9.53821         0.005235     -0.006155     -0.004284
      4.20078      2.42308     14.28743        -0.007948      0.001456      0.004284
      5.63937      3.24991      4.76513        -0.001051     -0.001820     -0.000000
      4.25762      4.07645      9.54397        -0.007316     -0.003533     -0.008100
      2.82384      4.88832     -0.00000        -0.013050      0.000000     -0.000000
      4.25762      5.70020      4.75141        -0.007316      0.003533      0.008100
      2.83438      6.54634      9.55200        -0.004444      0.008661     -0.000692
      0.03807      0.01165     10.53596        -0.005042     -0.005819     -0.009931
     -0.00544      0.10500      3.81767         0.003526     -0.002180      0.004800
      1.32293      0.87193      0.94746         0.000124     -0.004144     -0.004800
      1.38201      0.78758      8.52456         0.007561      0.001457      0.009931
     -0.11466      1.64590      5.79157         0.002984      0.001579     -0.008027
      0.04307      1.73697     13.26895        -0.002860     -0.001795      0.008027
     -1.34828      2.48090     10.49667        -0.003360      0.000950     -0.002514
      6.99213      2.37350      3.76205         0.002624     -0.001323      0.002251
      0.09298      3.27860      1.00308        -0.000166     -0.002934     -0.002251
     -0.06325      3.22282      8.56384         0.000857      0.003385      0.002514
     -1.41764      4.04422      5.71425         0.003459      0.002519     -0.007781
     -1.38244      4.06455     13.34626        -0.003911     -0.001736      0.007781
      5.62236      4.90865     10.47938         0.000452     -0.004255     -0.007781
      5.62236      4.86800      3.81600         0.000452      0.004255      0.007781
     -1.38244      5.71210      0.94912        -0.003911      0.001736     -0.007781
     -1.41764      5.73242      8.58113         0.003459     -0.002519      0.007781
     -2.81150      6.58504      5.73665        -0.000621      0.000029      0.000105
     -2.88592      6.54207     13.32386         0.000285      0.000552     -0.000105
      2.75871      0.07066     10.53334         0.002624      0.001323     -0.002251
     -1.34828      7.29575      3.79871        -0.003360     -0.000950      0.002514
      4.27649      0.70719      1.02644        -0.002860      0.001795     -0.008027
      4.11875      0.79826      8.50382         0.002984     -0.001579      0.008027
      2.84878      1.61319      5.73730        -0.000254      0.000205     -0.001566
      2.81299      1.55816     13.32070         0.000870      0.007577      0.003882
      1.38381      2.42933     10.50243         0.000304      0.000117     -0.001566
      1.35405      2.48785      3.79044         0.006127     -0.004541      0.003882
      2.82310      3.28997      0.97217        -0.000050     -0.000322     -0.001566
      2.88865      3.28648      8.55557        -0.006996     -0.003035      0.003882
      1.50479      4.12139      5.71259        -0.003651      0.001964     -0.004800
      1.40219      4.11240     13.28969        -0.002518     -0.007276      0.009931
      0.05288      4.84536     10.50178         0.000336      0.000523      0.000105
      0.05288      4.93129      3.79361         0.000336     -0.000523     -0.000105
      1.40219      5.66425      1.00570        -0.002518      0.007276     -0.009931
      1.50479      5.65526      8.58279        -0.003651     -0.001964      0.004800
     -0.06325      6.55383      5.73155         0.000857     -0.003385     -0.002514
      0.09298      6.49805     13.29231        -0.000166      0.002934      0.002251
      1.35405      7.28880     10.50494         0.006127      0.004541     -0.003882
      5.61722      0.01483      3.79296         0.000304     -0.000117      0.001566
      7.04640      0.88601      0.97469         0.000870     -0.007577     -0.003882
      7.08220      0.83098      8.55809        -0.000254     -0.000205      0.001566
      5.61542      1.65659      5.77083         0.007561     -0.001457     -0.009931
      5.55634      1.57223     13.34792         0.000124      0.004144      0.004800
      4.22797      2.33916     10.47772         0.003526      0.002180     -0.004800
      4.27148      2.43251      3.75943        -0.005042      0.005819      0.009931
      5.58090      3.23457      0.97152         0.000285     -0.000552      0.000105
      5.65532      3.19161      8.55873        -0.000621     -0.000029     -0.000105
      4.20400      3.98323      5.76821        -0.002458      0.001611     -0.002251
      4.23380      4.14641     13.32897         0.002503     -0.002435      0.002514
      2.89386      4.97939     10.55670        -0.000124     -0.003374     -0.008027
      2.89386      4.79726      3.73869        -0.000124      0.003374      0.008027
      4.23380      5.63024      0.96642         0.002503      0.002435     -0.002514
      4.20400      5.79342      8.52718        -0.002458     -0.001611      0.002251
      2.88865      6.49017      5.73982        -0.006996      0.003035     -0.003882
      2.82310      6.48668     13.32322        -0.000050      0.000322      0.001566
 -----------------------------------------------------------------------------------
    total drift:                               -0.002935      0.002418      0.001733


--------------------------------------------------------------------------------------------------------



  FREE ENERGIE OF THE ION-ELECTRON SYSTEM (eV)
  ---------------------------------------------------
  free  energy   TOTEN  =      -586.9477668771 eV

  energy  without entropy=     -586.9156918310  energy(sigma->0) =     -586.93172935
 
 d Force = 0.8247086E-03[ 0.226E-03, 0.142E-02]  d Energy = 0.1095126E-02-0.270E-03
 d Force =-0.1356260E+02[-0.136E+02,-0.135E+02]  d Ewald  =-0.1347116E+02-0.914E-01


--------------------------------------------------------------------------------------------------------


    POTLOK:  cpu time    0.2475: real time    0.2481


--------------------------------------------------------------------------------------------------------


 Quasi-Newton relaxation of ions (Broydens 2nd method)
  g(Force)  = 0.434E-03   g(Stress)= 0.587E-03

 retain information from N=  1 steps
 eigenvalues of (default step * inverse Hessian matrix)
  average eigenvalue of G=   0.1916
 eigenvalue spectrum of G is  0.1916


--------------------------------------------------------------------------------------------------------


  
 reached required accuracy - stopping structural energy minimisation
     LOOP+:  cpu time   50.4564: real time   50.6747
    4ORBIT:  cpu time    0.0000: real time    0.0000

volume of typ            1:    13.2 %

volume of typ            2:    19.4 %

volume of typ            3:     9.9 %
 
total charge     
 
# of ion       s       p       d       tot
------------------------------------------
    1        2.073   0.239   0.090   2.403
    2        2.073   0.239   0.090   2.403
    3        2.076   0.248   0.094   2.418
    4        2.078   0.254   0.097   2.429
    5        2.078   0.254   0.097   2.429
    6        2.078   0.254   0.097   2.429
    7        2.076   0.248   0.094   2.418
    8        2.073   0.239   0.090   2.403
    9        2.073   0.239   0.090   2.403
   10        2.078   0.254   0.097   2.429
   11        2.073   0.239   0.090   2.403
   12        2.073   0.239   0.090   2.403
   13        2.078   0.254   0.097   2.429
   14        2.076   0.248   0.094   2.418
   15        2.078   0.254   0.097   2.429
   16        0.272   0.360   7.848   8.480
   17        0.272   0.360   7.848   8.480
   18        0.293   0.406   7.839   8.538
   19        0.270   0.356   7.848   8.473
   20        0.270   0.356   7.848   8.473
   21        0.280   0.378   7.835   8.492
   22        0.280   0.378   7.835   8.492
   23        0.280   0.378   7.835   8.492
   24        0.290   0.399   7.840   8.528
   25        0.270   0.356   7.848   8.473
   26        0.293   0.406   7.839   8.538
   27        0.288   0.394   7.839   8.521
   28        0.288   0.394   7.839   8.521
   29        0.288   0.394   7.839   8.521
   30        0.272   0.360   7.848   8.480
   31        0.290   0.399   7.840   8.528
   32        0.272   0.360   7.848   8.480
   33        0.270   0.356   7.848   8.473
   34        0.288   0.394   7.839   8.521
   35        0.288   0.394   7.839   8.521
   36        0.272   0.360   7.848   8.480
   37        0.272   0.360   7.848   8.480
   38        0.290   0.399   7.840   8.528
   39        0.270   0.356   7.848   8.473
   40        0.293   0.406   7.839   8.538
   41        0.270   0.356   7.848   8.473
   42        0.288   0.394   7.839   8.521
   43        1.268   2.767   0.006   4.041
   44        1.273   2.759   0.007   4.039
   45        1.273   2.759   0.007   4.039
   46        1.268   2.767   0.006   4.041
   47        1.267   2.769   0.006   4.042
   48        1.267   2.769   0.006   4.042
   49        1.275   2.755   0.007   4.036
   50        1.270   2.761   0.006   4.037
   51        1.270   2.761   0.006   4.037
   52        1.275   2.755   0.007   4.036
   53        1.269   2.767   0.007   4.044
   54        1.269   2.767   0.007   4.044
   55        1.269   2.767   0.007   4.044
   56        1.269   2.767   0.007   4.044
   57        1.269   2.767   0.007   4.044
   58        1.269   2.767   0.007   4.044
   59        1.266   2.772   0.006   4.045
   60        1.266   2.772   0.006   4.045
   61        1.270   2.761   0.006   4.037
   62        1.275   2.755   0.007   4.036
   63        1.267   2.769   0.006   4.042
   64        1.267   2.769   0.006   4.042
   65        1.266   2.773   0.007   4.046
   66        1.262   2.783   0.007   4.052
   67        1.266   2.773   0.007   4.046
   68        1.262   2.783   0.007   4.052
   69        1.266   2.773   0.007   4.046
   70        1.262   2.783   0.007   4.052
   71        1.273   2.759   0.007   4.039
   72        1.268   2.767   0.006   4.041
   73        1.266   2.772   0.006   4.045
   74        1.266   2.772   0.006   4.045
   75        1.268   2.767   0.006   4.041
   76        1.273   2.759   0.007   4.039
   77        1.275   2.755   0.007   4.036
   78        1.270   2.761   0.006   4.037
   79        1.262   2.783   0.007   4.052
   80        1.266   2.773   0.007   4.046
   81        1.262   2.783   0.007   4.052
   82        1.266   2.773   0.007   4.046
   83        1.268   2.767   0.006   4.041
   84        1.273   2.759   0.007   4.039
   85        1.273   2.759   0.007   4.039
   86        1.268   2.767   0.006   4.041
   87        1.266   2.772   0.006   4.045
   88        1.266   2.772   0.006   4.045
   89        1.270   2.761   0.006   4.037
   90        1.275   2.755   0.007   4.036
   91        1.267   2.769   0.006   4.042
   92        1.267   2.769   0.006   4.042
   93        1.275   2.755   0.007   4.036
   94        1.270   2.761   0.006   4.037
   95        1.262   2.783   0.007   4.052
   96        1.266   2.773   0.007   4.046
--------------------------------------------------
tot         107.20  163.35  213.50  484.06
 
magnetization (x)
 
# of ion       s       p       d       tot
------------------------------------------
    1        0.006   0.010   0.001   0.017
    2        0.006   0.010   0.001   0.017
    3        0.007   0.014   0.002   0.022
    4        0.006   0.013   0.001   0.021
    5        0.006   0.013   0.001   0.021
    6        0.006   0.013   0.001   0.021
    7        0.007   0.014   0.002   0.022
    8        0.006   0.010   0.001   0.017
    9        0.006   0.010   0.001   0.017
   10        0.006   0.013   0.001   0.021
   11        0.006   0.010   0.001   0.017
   12        0.006   0.010   0.001   0.017
   13        0.006   0.013   0.001   0.021
   14        0.007   0.014   0.002   0.022
   15        0.006   0.013   0.001   0.021
   16        0.001  -0.001   0.595   0.595
   17        0.001  -0.001   0.595   0.595
   18       -0.001  -0.000   0.171   0.170
   19        0.000  -0.001   0.609   0.609
   20        0.000  -0.001   0.609   0.609
   21       -0.001  -0.001   0.316   0.314
   22       -0.001  -0.001   0.316   0.314
   23       -0.001  -0.001   0.316   0.314
   24       -0.000  -0.001   0.231   0.230
   25        0.000  -0.001   0.609   0.609
   26       -0.001  -0.000   0.171   0.170
   27       -0.001  -0.001   0.230   0.229
   28       -0.001  -0.001   0.230   0.229
   29       -0.001  -0.001   0.230   0.229
   30        0.001  -0.001   0.595   0.595
   31       -0.000  -0.001   0.231   0.230
   32        0.001  -0.001   0.595   0.595
   33        0.000  -0.001   0.609   0.609
   34       -0.001  -0.001   0.230   0.229
   35       -0.001  -0.001   0.230   0.229
   36        0.001  -0.001   0.595   0.595
   37        0.001  -0.001   0.595   0.595
   38       -0.000  -0.001   0.231   0.230
   39        0.000  -0.001   0.609   0.609
   40       -0.001  -0.000   0.171   0.170
   41        0.000  -0.001   0.609   0.609
   42       -0.001  -0.001   0.230   0.229
   43        0.004   0.003   0.000   0.007
   44        0.011   0.088   0.000   0.099
   45        0.011   0.088   0.000   0.099
   46        0.004   0.003   0.000   0.007
   47        0.012   0.093   0.000   0.104
   48        0.012   0.093   0.000   0.104
   49        0.011   0.085   0.000   0.096
   50        0.010   0.068   0.000   0.078
   51        0.010   0.068   0.000   0.078
   52        0.011   0.085   0.000   0.096
   53        0.004   0.007   0.000   0.011
   54        0.004   0.007   0.000   0.011
   55        0.004   0.007   0.000   0.011
   56        0.004   0.007   0.000   0.011
   57        0.004   0.007   0.000   0.011
   58        0.004   0.007   0.000   0.011
   59        0.009   0.059   0.000   0.069
   60        0.009   0.059   0.000   0.069
   61        0.010   0.068   0.000   0.078
   62        0.011   0.085   0.000   0.096
   63        0.012   0.093   0.000   0.104
   64        0.012   0.093   0.000   0.104
   65        0.004   0.004   0.000   0.008
   66        0.005   0.009   0.000   0.014
   67        0.004   0.004   0.000   0.008
   68        0.005   0.009   0.000   0.014
   69        0.004   0.004   0.000   0.008
   70        0.005   0.009   0.000   0.014
   71        0.011   0.088   0.000   0.099
   72        0.004   0.003   0.000   0.007
   73        0.009   0.059   0.000   0.069
   74        0.009   0.059   0.000   0.069
   75        0.004   0.003   0.000   0.007
   76        0.011   0.088   0.000   0.099
   77        0.011   0.085   0.000   0.096
   78        0.010   0.068   0.000   0.078
   79        0.005   0.009   0.000   0.014
   80        0.004   0.004   0.000   0.008
   81        0.005   0.009   0.000   0.014
   82        0.004   0.004   0.000   0.008
   83        0.004   0.003   0.000   0.007
   84        0.011   0.088   0.000   0.099
   85        0.011   0.088   0.000   0.099
   86        0.004   0.003   0.000   0.007
   87        0.009   0.059   0.000   0.069
   88        0.009   0.059   0.000   0.069
   89        0.010   0.068   0.000   0.078
   90        0.011   0.085   0.000   0.096
   91        0.012   0.093   0.000   0.104
   92        0.012   0.093   0.000   0.104
   93        0.011   0.085   0.000   0.096
   94        0.010   0.068   0.000   0.078
   95        0.005   0.009   0.000   0.014
   96        0.004   0.004   0.000   0.008
--------------------------------------------------
tot           0.50    2.66   10.79   13.95
 

 total amount of memory used by VASP MPI-rank0   146106. kBytes
=======================================================================

   base      :      30000. kBytes
   nonlr-proj:      39724. kBytes
   fftplans  :       9349. kBytes
   grid      :      55332. kBytes
   one-center:       1492. kBytes
   wavefun   :      10209. kBytes
 
  
  
 General timing and accounting informations for this job:
 ========================================================
  
                  Total CPU time used (sec):      292.020
                            User time (sec):      288.193
                          System time (sec):        3.827
                         Elapsed time (sec):      298.051
  
                   Maximum memory used (kb):      198916.
                   Average memory used (kb):           0.
  
                          Minor page faults:        32526
                          Major page faults:           50
                 Voluntary context switches:          878
