 vasp.5.4.4.18Apr17-6-g9f103f2a35 (build May 12 2020 04:58:55) complex          
  
 MD_VERSION_INFO: Compiled 2020-05-12T11:58:55-UTC in devlin.sd.materialsdesign.
 com:/home/medea2/data/build/wwolf/vasp-gpu5.4.4/13047/x86_64/src/src/build/std 
 from svn 13047
 
 This VASP executable licensed from Materials Design, Inc.
 
 executed on                        Lin64 date 2023.04.26  20:23:55
 running on   16 total cores
 distrk:  each k-point on   16 cores,    1 groups
 distr:  one band on NCORES_PER_BAND=   1 cores,   16 groups


--------------------------------------------------------------------------------------------------------


 INCAR:
 POTCAR:    PAW_PBE Ni 02Aug2007                  
 POTCAR:    PAW_PBE O 08Apr2002                   

 ----------------------------------------------------------------------------- 
|                                                                             |
|           W    W    AA    RRRRR   N    N  II  N    N   GGGG   !!!           |
|           W    W   A  A   R    R  NN   N  II  NN   N  G    G  !!!           |
|           W    W  A    A  R    R  N N  N  II  N N  N  G       !!!           |
|           W WW W  AAAAAA  RRRRR   N  N N  II  N  N N  G  GGG   !            |
|           WW  WW  A    A  R   R   N   NN  II  N   NN  G    G                |
|           W    W  A    A  R    R  N    N  II  N    N   GGGG   !!!           |
|                                                                             |
|      For optimal performance we recommend to set                            |
|        NCORE= 4 - approx SQRT( number of cores)                             |
|      NCORE specifies how many cores store one orbital (NPAR=cpu/NCORE).     |
|      This setting can  greatly improve the performance of VASP for DFT.     |
|      The default,   NCORE=1            might be grossly inefficient         |
|      on modern multi-core architectures or massively parallel machines.     |
|      Do your own testing !!!!                                               |
|      Unfortunately you need to use the default for GW and RPA calculations. |
|      (for HF NCORE is supported but not extensively tested yet)             |
|                                                                             |
 ----------------------------------------------------------------------------- 

 POTCAR:    PAW_PBE Ni 02Aug2007                  
  local pseudopotential read in
  partial core-charges read in
  partial kinetic energy density read in
  atomic valenz-charges read in
  non local Contribution for L=           2  read in
    real space projection operators read in
  non local Contribution for L=           2  read in
    real space projection operators read in
  non local Contribution for L=           0  read in
    real space projection operators read in
  non local Contribution for L=           0  read in
    real space projection operators read in
  non local Contribution for L=           1  read in
    real space projection operators read in
  non local Contribution for L=           1  read in
    real space projection operators read in
    PAW grid and wavefunctions read in
 
   number of l-projection  operators is LMAX  =           6
   number of lm-projection operators is LMMAX =          18
 
 POTCAR:    PAW_PBE O 08Apr2002                   
  local pseudopotential read in
  partial core-charges read in
  partial kinetic energy density read in
  kinetic energy density of atom read in
  atomic valenz-charges read in
  non local Contribution for L=           0  read in
    real space projection operators read in
  non local Contribution for L=           0  read in
    real space projection operators read in
  non local Contribution for L=           1  read in
    real space projection operators read in
  non local Contribution for L=           1  read in
    real space projection operators read in
    PAW grid and wavefunctions read in
 
   number of l-projection  operators is LMAX  =           4
   number of lm-projection operators is LMMAX =           8
 
 Optimization of the real space projectors (new method)

 maximal supplied QI-value         = 16.25
 optimisation between [QCUT,QGAM] = [ 11.38, 22.75] = [ 36.24,144.96] Ry 
 Optimized for a Real-space Cutoff    1.47 Angstroem

   l    n(q)    QCUT    max X(q) W(low)/X(q) W(high)/X(q)  e(spline) 
   2      9    11.376    60.317    0.17E-03    0.16E-04    0.16E-06
   2      9    11.376    55.921    0.17E-03    0.16E-04    0.17E-06
   0     10    11.376    51.690    0.45E-04    0.60E-04    0.21E-06
   0     10    11.376    30.015    0.37E-04    0.55E-04    0.19E-06
   1     10    11.376    18.849    0.83E-04    0.11E-03    0.92E-07
   1     10    11.376    14.624    0.69E-04    0.92E-04    0.82E-07
 Optimization of the real space projectors (new method)

 maximal supplied QI-value         = 24.76
 optimisation between [QCUT,QGAM] = [ 11.39, 22.77] = [ 36.31,145.25] Ry 
 Optimized for a Real-space Cutoff    1.10 Angstroem

   l    n(q)    QCUT    max X(q) W(low)/X(q) W(high)/X(q)  e(spline) 
   0      7    11.387    20.381    0.22E-03    0.48E-03    0.18E-06
   0      7    11.387    15.268    0.22E-03    0.52E-03    0.19E-06
   1      7    11.387     5.964    0.22E-03    0.73E-03    0.24E-06
   1      7    11.387     5.382    0.19E-03    0.60E-03    0.21E-06

 ----------------------------------------------------------------------------- 
|                                                                             |
|  ADVICE TO THIS USER RUNNING 'VASP/VAMP'   (HEAR YOUR MASTER'S VOICE ...):  |
|                                                                             |
|      You enforced a specific xc-type in the INCAR file,                     |
|      a different type was found on the POTCAR file                          |
|          I HOPE YOU KNOW, WHAT YOU ARE  DOING                               |
|                                                                             |
 ----------------------------------------------------------------------------- 

  PAW_PBE Ni 02Aug2007                  :
 energy of atom  1       EATOM=-1077.6739
 kinetic energy error for atom=    0.0030 (will be added to EATOM!!)
  PAW_PBE O 08Apr2002                   :
 energy of atom  2       EATOM= -432.3788
 kinetic energy error for atom=    0.0224 (will be added to EATOM!!)
 
 
 POSCAR: NiO2_Fd-3m_scale_1_050_disp_0_06_round_1
  positions in direct lattice
  No initial velocities read in
 exchange correlation table for  LEXCH =       14
   RHO(1)=    0.500       N(1)  =     2000
   RHO(2)=  100.500       N(2)  =     4000
 


--------------------------------------------------------------------------------------------------------


 ion  position               nearest neighbor table
   1  0.108  0.595  0.115-  22 1.87  24 1.89  47 1.96  41 2.07  43 2.21  28 2.45   3 2.79   2 2.85
                             4 2.85  14 2.99   8 3.07
   2  0.347  0.844  0.116-  18 1.80  24 1.80  41 2.02  46 2.10  19 2.21  29 2.23   3 2.76   4 2.83
                             1 2.85
   3  0.351  0.603  0.348-  47 1.73  41 1.73  44 1.87  21 1.94  18 1.96  27 2.04   2 2.76   4 2.77
                             1 2.79   6 2.79   9 2.86  16 2.87
   4  0.109  0.834  0.363-  30 1.65  47 1.90  24 1.90  18 1.95  45 2.22  20 2.23   3 2.77   2 2.83
                             1 2.85  10 2.93   5 2.98
   5  0.124  0.117  0.588-  33 1.78  20 1.79  39 1.82  32 1.98  30 2.27  35 2.32   7 2.78   8 2.81
                             6 2.98   4 2.98
   6  0.369  0.381  0.602-  27 1.57  38 1.83  32 1.87  21 1.87  26 1.89  33 2.07   9 2.59  16 2.74
                             3 2.79   8 2.81   7 2.84   5 2.98
   7  0.358  0.124  0.830-  33 1.79  36 1.85  39 1.86  26 1.94  29 2.28  19 2.33   8 2.73   5 2.78
                             6 2.84  13 3.04  12 3.09
   8  0.120  0.354  0.832-  39 1.80  26 1.81  28 1.90  32 1.94  37 2.31  22 2.34   7 2.73   6 2.81
                             5 2.81   1 3.07
   9  0.596  0.597  0.593-  40 1.77  27 1.83  44 1.86  38 1.89  25 1.91  31 1.92   6 2.59  11 2.78
                            16 2.78  12 2.83  10 2.83   3 2.86
  10  0.846  0.832  0.600-  25 1.83  45 1.83  34 1.84  40 2.06  30 2.13  35 2.26  11 2.63  12 2.82
                             9 2.83   4 2.93
  11  0.841  0.605  0.823-  25 1.69  34 1.77  31 1.91  28 2.05  37 2.09  43 2.27  10 2.63   9 2.78
                            12 2.78
  12  0.599  0.839  0.836-  34 1.81  29 1.90  31 1.95  40 1.96  46 2.13  36 2.20  11 2.78  10 2.82
                             9 2.83   7 3.09
  13  0.593  0.129  0.115-  48 1.75  19 1.84  23 1.84  17 1.92  36 2.21  46 2.35  14 2.75  16 2.75
                            15 2.79   7 3.04
  14  0.836  0.356  0.124-  42 1.83  43 1.85  17 1.92  48 1.96  22 2.17  37 2.33  15 2.74  13 2.75
                            16 2.79   1 2.99
  15  0.840  0.108  0.345-  17 1.81  23 1.92  35 1.95  42 1.99  45 2.15  20 2.21  14 2.74  13 2.79
                            16 2.88
  16  0.594  0.355  0.360-  38 1.76  44 1.82  21 1.85  23 1.86  48 1.87  42 1.92   6 2.74  13 2.75
                             9 2.78  14 2.79   3 2.87  15 2.88
  17  0.825  0.124  0.127-  15 1.81  14 1.92  13 1.92
  18  0.343  0.840  0.333-   2 1.80   4 1.95   3 1.96
  19  0.371  0.109  0.112-  13 1.84   2 2.21   7 2.33
  20  0.106  0.104  0.373-   5 1.79  15 2.21   4 2.23
  21  0.371  0.371  0.376-  16 1.85   6 1.87   3 1.94
  22  0.099  0.369  0.114-   1 1.87  14 2.17   8 2.34
  23  0.609  0.131  0.337-  13 1.84  16 1.86  15 1.92
  24  0.130  0.822  0.134-   2 1.80   1 1.89   4 1.90
  25  0.825  0.612  0.619-  11 1.69  10 1.83   9 1.91
  26  0.340  0.359  0.828-   8 1.81   6 1.89   7 1.94
  27  0.376  0.570  0.591-   6 1.57   9 1.83   3 2.04
  28  0.088  0.582  0.819-   8 1.90  11 2.05   1 2.45
  29  0.369  0.849  0.846-  12 1.90   2 2.23   7 2.28
  30  0.101  0.844  0.563-   4 1.65  10 2.13   5 2.27
  31  0.610  0.603  0.825-  11 1.91   9 1.92  12 1.95
  32  0.144  0.355  0.599-   6 1.87   8 1.94   5 1.98
  33  0.337  0.132  0.615-   5 1.78   7 1.79   6 2.07
  34  0.816  0.818  0.820-  11 1.77  12 1.81  10 1.84
  35  0.844  0.105  0.581-  15 1.95  10 2.26   5 2.32
  36  0.580  0.104  0.849-   7 1.85  12 2.20  13 2.21
  37  0.841  0.353  0.843-  11 2.09   8 2.31  14 2.33
  38  0.588  0.369  0.573-  16 1.76   6 1.83   9 1.89
  39  0.134  0.139  0.808-   8 1.80   5 1.82   7 1.86
  40  0.597  0.812  0.600-   9 1.77  12 1.96  10 2.06
  41  0.357  0.601  0.139-   3 1.73   2 2.02   1 2.07
  42  0.825  0.349  0.346-  14 1.83  16 1.92  15 1.99
  43  0.841  0.578  0.097-  14 1.85   1 2.21  11 2.27
  44  0.575  0.574  0.370-  16 1.82   9 1.86   3 1.87
  45  0.842  0.850  0.379-  10 1.83  15 2.15   4 2.22
  46  0.600  0.846  0.094-   2 2.10  12 2.13  13 2.35
  47  0.142  0.607  0.349-   3 1.73   4 1.90   1 1.96
  48  0.600  0.340  0.134-  13 1.75  16 1.87  14 1.96
 
  LATTYP: Found a simple cubic cell.
 ALAT       =     8.2600144400
  
  Lattice vectors:
  
 A1 = (   8.2600144400,   0.0000000000,   0.0000000000)
 A2 = (   0.0000000000,   8.2600144400,   0.0000000000)
 A3 = (   0.0000000000,   0.0000000000,   8.2600144400)


Analysis of symmetry for initial positions (statically):
=====================================================================
 Subroutine PRICEL returns:
 Original cell was already a primitive cell.
 

 Routine SETGRP: Setting up the symmetry group for a 
 simple cubic supercell.


 Subroutine GETGRP returns: Found  1 space group operations
 (whereof  1 operations were pure point group operations)
 out of a pool of 48 trial point group operations.


The static configuration has the point symmetry C_1 .


Analysis of symmetry for dynamics (positions and initial velocities):
=====================================================================
 Subroutine PRICEL returns:
 Original cell was already a primitive cell.
 

 Routine SETGRP: Setting up the symmetry group for a 
 simple cubic supercell.


 Subroutine GETGRP returns: Found  1 space group operations
 (whereof  1 operations were pure point group operations)
 out of a pool of 48 trial point group operations.


The dynamic configuration has the point symmetry C_1 .


 Subroutine INISYM returns: Found  1 space group operations
 (whereof  1 operations are pure point group operations),
 and found     1 'primitive' translations

 
 
 KPOINTS: Automatic mesh                          

Automatic generation of k-mesh.
Space group operators:
 irot       det(A)        alpha          n_x          n_y          n_z        tau_x        tau_y        tau_z
    1     1.000000     0.000000     1.000000     0.000000     0.000000     0.000000     0.000000     0.000000
 
 Subroutine IBZKPT returns following result:
 ===========================================
 
 Found     36 irreducible k-points:
 
 Following reciprocal coordinates:
            Coordinates               Weight
  0.000000  0.000000  0.000000      1.000000
  0.250000  0.000000  0.000000      2.000000
  0.500000  0.000000  0.000000      1.000000
  0.000000  0.250000  0.000000      2.000000
  0.250000  0.250000  0.000000      2.000000
  0.500000  0.250000  0.000000      2.000000
 -0.250000  0.250000  0.000000      2.000000
  0.000000  0.500000  0.000000      1.000000
  0.250000  0.500000  0.000000      2.000000
  0.500000  0.500000  0.000000      1.000000
  0.000000  0.000000  0.250000      2.000000
  0.250000  0.000000  0.250000      2.000000
  0.500000  0.000000  0.250000      2.000000
 -0.250000  0.000000  0.250000      2.000000
  0.000000  0.250000  0.250000      2.000000
  0.250000  0.250000  0.250000      2.000000
  0.500000  0.250000  0.250000      2.000000
 -0.250000  0.250000  0.250000      2.000000
  0.000000  0.500000  0.250000      2.000000
  0.250000  0.500000  0.250000      2.000000
  0.500000  0.500000  0.250000      2.000000
 -0.250000  0.500000  0.250000      2.000000
  0.000000 -0.250000  0.250000      2.000000
  0.250000 -0.250000  0.250000      2.000000
  0.500000 -0.250000  0.250000      2.000000
 -0.250000 -0.250000  0.250000      2.000000
  0.000000  0.000000  0.500000      1.000000
  0.250000  0.000000  0.500000      2.000000
  0.500000  0.000000  0.500000      1.000000
  0.000000  0.250000  0.500000      2.000000
  0.250000  0.250000  0.500000      2.000000
  0.500000  0.250000  0.500000      2.000000
 -0.250000  0.250000  0.500000      2.000000
  0.000000  0.500000  0.500000      1.000000
  0.250000  0.500000  0.500000      2.000000
  0.500000  0.500000  0.500000      1.000000
 
 Following cartesian coordinates:
            Coordinates               Weight
  0.000000  0.000000  0.000000      1.000000
  0.030266  0.000000  0.000000      2.000000
  0.060533  0.000000  0.000000      1.000000
  0.000000  0.030266  0.000000      2.000000
  0.030266  0.030266  0.000000      2.000000
  0.060533  0.030266  0.000000      2.000000
 -0.030266  0.030266  0.000000      2.000000
  0.000000  0.060533  0.000000      1.000000
  0.030266  0.060533  0.000000      2.000000
  0.060533  0.060533  0.000000      1.000000
  0.000000  0.000000  0.030266      2.000000
  0.030266  0.000000  0.030266      2.000000
  0.060533  0.000000  0.030266      2.000000
 -0.030266  0.000000  0.030266      2.000000
  0.000000  0.030266  0.030266      2.000000
  0.030266  0.030266  0.030266      2.000000
  0.060533  0.030266  0.030266      2.000000
 -0.030266  0.030266  0.030266      2.000000
  0.000000  0.060533  0.030266      2.000000
  0.030266  0.060533  0.030266      2.000000
  0.060533  0.060533  0.030266      2.000000
 -0.030266  0.060533  0.030266      2.000000
  0.000000 -0.030266  0.030266      2.000000
  0.030266 -0.030266  0.030266      2.000000
  0.060533 -0.030266  0.030266      2.000000
 -0.030266 -0.030266  0.030266      2.000000
  0.000000  0.000000  0.060533      1.000000
  0.030266  0.000000  0.060533      2.000000
  0.060533  0.000000  0.060533      1.000000
  0.000000  0.030266  0.060533      2.000000
  0.030266  0.030266  0.060533      2.000000
  0.060533  0.030266  0.060533      2.000000
 -0.030266  0.030266  0.060533      2.000000
  0.000000  0.060533  0.060533      1.000000
  0.030266  0.060533  0.060533      2.000000
  0.060533  0.060533  0.060533      1.000000
 


--------------------------------------------------------------------------------------------------------




 Dimension of arrays:
   k-points           NKPTS =     36   k-points in BZ     NKDIM =     36   number of bands    NBANDS=    224
   number of dos      NEDOS =    301   number of ions     NIONS =     48
   non local maximal  LDIM  =      6   non local SUM 2l+1 LMDIM =     18
   total plane-waves  NPLWV = 216000
   max r-space proj   IRMAX =   5195   max aug-charges    IRDMAX=  12622
   dimension x,y,z NGX =    60 NGY =   60 NGZ =   60
   dimension x,y,z NGXF=   120 NGYF=  120 NGZF=  120
   support grid    NGXF=   120 NGYF=  120 NGZF=  120
   ions per type =              16  32
   NGX,Y,Z   is equivalent  to a cutoff of  12.08, 12.08, 12.08 a.u.
   NGXF,Y,Z  is equivalent  to a cutoff of  24.15, 24.15, 24.15 a.u.

 SYSTEM =  unknown system                          
 POSCAR =  NiO2_Fd-3m_scale_1_050_disp_0_06_round_1

 Startparameter for this run:
   NWRITE =      1    write-flag & timer
   PREC   = accura    normal or accurate (medium, high low for compatibility)
   ISTART =      0    job   : 0-new  1-cont  2-samecut
   ICHARG =      2    charge: 1-file 2-atom 10-const
   ISPIN  =      1    spin polarized calculation?
   LNONCOLLINEAR =      F non collinear calculations
   LSORBIT =      F    spin-orbit coupling
   INIWAV =      1    electr: 0-lowe 1-rand  2-diag
   LASPH  =      F    aspherical Exc in radial PAW
   METAGGA=      F    non-selfconsistent MetaGGA calc.

 Electronic Relaxation 1
   ENCUT  =  500.0 eV  36.75 Ry    6.06 a.u.  15.06 15.06 15.06*2*pi/ulx,y,z
   ENINI  =  500.0     initial cutoff
   ENAUG  =  605.4 eV  augmentation charge cutoff
   NELM   =    120;   NELMIN=  2; NELMDL= -5     # of ELM steps 
   EDIFF  = 0.1E-04   stopping-criterion for ELM
   LREAL  =      T    real-space projection
   NLSPLINE    = F    spline interpolate recip. space projectors
   LCOMPAT=      F    compatible to vasp.4.4
   GGA_COMPAT  = T    GGA compatible to vasp.4.4-vasp.4.6
   LMAXPAW     = -100 max onsite density
   LMAXMIX     =    2 max onsite mixed and CHGCAR
   VOSKOWN=      1    Vosko Wilk Nusair interpolation
   ROPT   =   -0.00025  -0.00025
 Ionic relaxation
   EDIFFG = 0.1E-03   stopping-criterion for IOM
   NSW    =      0    number of steps for IOM
   NBLOCK =      1;   KBLOCK =      1    inner block; outer block 
   IBRION =     -1    ionic relax: 0-MD 1-quasi-New 2-CG
   NFREE  =      0    steps in history (QN), initial steepest desc. (CG)
   ISIF   =      2    stress and relaxation
   IWAVPR =     10    prediction:  0-non 1-charg 2-wave 3-comb
   ISYM   =      2    0-nonsym 1-usesym 2-fastsym
   LCORR  =      T    Harris-Foulkes like correction to forces

   POTIM  = 0.5000    time-step for ionic-motion
   TEIN   =    0.0    initial temperature
   TEBEG  =    0.0;   TEEND  =   0.0 temperature during run
   SMASS  =  -3.00    Nose mass-parameter (am)
   estimated Nose-frequenzy (Omega)   =  0.10E-29 period in steps =****** mass=  -0.156E-26a.u.
   SCALEE = 1.0000    scale energy and forces
   NPACO  =    256;   APACO  = 16.0  distance and # of slots for P.C.
   PSTRESS=    0.0 pullay stress

  Mass of Ions in am
   POMASS =  58.69 16.00
  Ionic Valenz
   ZVAL   =  10.00  6.00
  Atomic Wigner-Seitz radii
   RWIGS  =   1.15  0.73
  virtual crystal weights 
   VCA    =   1.00  1.00
   NELECT =     352.0000    total number of electrons
   NUPDOWN=      -1.0000    fix difference up-down

 DOS related values:
   EMIN   =  10.00;   EMAX   =-10.00  energy-range for DOS
   EFERMI =   0.00
   ISMEAR =     0;   SIGMA  =   0.05  broadening in eV -4-tet -1-fermi 0-gaus

 Electronic relaxation 2 (details)
   IALGO  =     38    algorithm
   LDIAG  =      T    sub-space diagonalisation (order eigenvalues)
   LSUBROT=      F    optimize rotation matrix (better conditioning)
   TURBO    =      0    0=normal 1=particle mesh
   IRESTART =      0    0=no restart 2=restart with 2 vectors
   NREBOOT  =      0    no. of reboots
   NMIN     =      0    reboot dimension
   EREF     =   0.00    reference energy to select bands
   IMIX   =      4    mixing-type and parameters
     AMIX     =   0.40;   BMIX     =  1.00
     AMIX_MAG =   1.60;   BMIX_MAG =  1.00
     AMIN     =   0.10
     WC   =   100.;   INIMIX=   1;  MIXPRE=   1;  MAXMIX= -45

 Intra band minimization:
   WEIMIN = 0.0000     energy-eigenvalue tresh-hold
   EBREAK =  0.11E-07  absolut break condition
   DEPER  =   0.30     relativ break condition  

   TIME   =   0.40     timestep for ELM

  volume/ion in A,a.u.               =      11.74        79.23
  Fermi-wavevector in a.u.,A,eV,Ry     =   1.399399  2.644481 26.644530  1.958318
  Thomas-Fermi vector in A             =   2.522462
 
 Write flags
   LWAVE        =      F    write WAVECAR
   LDOWNSAMPLE  =      F    k-point downsampling of WAVECAR
   LCHARG       =      T    write CHGCAR
   LVTOT        =      F    write LOCPOT, total local potential
   LVHAR        =      F    write LOCPOT, Hartree potential only
   LELF         =      F    write electronic localiz. function (ELF)
   LORBIT       =      0    0 simple, 1 ext, 2 COOP (PROOUT), +10 PAW based schemes


 Dipole corrections
   LMONO  =      F    monopole corrections only (constant potential shift)
   LDIPOL =      F    correct potential (dipole corrections)
   IDIPOL =      0    1-x, 2-y, 3-z, 4-all directions 
   EPSILON=  1.0000000 bulk dielectric constant

 Exchange correlation treatment:
   GGA     =    PS    GGA type
   LEXCH   =    14    internal setting for exchange type
   VOSKOWN=      1    Vosko Wilk Nusair interpolation
   LHFCALC =     F    Hartree Fock is set to
   LHFONE  =     F    Hartree Fock one center treatment
   AEXX    =    0.0000 exact exchange contribution

 Linear response parameters
   LEPSILON=     F    determine dielectric tensor
   LRPA    =     F    only Hartree local field effects (RPA)
   LNABLA  =     F    use nabla operator in PAW spheres
   LVEL    =     F    velocity operator in full k-point grid
   LINTERFAST=   F  fast interpolation
   KINTER  =     0    interpolate to denser k-point grid
   CSHIFT  =0.1000    complex shift for real part using Kramers Kronig
   OMEGAMAX=  -1.0    maximum frequency
   DEG_THRESHOLD= 0.2000000E-02 threshold for treating states as degnerate
   RTIME   =   -0.100 relaxation time in fs
  (WPLASMAI=    0.000 imaginary part of plasma frequency in eV, 0.658/RTIME)
   DFIELD  = 0.0000000 0.0000000 0.0000000 field for delta impulse in time
 
 Orbital magnetization related:
   ORBITALMAG=     F  switch on orbital magnetization
   LCHIMAG   =     F  perturbation theory with respect to B field
   DQ        =  0.001000  dq finite difference perturbation B field
   LLRAUG    =     F  two centre corrections for induced B field



--------------------------------------------------------------------------------------------------------


 Static calculation
 charge density and potential will be updated during run
 non-spin polarized calculation
 Variant of blocked Davidson
 Davidson routine will perform the subspace rotation
 perform sub-space diagonalisation
    after iterative eigenvector-optimisation
 modified Broyden-mixing scheme, WC =      100.0
 initial mixing is a Kerker type mixing with AMIX =  0.4000 and BMIX =      1.0000
 Hartree-type preconditioning will be used
 using additional bands           48
 real space projection scheme for non local part
 use partial core corrections
 calculate Harris-corrections to forces 
   (improved forces if not selfconsistent)
 use gradient corrections 
 use of overlap-Matrix (Vanderbilt PP)
 Gauss-broadening in eV      SIGMA  =   0.05


--------------------------------------------------------------------------------------------------------


  energy-cutoff  :      500.00
  volume of cell :      563.56
      direct lattice vectors                 reciprocal lattice vectors
     8.260014440  0.000000000  0.000000000     0.121065164  0.000000000  0.000000000
     0.000000000  8.260014440  0.000000000     0.000000000  0.121065164  0.000000000
     0.000000000  0.000000000  8.260014440     0.000000000  0.000000000  0.121065164

  length of vectors
     8.260014440  8.260014440  8.260014440     0.121065164  0.121065164  0.121065164


 
 k-points in units of 2pi/SCALE and weight: Automatic mesh                          
   0.00000000  0.00000000  0.00000000       0.016
   0.03026629  0.00000000  0.00000000       0.031
   0.06053258  0.00000000  0.00000000       0.016
   0.00000000  0.03026629  0.00000000       0.031
   0.03026629  0.03026629  0.00000000       0.031
   0.06053258  0.03026629  0.00000000       0.031
  -0.03026629  0.03026629  0.00000000       0.031
   0.00000000  0.06053258  0.00000000       0.016
   0.03026629  0.06053258  0.00000000       0.031
   0.06053258  0.06053258  0.00000000       0.016
   0.00000000  0.00000000  0.03026629       0.031
   0.03026629  0.00000000  0.03026629       0.031
   0.06053258  0.00000000  0.03026629       0.031
  -0.03026629  0.00000000  0.03026629       0.031
   0.00000000  0.03026629  0.03026629       0.031
   0.03026629  0.03026629  0.03026629       0.031
   0.06053258  0.03026629  0.03026629       0.031
  -0.03026629  0.03026629  0.03026629       0.031
   0.00000000  0.06053258  0.03026629       0.031
   0.03026629  0.06053258  0.03026629       0.031
   0.06053258  0.06053258  0.03026629       0.031
  -0.03026629  0.06053258  0.03026629       0.031
   0.00000000 -0.03026629  0.03026629       0.031
   0.03026629 -0.03026629  0.03026629       0.031
   0.06053258 -0.03026629  0.03026629       0.031
  -0.03026629 -0.03026629  0.03026629       0.031
   0.00000000  0.00000000  0.06053258       0.016
   0.03026629  0.00000000  0.06053258       0.031
   0.06053258  0.00000000  0.06053258       0.016
   0.00000000  0.03026629  0.06053258       0.031
   0.03026629  0.03026629  0.06053258       0.031
   0.06053258  0.03026629  0.06053258       0.031
  -0.03026629  0.03026629  0.06053258       0.031
   0.00000000  0.06053258  0.06053258       0.016
   0.03026629  0.06053258  0.06053258       0.031
   0.06053258  0.06053258  0.06053258       0.016
 
 k-points in reciprocal lattice and weights: Automatic mesh                          
   0.00000000  0.00000000  0.00000000       0.016
   0.25000000  0.00000000  0.00000000       0.031
   0.50000000  0.00000000  0.00000000       0.016
   0.00000000  0.25000000  0.00000000       0.031
   0.25000000  0.25000000  0.00000000       0.031
   0.50000000  0.25000000  0.00000000       0.031
  -0.25000000  0.25000000  0.00000000       0.031
   0.00000000  0.50000000  0.00000000       0.016
   0.25000000  0.50000000  0.00000000       0.031
   0.50000000  0.50000000  0.00000000       0.016
   0.00000000  0.00000000  0.25000000       0.031
   0.25000000  0.00000000  0.25000000       0.031
   0.50000000  0.00000000  0.25000000       0.031
  -0.25000000  0.00000000  0.25000000       0.031
   0.00000000  0.25000000  0.25000000       0.031
   0.25000000  0.25000000  0.25000000       0.031
   0.50000000  0.25000000  0.25000000       0.031
  -0.25000000  0.25000000  0.25000000       0.031
   0.00000000  0.50000000  0.25000000       0.031
   0.25000000  0.50000000  0.25000000       0.031
   0.50000000  0.50000000  0.25000000       0.031
  -0.25000000  0.50000000  0.25000000       0.031
   0.00000000 -0.25000000  0.25000000       0.031
   0.25000000 -0.25000000  0.25000000       0.031
   0.50000000 -0.25000000  0.25000000       0.031
  -0.25000000 -0.25000000  0.25000000       0.031
   0.00000000  0.00000000  0.50000000       0.016
   0.25000000  0.00000000  0.50000000       0.031
   0.50000000  0.00000000  0.50000000       0.016
   0.00000000  0.25000000  0.50000000       0.031
   0.25000000  0.25000000  0.50000000       0.031
   0.50000000  0.25000000  0.50000000       0.031
  -0.25000000  0.25000000  0.50000000       0.031
   0.00000000  0.50000000  0.50000000       0.016
   0.25000000  0.50000000  0.50000000       0.031
   0.50000000  0.50000000  0.50000000       0.016
 
 position of ions in fractional coordinates (direct lattice) 
   0.10771336  0.59501308  0.11453725
   0.34650428  0.84358958  0.11558468
   0.35147360  0.60301242  0.34782840
   0.10940493  0.83425104  0.36340575
   0.12410865  0.11661737  0.58799216
   0.36875718  0.38121600  0.60241317
   0.35804261  0.12444315  0.83047167
   0.12012352  0.35414842  0.83216591
   0.59625164  0.59731172  0.59319503
   0.84576121  0.83224544  0.60025242
   0.84128884  0.60496018  0.82338917
   0.59877146  0.83880685  0.83597351
   0.59295207  0.12902301  0.11451191
   0.83606278  0.35568705  0.12444498
   0.83956113  0.10810680  0.34503863
   0.59364734  0.35453614  0.35989245
   0.82492593  0.12394190  0.12666325
   0.34348327  0.83960658  0.33293206
   0.37121752  0.10948141  0.11159505
   0.10604427  0.10447482  0.37254116
   0.37115314  0.37076927  0.37594335
   0.09881564  0.36873504  0.11371942
   0.60889893  0.13087595  0.33729356
   0.13045915  0.82157021  0.13425426
   0.82509816  0.61220388  0.61930080
   0.33953328  0.35877130  0.82785777
   0.37636916  0.57032636  0.59080165
   0.08842958  0.58163462  0.81903612
   0.36907446  0.84925632  0.84632909
   0.10106277  0.84407452  0.56318568
   0.60961448  0.60339068  0.82524777
   0.14420532  0.35481859  0.59912330
   0.33730217  0.13246337  0.61490921
   0.81606577  0.81808068  0.82029839
   0.84360866  0.10478951  0.58063610
   0.58043762  0.10426571  0.84886551
   0.84118846  0.35276215  0.84285704
   0.58797933  0.36932335  0.57253301
   0.13387913  0.13858860  0.80753568
   0.59711195  0.81196199  0.60020937
   0.35689885  0.60054408  0.13874772
   0.82539632  0.34891935  0.34606185
   0.84105794  0.57796743  0.09714352
   0.57507033  0.57387002  0.37031700
   0.84205740  0.84979239  0.37896727
   0.59976159  0.84571821  0.09422255
   0.14246911  0.60745841  0.34945998
   0.59978218  0.33994541  0.13360164
 
 position of ions in cartesian coordinates  (Angst):
   0.88971391  4.91481663  0.94607934
   2.86213036  6.96806211  0.95473113
   2.90317701  4.98089130  2.87306761
   0.90368630  6.89092564  3.00173674
   1.02513924  0.96326116  4.85682373
   3.04593963  3.14884966  4.97594148
   2.95743713  1.02790222  6.85970799
   0.99222201  2.92527106  6.87370243
   4.92504716  4.93380343  4.89979951
   6.98599981  6.87435935  4.95809366
   6.94905797  4.99697982  6.80120643
   4.94586091  6.92855669  6.90515326
   4.89779266  1.06573193  0.94587003
   6.90589064  2.93798017  1.02791733
   6.93478706  0.89296373  2.85002407
   4.90353560  2.92847364  2.97271683
   6.81390009  1.02376188  1.04624027
   2.83717677  6.93516247  2.75002362
   3.06626208  0.90431803  0.92177672
   0.87592720  0.86296352  3.07719536
   3.06573030  3.06255952  3.10529750
   0.81621861  3.04575675  0.93932405
   5.02951395  1.08103724  2.78604968
   1.07759446  6.78618180  1.10894213
   6.81532272  5.05681289  5.11543355
   2.80454980  2.96345612  6.83811713
   3.10881470  4.71090397  4.88003016
   0.73042961  4.80431036  6.76525018
   3.04856037  7.01486947  6.99069050
   0.83477994  6.97206772  4.65192185
   5.03542441  4.98401573  6.81655850
   1.19113803  2.93080668  4.94876711
   2.78612079  1.09414935  5.07915895
   6.74071504  6.75735823  6.77567655
   6.96821971  0.86556287  4.79606257
   4.79442312  0.86123627  7.01164137
   6.94822883  2.91382045  6.96201132
   4.85671776  3.05061620  4.72913093
   1.10584355  1.14474384  6.67025638
   4.93215333  6.70681776  4.95773806
   2.94798965  4.96050277  1.14605817
   6.81778552  2.88207887  2.85847588
   6.94715073  4.77401932  0.80240688
   4.75008923  4.74017465  3.05882377
   6.95540628  7.01929741  3.13027512
   4.95403939  6.98564463  0.77827962
   1.17679691  5.01761524  2.88654448
   4.95420947  2.80795400  1.10355148
 


--------------------------------------------------------------------------------------------------------


 k-point  1 :   0.0000 0.0000 0.0000  plane waves:   14243
 k-point  2 :   0.2500 0.0000 0.0000  plane waves:   14306
 k-point  3 :   0.5000 0.0000 0.0000  plane waves:   14286
 k-point  4 :   0.0000 0.2500 0.0000  plane waves:   14306
 k-point  5 :   0.2500 0.2500 0.0000  plane waves:   14335
 k-point  6 :   0.5000 0.2500 0.0000  plane waves:   14260
 k-point  7 :  -0.2500 0.2500 0.0000  plane waves:   14335
 k-point  8 :   0.0000 0.5000 0.0000  plane waves:   14286
 k-point  9 :   0.2500 0.5000 0.0000  plane waves:   14260
 k-point 10 :   0.5000 0.5000 0.0000  plane waves:   14332
 k-point 11 :   0.0000 0.0000 0.2500  plane waves:   14306
 k-point 12 :   0.2500 0.0000 0.2500  plane waves:   14335
 k-point 13 :   0.5000 0.0000 0.2500  plane waves:   14260
 k-point 14 :  -0.2500 0.0000 0.2500  plane waves:   14335
 k-point 15 :   0.0000 0.2500 0.2500  plane waves:   14335
 k-point 16 :   0.2500 0.2500 0.2500  plane waves:   14330
 k-point 17 :   0.5000 0.2500 0.2500  plane waves:   14288
 k-point 18 :  -0.2500 0.2500 0.2500  plane waves:   14330
 k-point 19 :   0.0000 0.5000 0.2500  plane waves:   14260
 k-point 20 :   0.2500 0.5000 0.2500  plane waves:   14288
 k-point 21 :   0.5000 0.5000 0.2500  plane waves:   14336
 k-point 22 :  -0.2500 0.5000 0.2500  plane waves:   14288
 k-point 23 :   0.0000-0.2500 0.2500  plane waves:   14335
 k-point 24 :   0.2500-0.2500 0.2500  plane waves:   14330
 k-point 25 :   0.5000-0.2500 0.2500  plane waves:   14288
 k-point 26 :  -0.2500-0.2500 0.2500  plane waves:   14330
 k-point 27 :   0.0000 0.0000 0.5000  plane waves:   14286
 k-point 28 :   0.2500 0.0000 0.5000  plane waves:   14260
 k-point 29 :   0.5000 0.0000 0.5000  plane waves:   14332
 k-point 30 :   0.0000 0.2500 0.5000  plane waves:   14260
 k-point 31 :   0.2500 0.2500 0.5000  plane waves:   14288
 k-point 32 :   0.5000 0.2500 0.5000  plane waves:   14336
 k-point 33 :  -0.2500 0.2500 0.5000  plane waves:   14288
 k-point 34 :   0.0000 0.5000 0.5000  plane waves:   14332
 k-point 35 :   0.2500 0.5000 0.5000  plane waves:   14336
 k-point 36 :   0.5000 0.5000 0.5000  plane waves:   14400

 maximum and minimum number of plane-waves per node :     14400    14243

 maximum number of plane-waves:     14400
 maximum index in each direction: 
   IXMAX=   15   IYMAX=   15   IZMAX=   15
   IXMIN=  -15   IYMIN=  -15   IZMIN=  -15

 The following grids will avoid any aliasing or wrap around errors in the Hartre
 e energy
  - symmetry arguments have not been applied
  - exchange correlation energies might require even more grid points
  - we recommend to set PREC=Normal or Accurate and rely on VASP defaults
 WARNING: aliasing errors must be expected set NGX to    64 to avoid them
 WARNING: aliasing errors must be expected set NGY to    64 to avoid them
 WARNING: aliasing errors must be expected set NGZ to    64 to avoid them

 serial   3D FFT for wavefunctions
 parallel 3D FFT for charge:
    minimum data exchange during FFTs selected (reduces bandwidth)


 total amount of memory used by VASP MPI-rank0   192745. kBytes
=======================================================================

   base      :      30000. kBytes
   nonlr-proj:      21515. kBytes
   fftplans  :       4751. kBytes
   grid      :      15225. kBytes
   one-center:        746. kBytes
   wavefun   :     120508. kBytes
 
     INWAV:  cpu time    0.0000: real time    0.0000
 Broyden mixing: mesh for mixing (old mesh)
   NGX = 31   NGY = 31   NGZ = 31
  (NGX  =120   NGY  =120   NGZ  =120)
  gives a total of  29791 points

 initial charge density was supplied:
 charge density of overlapping atoms calculated
 number of electron     352.0000000 magnetization 
 keeping initial charge density in first step


--------------------------------------------------------------------------------------------------------


 Maximum index for non-local projection operator         5008
 Maximum index for augmentation-charges          871 (set IRDMAX)


--------------------------------------------------------------------------------------------------------


 First call to EWALD:  gamma=   0.215
 Maximum number of real-space cells 3x 3x 3
 Maximum number of reciprocal cells 3x 3x 3

    FEWALD:  cpu time    0.0026: real time    0.0026


--------------------------------------- Iteration      1(   1)  ---------------------------------------


    POTLOK:  cpu time    0.0667: real time    0.0690
    SETDIJ:  cpu time    0.0065: real time    0.0066
     EDDAV:  cpu time   35.5628: real time   35.9331
    --------------------------------------------
      LOOP:  cpu time   35.6382: real time   36.0109

 eigenvalue-minimisations  : 16128
 total energy-change (2. order) : 0.4434270E+04  (-0.1552080E+05)
 number of electron     352.0000000 magnetization 
 augmentation part      352.0000000 magnetization 

 Free energy of the ion-electron system (eV)
  ---------------------------------------------------
  alpha Z        PSCENC =       972.54880997
  Ewald energy   TEWEN  =    -18983.00659012
  -Hartree energ DENC   =    -12498.01191490
  -exchange      EXHF   =         0.00000000
  -V(xc)+E(xc)   XCENC  =      1399.90907713
  PAW double counting   =     26475.20327555   -27591.76617206
  entropy T*S    EENTRO =        -0.00805626
  eigenvalues    EBANDS =      3645.72889034
  atomic energy  EATOM  =     31013.67235384
  Solvation  Ediel_sol  =         0.00000000
  ---------------------------------------------------
  free energy    TOTEN  =      4434.26967350 eV

  energy without entropy =     4434.27772976  energy(sigma->0) =     4434.27370163


--------------------------------------------------------------------------------------------------------




--------------------------------------- Iteration      1(   2)  ---------------------------------------


     EDDAV:  cpu time   35.7696: real time   35.8550
    --------------------------------------------
      LOOP:  cpu time   35.7695: real time   35.8549

 eigenvalue-minimisations  : 16832
 total energy-change (2. order) :-0.3897635E+04  (-0.3560158E+04)
 number of electron     352.0000000 magnetization 
 augmentation part      352.0000000 magnetization 

 Free energy of the ion-electron system (eV)
  ---------------------------------------------------
  alpha Z        PSCENC =       972.54880997
  Ewald energy   TEWEN  =    -18983.00659012
  -Hartree energ DENC   =    -12498.01191490
  -exchange      EXHF   =         0.00000000
  -V(xc)+E(xc)   XCENC  =      1399.90907713
  PAW double counting   =     26475.20327555   -27591.76617206
  entropy T*S    EENTRO =        -0.02825163
  eigenvalues    EBANDS =      -251.88616884
  atomic energy  EATOM  =     31013.67235384
  Solvation  Ediel_sol  =         0.00000000
  ---------------------------------------------------
  free energy    TOTEN  =       536.63441895 eV

  energy without entropy =      536.66267057  energy(sigma->0) =      536.64854476


--------------------------------------------------------------------------------------------------------




--------------------------------------- Iteration      1(   3)  ---------------------------------------


     EDDAV:  cpu time   34.9581: real time   35.0410
    --------------------------------------------
      LOOP:  cpu time   34.9578: real time   35.0407

 eigenvalue-minimisations  : 17456
 total energy-change (2. order) :-0.8656571E+03  (-0.7686107E+03)
 number of electron     352.0000000 magnetization 
 augmentation part      352.0000000 magnetization 

 Free energy of the ion-electron system (eV)
  ---------------------------------------------------
  alpha Z        PSCENC =       972.54880997
  Ewald energy   TEWEN  =    -18983.00659012
  -Hartree energ DENC   =    -12498.01191490
  -exchange      EXHF   =         0.00000000
  -V(xc)+E(xc)   XCENC  =      1399.90907713
  PAW double counting   =     26475.20327555   -27591.76617206
  entropy T*S    EENTRO =        -0.00000211
  eigenvalues    EBANDS =     -1117.57149237
  atomic energy  EATOM  =     31013.67235384
  Solvation  Ediel_sol  =         0.00000000
  ---------------------------------------------------
  free energy    TOTEN  =      -329.02265507 eV

  energy without entropy =     -329.02265296  energy(sigma->0) =     -329.02265401


--------------------------------------------------------------------------------------------------------




--------------------------------------- Iteration      1(   4)  ---------------------------------------


     EDDAV:  cpu time   36.0918: real time   36.1772
    --------------------------------------------
      LOOP:  cpu time   36.0914: real time   36.1768

 eigenvalue-minimisations  : 17280
 total energy-change (2. order) :-0.7984470E+02  (-0.7830175E+02)
 number of electron     352.0000000 magnetization 
 augmentation part      352.0000000 magnetization 

 Free energy of the ion-electron system (eV)
  ---------------------------------------------------
  alpha Z        PSCENC =       972.54880997
  Ewald energy   TEWEN  =    -18983.00659012
  -Hartree energ DENC   =    -12498.01191490
  -exchange      EXHF   =         0.00000000
  -V(xc)+E(xc)   XCENC  =      1399.90907713
  PAW double counting   =     26475.20327555   -27591.76617206
  entropy T*S    EENTRO =        -0.00000000
  eigenvalues    EBANDS =     -1197.41619221
  atomic energy  EATOM  =     31013.67235384
  Solvation  Ediel_sol  =         0.00000000
  ---------------------------------------------------
  free energy    TOTEN  =      -408.86735280 eV

  energy without entropy =     -408.86735280  energy(sigma->0) =     -408.86735280


--------------------------------------------------------------------------------------------------------




--------------------------------------- Iteration      1(   5)  ---------------------------------------


     EDDAV:  cpu time   38.0279: real time   38.1179
    CHARGE:  cpu time    1.1987: real time    1.2015
    MIXING:  cpu time    0.0039: real time    0.0061
    --------------------------------------------
      LOOP:  cpu time   39.2292: real time   39.3242

 eigenvalue-minimisations  : 17840
 total energy-change (2. order) :-0.2372086E+01  (-0.2361252E+01)
 number of electron     352.0000010 magnetization 
 augmentation part       99.5320054 magnetization 

 Broyden mixing:
  rms(total) = 0.10834E+02    rms(broyden)= 0.10827E+02
  rms(prec ) = 0.14613E+02
  weight for this iteration     100.00

 Free energy of the ion-electron system (eV)
  ---------------------------------------------------
  alpha Z        PSCENC =       972.54880997
  Ewald energy   TEWEN  =    -18983.00659012
  -Hartree energ DENC   =    -12498.01191490
  -exchange      EXHF   =         0.00000000
  -V(xc)+E(xc)   XCENC  =      1399.90907713
  PAW double counting   =     26475.20327555   -27591.76617206
  entropy T*S    EENTRO =        -0.00000000
  eigenvalues    EBANDS =     -1199.78827802
  atomic energy  EATOM  =     31013.67235384
  Solvation  Ediel_sol  =         0.00000000
  ---------------------------------------------------
  free energy    TOTEN  =      -411.23943861 eV

  energy without entropy =     -411.23943860  energy(sigma->0) =     -411.23943861


--------------------------------------------------------------------------------------------------------




--------------------------------------- Iteration      1(   6)  ---------------------------------------


    POTLOK:  cpu time    0.0558: real time    0.0559
    SETDIJ:  cpu time    0.0066: real time    0.0066
     EDDAV:  cpu time   44.7386: real time   44.8445
    CHARGE:  cpu time    1.3195: real time    1.3226
    MIXING:  cpu time    0.0024: real time    0.0024
    --------------------------------------------
      LOOP:  cpu time   46.1228: real time   46.2320

 eigenvalue-minimisations  : 25344
 total energy-change (2. order) :-0.1534319E+03  (-0.1069516E+03)
 number of electron     351.9999997 magnetization 
 augmentation part      139.3819975 magnetization 

 Broyden mixing:
  rms(total) = 0.21216E+02    rms(broyden)= 0.21213E+02
  rms(prec ) = 0.24955E+02
  weight for this iteration     100.00

 eigenvalues of (default mixing * dielectric matrix)
  average eigenvalue GAMMA=   0.1830
  0.1830

 Free energy of the ion-electron system (eV)
  ---------------------------------------------------
  alpha Z        PSCENC =       972.54880997
  Ewald energy   TEWEN  =    -18983.00659012
  -Hartree energ DENC   =    -11831.43466234
  -exchange      EXHF   =         0.00000000
  -V(xc)+E(xc)   XCENC  =      1395.13566432
  PAW double counting   =     28521.35105593   -29436.55824030
  entropy T*S    EENTRO =        -0.05174594
  eigenvalues    EBANDS =     -2216.32802934
  atomic energy  EATOM  =     31013.67235384
  Solvation  Ediel_sol  =         0.00000000
  ---------------------------------------------------
  free energy    TOTEN  =      -564.67138399 eV

  energy without entropy =     -564.61963805  energy(sigma->0) =     -564.64551102


--------------------------------------------------------------------------------------------------------




--------------------------------------- Iteration      1(   7)  ---------------------------------------


    POTLOK:  cpu time    0.0583: real time    0.0585
    SETDIJ:  cpu time    0.0066: real time    0.0066
     EDDAV:  cpu time   42.8326: real time   42.9340
    CHARGE:  cpu time    1.4967: real time    1.5003
    MIXING:  cpu time    0.0025: real time    0.0025
    --------------------------------------------
      LOOP:  cpu time   44.3968: real time   44.5018

 eigenvalue-minimisations  : 22144
 total energy-change (2. order) : 0.2307637E+03  (-0.2857113E+02)
 number of electron     352.0000005 magnetization 
 augmentation part      127.1480002 magnetization 

 Broyden mixing:
  rms(total) = 0.81204E+01    rms(broyden)= 0.81190E+01
  rms(prec ) = 0.11438E+02
  weight for this iteration     100.00

 eigenvalues of (default mixing * dielectric matrix)
  average eigenvalue GAMMA=   0.5053
  0.5053  0.5053

 Free energy of the ion-electron system (eV)
  ---------------------------------------------------
  alpha Z        PSCENC =       972.54880997
  Ewald energy   TEWEN  =    -18983.00659012
  -Hartree energ DENC   =    -12116.51811204
  -exchange      EXHF   =         0.00000000
  -V(xc)+E(xc)   XCENC  =      1398.93291786
  PAW double counting   =     29774.56447333   -30825.77952029
  entropy T*S    EENTRO =        -0.01648948
  eigenvalues    EBANDS =     -1568.30553750
  atomic energy  EATOM  =     31013.67235384
  Solvation  Ediel_sol  =         0.00000000
  ---------------------------------------------------
  free energy    TOTEN  =      -333.90769444 eV

  energy without entropy =     -333.89120496  energy(sigma->0) =     -333.89944970


--------------------------------------------------------------------------------------------------------




--------------------------------------- Iteration      1(   8)  ---------------------------------------


    POTLOK:  cpu time    0.0620: real time    0.0622
    SETDIJ:  cpu time    0.0068: real time    0.0068
     EDDAV:  cpu time   49.4706: real time   49.5877
    CHARGE:  cpu time    1.3075: real time    1.3106
    MIXING:  cpu time    0.0021: real time    0.0021
    --------------------------------------------
      LOOP:  cpu time   50.8490: real time   50.9695

 eigenvalue-minimisations  : 25152
 total energy-change (2. order) : 0.2581199E+01  (-0.1148855E+02)
 number of electron     352.0000001 magnetization 
 augmentation part      123.6448185 magnetization 

 Broyden mixing:
  rms(total) = 0.10644E+02    rms(broyden)= 0.10643E+02
  rms(prec ) = 0.15858E+02
  weight for this iteration     100.00

 eigenvalues of (default mixing * dielectric matrix)
  average eigenvalue GAMMA=   0.4578
  0.5987  0.5987  0.1759

 Free energy of the ion-electron system (eV)
  ---------------------------------------------------
  alpha Z        PSCENC =       972.54880997
  Ewald energy   TEWEN  =    -18983.00659012
  -Hartree energ DENC   =    -12145.44681898
  -exchange      EXHF   =         0.00000000
  -V(xc)+E(xc)   XCENC  =      1397.16848868
  PAW double counting   =     30472.29972324   -31590.05056648
  entropy T*S    EENTRO =        -0.05491332
  eigenvalues    EBANDS =     -1468.45698255
  atomic energy  EATOM  =     31013.67235384
  Solvation  Ediel_sol  =         0.00000000
  ---------------------------------------------------
  free energy    TOTEN  =      -331.32649574 eV

  energy without entropy =     -331.27158242  energy(sigma->0) =     -331.29903908


--------------------------------------------------------------------------------------------------------




--------------------------------------- Iteration      1(   9)  ---------------------------------------


    POTLOK:  cpu time    0.0556: real time    0.0557
    SETDIJ:  cpu time    0.0067: real time    0.0067
     EDDAV:  cpu time   41.6997: real time   41.7984
    CHARGE:  cpu time    1.3622: real time    1.3654
    MIXING:  cpu time    0.0021: real time    0.0022
    --------------------------------------------
      LOOP:  cpu time   43.1264: real time   43.2285

 eigenvalue-minimisations  : 21488
 total energy-change (2. order) : 0.1020001E+02  (-0.1349571E+02)
 number of electron     352.0000014 magnetization 
 augmentation part      108.3998879 magnetization 

 Broyden mixing:
  rms(total) = 0.96063E+01    rms(broyden)= 0.96051E+01
  rms(prec ) = 0.15638E+02
  weight for this iteration     100.00

 eigenvalues of (default mixing * dielectric matrix)
  average eigenvalue GAMMA=   0.4096
  0.6302  0.6302  0.1890  0.1890

 Free energy of the ion-electron system (eV)
  ---------------------------------------------------
  alpha Z        PSCENC =       972.54880997
  Ewald energy   TEWEN  =    -18983.00659012
  -Hartree energ DENC   =    -12231.45412484
  -exchange      EXHF   =         0.00000000
  -V(xc)+E(xc)   XCENC  =      1396.05868470
  PAW double counting   =     31279.69566319   -32429.99792267
  entropy T*S    EENTRO =        -0.04875551
  eigenvalues    EBANDS =     -1338.59460525
  atomic energy  EATOM  =     31013.67235384
  Solvation  Ediel_sol  =         0.00000000
  ---------------------------------------------------
  free energy    TOTEN  =      -321.12648669 eV

  energy without entropy =     -321.07773118  energy(sigma->0) =     -321.10210894


--------------------------------------------------------------------------------------------------------




--------------------------------------- Iteration      1(  10)  ---------------------------------------


    POTLOK:  cpu time    0.0591: real time    0.0593
    SETDIJ:  cpu time    0.0069: real time    0.0069
     EDDAV:  cpu time   43.9309: real time   44.0349
    CHARGE:  cpu time    1.4196: real time    1.4230
    MIXING:  cpu time    0.0023: real time    0.0023
    --------------------------------------------
      LOOP:  cpu time   45.4188: real time   45.5263

 eigenvalue-minimisations  : 22528
 total energy-change (2. order) : 0.1717068E+02  (-0.5704159E+01)
 number of electron     351.9999999 magnetization 
 augmentation part      109.0702671 magnetization 

 Broyden mixing:
  rms(total) = 0.53747E+01    rms(broyden)= 0.53728E+01
  rms(prec ) = 0.80779E+01
  weight for this iteration     100.00

 eigenvalues of (default mixing * dielectric matrix)
  average eigenvalue GAMMA=   0.4879
  1.2901  0.4031  0.4031  0.2508  0.0924

 Free energy of the ion-electron system (eV)
  ---------------------------------------------------
  alpha Z        PSCENC =       972.54880997
  Ewald energy   TEWEN  =    -18983.00659012
  -Hartree energ DENC   =    -12207.47461996
  -exchange      EXHF   =         0.00000000
  -V(xc)+E(xc)   XCENC  =      1395.38107804
  PAW double counting   =     31694.83651347   -32851.50181408
  entropy T*S    EENTRO =        -0.07472565
  eigenvalues    EBANDS =     -1338.33680820
  atomic energy  EATOM  =     31013.67235384
  Solvation  Ediel_sol  =         0.00000000
  ---------------------------------------------------
  free energy    TOTEN  =      -303.95580269 eV

  energy without entropy =     -303.88107704  energy(sigma->0) =     -303.91843986


--------------------------------------------------------------------------------------------------------




--------------------------------------- Iteration      1(  11)  ---------------------------------------


    POTLOK:  cpu time    0.0594: real time    0.0595
    SETDIJ:  cpu time    0.0071: real time    0.0071
     EDDAV:  cpu time   43.9668: real time   44.0709
    CHARGE:  cpu time    1.4360: real time    1.4394
    MIXING:  cpu time    0.0027: real time    0.0027
    --------------------------------------------
      LOOP:  cpu time   45.4719: real time   45.5795

 eigenvalue-minimisations  : 22400
 total energy-change (2. order) : 0.5059489E+01  (-0.3204165E+01)
 number of electron     352.0000015 magnetization 
 augmentation part      110.8204203 magnetization 

 Broyden mixing:
  rms(total) = 0.74730E+01    rms(broyden)= 0.74717E+01
  rms(prec ) = 0.11851E+02
  weight for this iteration     100.00

 eigenvalues of (default mixing * dielectric matrix)
  average eigenvalue GAMMA=   0.4655
  1.5052  0.4228  0.4228  0.2533  0.0944  0.0944

 Free energy of the ion-electron system (eV)
  ---------------------------------------------------
  alpha Z        PSCENC =       972.54880997
  Ewald energy   TEWEN  =    -18983.00659012
  -Hartree energ DENC   =    -12153.63394257
  -exchange      EXHF   =         0.00000000
  -V(xc)+E(xc)   XCENC  =      1394.30238858
  PAW double counting   =     32321.16277560   -33481.18370651
  entropy T*S    EENTRO =        -0.04693780
  eigenvalues    EBANDS =     -1382.71146459
  atomic energy  EATOM  =     31013.67235384
  Solvation  Ediel_sol  =         0.00000000
  ---------------------------------------------------
  free energy    TOTEN  =      -298.89631359 eV

  energy without entropy =     -298.84937579  energy(sigma->0) =     -298.87284469


--------------------------------------------------------------------------------------------------------




--------------------------------------- Iteration      1(  12)  ---------------------------------------


    POTLOK:  cpu time    0.0577: real time    0.0579
    SETDIJ:  cpu time    0.0068: real time    0.0068
     EDDAV:  cpu time   43.9348: real time   44.0388
    CHARGE:  cpu time    1.2865: real time    1.2895
    MIXING:  cpu time    0.0025: real time    0.0025
    --------------------------------------------
      LOOP:  cpu time   45.2883: real time   45.3955

 eigenvalue-minimisations  : 22368
 total energy-change (2. order) : 0.1040528E+02  (-0.2215809E+01)
 number of electron     352.0000007 magnetization 
 augmentation part      114.0433435 magnetization 

 Broyden mixing:
  rms(total) = 0.25852E+01    rms(broyden)= 0.25834E+01
  rms(prec ) = 0.39705E+01
  weight for this iteration     100.00

 eigenvalues of (default mixing * dielectric matrix)
  average eigenvalue GAMMA=   0.4403
  1.4834  0.4346  0.4346  0.3497  0.2002  0.0897  0.0897

 Free energy of the ion-electron system (eV)
  ---------------------------------------------------
  alpha Z        PSCENC =       972.54880997
  Ewald energy   TEWEN  =    -18983.00659012
  -Hartree energ DENC   =    -12127.28625858
  -exchange      EXHF   =         0.00000000
  -V(xc)+E(xc)   XCENC  =      1393.90367522
  PAW double counting   =     32655.66884358   -33815.26096567
  entropy T*S    EENTRO =        -0.01924186
  eigenvalues    EBANDS =     -1398.71165773
  atomic energy  EATOM  =     31013.67235384
  Solvation  Ediel_sol  =         0.00000000
  ---------------------------------------------------
  free energy    TOTEN  =      -288.49103136 eV

  energy without entropy =     -288.47178950  energy(sigma->0) =     -288.48141043


--------------------------------------------------------------------------------------------------------




--------------------------------------- Iteration      1(  13)  ---------------------------------------


    POTLOK:  cpu time    0.0626: real time    0.0627
    SETDIJ:  cpu time    0.0068: real time    0.0068
     EDDAV:  cpu time   39.2077: real time   39.3004
    CHARGE:  cpu time    1.2401: real time    1.2430
    MIXING:  cpu time    0.0025: real time    0.0025
    --------------------------------------------
      LOOP:  cpu time   40.5197: real time   40.6156

 eigenvalue-minimisations  : 20896
 total energy-change (2. order) : 0.3868301E+01  (-0.6865183E+00)
 number of electron     352.0000009 magnetization 
 augmentation part      114.6686016 magnetization 

 Broyden mixing:
  rms(total) = 0.18903E+01    rms(broyden)= 0.18893E+01
  rms(prec ) = 0.28025E+01
  weight for this iteration     100.00

 eigenvalues of (default mixing * dielectric matrix)
  average eigenvalue GAMMA=   0.4179
  1.3965  0.4561  0.4561  0.4450  0.2054  0.2054  0.0895  0.0895

 Free energy of the ion-electron system (eV)
  ---------------------------------------------------
  alpha Z        PSCENC =       972.54880997
  Ewald energy   TEWEN  =    -18983.00659012
  -Hartree energ DENC   =    -12124.32342073
  -exchange      EXHF   =         0.00000000
  -V(xc)+E(xc)   XCENC  =      1393.91399975
  PAW double counting   =     32777.19659634   -33936.82599930
  entropy T*S    EENTRO =        -0.00018344
  eigenvalues    EBANDS =     -1397.79829615
  atomic energy  EATOM  =     31013.67235384
  Solvation  Ediel_sol  =         0.00000000
  ---------------------------------------------------
  free energy    TOTEN  =      -284.62272986 eV

  energy without entropy =     -284.62254641  energy(sigma->0) =     -284.62263814


--------------------------------------------------------------------------------------------------------




--------------------------------------- Iteration      1(  14)  ---------------------------------------


    POTLOK:  cpu time    0.0600: real time    0.0601
    SETDIJ:  cpu time    0.0069: real time    0.0069
     EDDAV:  cpu time   45.7692: real time   45.8776
    CHARGE:  cpu time    1.4215: real time    1.4249
    MIXING:  cpu time    0.0027: real time    0.0027
    --------------------------------------------
      LOOP:  cpu time   47.2603: real time   47.3722

 eigenvalue-minimisations  : 23632
 total energy-change (2. order) : 0.1595682E+01  (-0.3101967E+00)
 number of electron     352.0000010 magnetization 
 augmentation part      114.4771736 magnetization 

 Broyden mixing:
  rms(total) = 0.11971E+01    rms(broyden)= 0.11967E+01
  rms(prec ) = 0.17442E+01
  weight for this iteration     100.00

 eigenvalues of (default mixing * dielectric matrix)
  average eigenvalue GAMMA=   0.4080
  1.3831  0.4928  0.4928  0.3632  0.3632  0.2394  0.1585  0.0896  0.0896

 Free energy of the ion-electron system (eV)
  ---------------------------------------------------
  alpha Z        PSCENC =       972.54880997
  Ewald energy   TEWEN  =    -18983.00659012
  -Hartree energ DENC   =    -12129.53333941
  -exchange      EXHF   =         0.00000000
  -V(xc)+E(xc)   XCENC  =      1394.07520064
  PAW double counting   =     32812.23505484   -33971.03933783
  entropy T*S    EENTRO =        -0.00001598
  eigenvalues    EBANDS =     -1391.97918378
  atomic energy  EATOM  =     31013.67235384
  Solvation  Ediel_sol  =         0.00000000
  ---------------------------------------------------
  free energy    TOTEN  =      -283.02704784 eV

  energy without entropy =     -283.02703186  energy(sigma->0) =     -283.02703985


--------------------------------------------------------------------------------------------------------




--------------------------------------- Iteration      1(  15)  ---------------------------------------


    POTLOK:  cpu time    0.0609: real time    0.0610
    SETDIJ:  cpu time    0.0066: real time    0.0066
     EDDAV:  cpu time   46.5277: real time   46.6378
    CHARGE:  cpu time    1.3544: real time    1.3576
    MIXING:  cpu time    0.0028: real time    0.0028
    --------------------------------------------
      LOOP:  cpu time   47.9523: real time   48.0658

 eigenvalue-minimisations  : 22944
 total energy-change (2. order) : 0.4426644E+00  (-0.1132113E+00)
 number of electron     352.0000006 magnetization 
 augmentation part      114.5063820 magnetization 

 Broyden mixing:
  rms(total) = 0.90455E+00    rms(broyden)= 0.90438E+00
  rms(prec ) = 0.12690E+01
  weight for this iteration     100.00

 eigenvalues of (default mixing * dielectric matrix)
  average eigenvalue GAMMA=   0.4438
  1.4779  0.6632  0.6632  0.4294  0.4294  0.2350  0.2054  0.1555  0.0895  0.0895

 Free energy of the ion-electron system (eV)
  ---------------------------------------------------
  alpha Z        PSCENC =       972.54880997
  Ewald energy   TEWEN  =    -18983.00659012
  -Hartree energ DENC   =    -12129.81823666
  -exchange      EXHF   =         0.00000000
  -V(xc)+E(xc)   XCENC  =      1394.09593974
  PAW double counting   =     32859.72270677   -34018.24184278
  entropy T*S    EENTRO =        -0.00002632
  eigenvalues    EBANDS =     -1391.55749791
  atomic energy  EATOM  =     31013.67235384
  Solvation  Ediel_sol  =         0.00000000
  ---------------------------------------------------
  free energy    TOTEN  =      -282.58438347 eV

  energy without entropy =     -282.58435715  energy(sigma->0) =     -282.58437031


--------------------------------------------------------------------------------------------------------




--------------------------------------- Iteration      1(  16)  ---------------------------------------


    POTLOK:  cpu time    0.0615: real time    0.0617
    SETDIJ:  cpu time    0.0068: real time    0.0068
     EDDAV:  cpu time   42.8543: real time   42.9558
    CHARGE:  cpu time    1.2492: real time    1.2522
    MIXING:  cpu time    0.0033: real time    0.0112
    --------------------------------------------
      LOOP:  cpu time   44.1751: real time   44.2877

 eigenvalue-minimisations  : 22240
 total energy-change (2. order) : 0.3134593E+00  (-0.4987472E-01)
 number of electron     352.0000008 magnetization 
 augmentation part      114.8664228 magnetization 

 Broyden mixing:
  rms(total) = 0.71975E+00    rms(broyden)= 0.71963E+00
  rms(prec ) = 0.97884E+00
  weight for this iteration     100.00

 eigenvalues of (default mixing * dielectric matrix)
  average eigenvalue GAMMA=   0.4870
  1.6756  0.8628  0.8628  0.4463  0.4463  0.3220  0.2146  0.2013  0.0895  0.0895
  0.1457

 Free energy of the ion-electron system (eV)
  ---------------------------------------------------
  alpha Z        PSCENC =       972.54880997
  Ewald energy   TEWEN  =    -18983.00659012
  -Hartree energ DENC   =    -12126.11727798
  -exchange      EXHF   =         0.00000000
  -V(xc)+E(xc)   XCENC  =      1394.03315002
  PAW double counting   =     32990.26114046   -34148.58134490
  entropy T*S    EENTRO =        -0.00002743
  eigenvalues    EBANDS =     -1395.08113802
  atomic energy  EATOM  =     31013.67235384
  Solvation  Ediel_sol  =         0.00000000
  ---------------------------------------------------
  free energy    TOTEN  =      -282.27092417 eV

  energy without entropy =     -282.27089673  energy(sigma->0) =     -282.27091045


--------------------------------------------------------------------------------------------------------




--------------------------------------- Iteration      1(  17)  ---------------------------------------


    POTLOK:  cpu time    0.0585: real time    0.0586
    SETDIJ:  cpu time    0.0069: real time    0.0069
     EDDAV:  cpu time   42.0981: real time   42.1978
    CHARGE:  cpu time    1.4085: real time    1.4118
    MIXING:  cpu time    0.0031: real time    0.0031
    --------------------------------------------
      LOOP:  cpu time   43.5751: real time   43.6783

 eigenvalue-minimisations  : 21104
 total energy-change (2. order) : 0.1845909E+00  (-0.5178247E-01)
 number of electron     352.0000008 magnetization 
 augmentation part      115.4000462 magnetization 

 Broyden mixing:
  rms(total) = 0.49599E+00    rms(broyden)= 0.49580E+00
  rms(prec ) = 0.68637E+00
  weight for this iteration     100.00

 eigenvalues of (default mixing * dielectric matrix)
  average eigenvalue GAMMA=   0.5241
  1.8623  1.0241  1.0241  0.5201  0.4509  0.4509  0.2275  0.2275  0.0895  0.0895
  0.1765  0.1464

 Free energy of the ion-electron system (eV)
  ---------------------------------------------------
  alpha Z        PSCENC =       972.54880997
  Ewald energy   TEWEN  =    -18983.00659012
  -Hartree energ DENC   =    -12120.78040595
  -exchange      EXHF   =         0.00000000
  -V(xc)+E(xc)   XCENC  =      1393.97678203
  PAW double counting   =     33185.20240773   -34343.56779112
  entropy T*S    EENTRO =        -0.00004748
  eigenvalues    EBANDS =     -1400.13185214
  atomic energy  EATOM  =     31013.67235384
  Solvation  Ediel_sol  =         0.00000000
  ---------------------------------------------------
  free energy    TOTEN  =      -282.08633324 eV

  energy without entropy =     -282.08628576  energy(sigma->0) =     -282.08630950


--------------------------------------------------------------------------------------------------------




--------------------------------------- Iteration      1(  18)  ---------------------------------------


    POTLOK:  cpu time    0.0626: real time    0.0627
    SETDIJ:  cpu time    0.0076: real time    0.0076
     EDDAV:  cpu time   49.2939: real time   49.4106
    CHARGE:  cpu time    1.2977: real time    1.3008
    MIXING:  cpu time    0.0033: real time    0.0033
    --------------------------------------------
      LOOP:  cpu time   50.6651: real time   50.7851

 eigenvalue-minimisations  : 24944
 total energy-change (2. order) : 0.6096415E-01  (-0.3537828E-01)
 number of electron     352.0000006 magnetization 
 augmentation part      115.6634321 magnetization 

 Broyden mixing:
  rms(total) = 0.31866E+00    rms(broyden)= 0.31848E+00
  rms(prec ) = 0.45613E+00
  weight for this iteration     100.00

 eigenvalues of (default mixing * dielectric matrix)
  average eigenvalue GAMMA=   0.5392
  1.9373  1.0072  1.0072  0.9074  0.4468  0.4468  0.3129  0.2216  0.2216  0.0895
  0.0895  0.1769  0.1453

 Free energy of the ion-electron system (eV)
  ---------------------------------------------------
  alpha Z        PSCENC =       972.54880997
  Ewald energy   TEWEN  =    -18983.00659012
  -Hartree energ DENC   =    -12120.24543606
  -exchange      EXHF   =         0.00000000
  -V(xc)+E(xc)   XCENC  =      1394.05541980
  PAW double counting   =     33355.48680677   -34514.39191386
  entropy T*S    EENTRO =        -0.00001089
  eigenvalues    EBANDS =     -1400.14480853
  atomic energy  EATOM  =     31013.67235384
  Solvation  Ediel_sol  =         0.00000000
  ---------------------------------------------------
  free energy    TOTEN  =      -282.02536909 eV

  energy without entropy =     -282.02535819  energy(sigma->0) =     -282.02536364


--------------------------------------------------------------------------------------------------------




--------------------------------------- Iteration      1(  19)  ---------------------------------------


    POTLOK:  cpu time    0.0632: real time    0.0634
    SETDIJ:  cpu time    0.0070: real time    0.0070
     EDDAV:  cpu time   45.6545: real time   45.7626
    CHARGE:  cpu time    1.1135: real time    1.1161
    MIXING:  cpu time    0.0030: real time    0.0031
    --------------------------------------------
      LOOP:  cpu time   46.8412: real time   46.9521

 eigenvalue-minimisations  : 24128
 total energy-change (2. order) : 0.1941436E-01  (-0.1944893E-01)
 number of electron     352.0000008 magnetization 
 augmentation part      115.5814668 magnetization 

 Broyden mixing:
  rms(total) = 0.25715E+00    rms(broyden)= 0.25704E+00
  rms(prec ) = 0.36008E+00
  weight for this iteration     100.00

 eigenvalues of (default mixing * dielectric matrix)
  average eigenvalue GAMMA=   0.5469
  2.1904  1.1425  0.9100  0.9100  0.4439  0.4439  0.4336  0.0895  0.0895  0.2399
  0.2399  0.2070  0.1447  0.1714

 Free energy of the ion-electron system (eV)
  ---------------------------------------------------
  alpha Z        PSCENC =       972.54880997
  Ewald energy   TEWEN  =    -18983.00659012
  -Hartree energ DENC   =    -12123.43918946
  -exchange      EXHF   =         0.00000000
  -V(xc)+E(xc)   XCENC  =      1394.18270450
  PAW double counting   =     33457.86435855   -34617.62957305
  entropy T*S    EENTRO =        -0.00005303
  eigenvalues    EBANDS =     -1396.19877594
  atomic energy  EATOM  =     31013.67235384
  Solvation  Ediel_sol  =         0.00000000
  ---------------------------------------------------
  free energy    TOTEN  =      -282.00595472 eV

  energy without entropy =     -282.00590170  energy(sigma->0) =     -282.00592821


--------------------------------------------------------------------------------------------------------




--------------------------------------- Iteration      1(  20)  ---------------------------------------


    POTLOK:  cpu time    0.0550: real time    0.0552
    SETDIJ:  cpu time    0.0067: real time    0.0067
     EDDAV:  cpu time   47.0544: real time   47.1658
    CHARGE:  cpu time    1.4256: real time    1.4290
    MIXING:  cpu time    0.0036: real time    0.0037
    --------------------------------------------
      LOOP:  cpu time   48.5454: real time   48.6604

 eigenvalue-minimisations  : 23328
 total energy-change (2. order) : 0.1643566E-01  (-0.9191796E-02)
 number of electron     352.0000006 magnetization 
 augmentation part      115.6127753 magnetization 

 Broyden mixing:
  rms(total) = 0.15593E+00    rms(broyden)= 0.15583E+00
  rms(prec ) = 0.23031E+00
  weight for this iteration     100.00

 eigenvalues of (default mixing * dielectric matrix)
  average eigenvalue GAMMA=   0.5527
  2.3101  1.2673  0.8896  0.8896  0.5896  0.4452  0.4452  0.3020  0.0895  0.0895
  0.2376  0.2232  0.1451  0.1944  0.1732

 Free energy of the ion-electron system (eV)
  ---------------------------------------------------
  alpha Z        PSCENC =       972.54880997
  Ewald energy   TEWEN  =    -18983.00659012
  -Hartree energ DENC   =    -12123.88965779
  -exchange      EXHF   =         0.00000000
  -V(xc)+E(xc)   XCENC  =      1394.19586712
  PAW double counting   =     33520.87635879   -34681.09408747
  entropy T*S    EENTRO =        -0.00001456
  eigenvalues    EBANDS =     -1395.29255885
  atomic energy  EATOM  =     31013.67235384
  Solvation  Ediel_sol  =         0.00000000
  ---------------------------------------------------
  free energy    TOTEN  =      -281.98951906 eV

  energy without entropy =     -281.98950451  energy(sigma->0) =     -281.98951179


--------------------------------------------------------------------------------------------------------




--------------------------------------- Iteration      1(  21)  ---------------------------------------


    POTLOK:  cpu time    0.0621: real time    0.0622
    SETDIJ:  cpu time    0.0069: real time    0.0069
     EDDAV:  cpu time   43.7715: real time   43.8751
    CHARGE:  cpu time    1.3576: real time    1.3608
    MIXING:  cpu time    0.0036: real time    0.0037
    --------------------------------------------
      LOOP:  cpu time   45.2017: real time   45.3087

 eigenvalue-minimisations  : 22784
 total energy-change (2. order) : 0.1067550E-01  (-0.2633948E-02)
 number of electron     352.0000007 magnetization 
 augmentation part      115.5918192 magnetization 

 Broyden mixing:
  rms(total) = 0.10549E+00    rms(broyden)= 0.10545E+00
  rms(prec ) = 0.14880E+00
  weight for this iteration     100.00

 eigenvalues of (default mixing * dielectric matrix)
  average eigenvalue GAMMA=   0.5516
  2.3741  1.3060  0.8909  0.8909  0.7151  0.4480  0.4480  0.3464  0.2924  0.0895
  0.0895  0.2202  0.2202  0.1448  0.1818  0.1676

 Free energy of the ion-electron system (eV)
  ---------------------------------------------------
  alpha Z        PSCENC =       972.54880997
  Ewald energy   TEWEN  =    -18983.00659012
  -Hartree energ DENC   =    -12124.06581251
  -exchange      EXHF   =         0.00000000
  -V(xc)+E(xc)   XCENC  =      1394.17624257
  PAW double counting   =     33542.29912048   -34702.65976931
  entropy T*S    EENTRO =        -0.00002678
  eigenvalues    EBANDS =     -1394.94317169
  atomic energy  EATOM  =     31013.67235384
  Solvation  Ediel_sol  =         0.00000000
  ---------------------------------------------------
  free energy    TOTEN  =      -281.97884356 eV

  energy without entropy =     -281.97881678  energy(sigma->0) =     -281.97883017


--------------------------------------------------------------------------------------------------------




--------------------------------------- Iteration      1(  22)  ---------------------------------------


    POTLOK:  cpu time    0.0593: real time    0.0594
    SETDIJ:  cpu time    0.0067: real time    0.0068
     EDDAV:  cpu time   45.5037: real time   45.6114
    CHARGE:  cpu time    1.3126: real time    1.3157
    MIXING:  cpu time    0.0036: real time    0.0036
    --------------------------------------------
      LOOP:  cpu time   46.8859: real time   46.9969

 eigenvalue-minimisations  : 23600
 total energy-change (2. order) : 0.2948215E-02  (-0.9479870E-03)
 number of electron     352.0000007 magnetization 
 augmentation part      115.5825676 magnetization 

 Broyden mixing:
  rms(total) = 0.77315E-01    rms(broyden)= 0.77301E-01
  rms(prec ) = 0.10820E+00
  weight for this iteration     100.00

 eigenvalues of (default mixing * dielectric matrix)
  average eigenvalue GAMMA=   0.5648
  2.4683  1.1847  1.0356  0.9277  0.9277  0.4489  0.4489  0.4532  0.3457  0.0895
  0.0895  0.2373  0.2373  0.2115  0.1449  0.1695  0.1822

 Free energy of the ion-electron system (eV)
  ---------------------------------------------------
  alpha Z        PSCENC =       972.54880997
  Ewald energy   TEWEN  =    -18983.00659012
  -Hartree energ DENC   =    -12123.78888497
  -exchange      EXHF   =         0.00000000
  -V(xc)+E(xc)   XCENC  =      1394.14501009
  PAW double counting   =     33551.11913151   -34711.46592795
  entropy T*S    EENTRO =        -0.00001825
  eigenvalues    EBANDS =     -1395.19977946
  atomic energy  EATOM  =     31013.67235384
  Solvation  Ediel_sol  =         0.00000000
  ---------------------------------------------------
  free energy    TOTEN  =      -281.97589534 eV

  energy without entropy =     -281.97587710  energy(sigma->0) =     -281.97588622


--------------------------------------------------------------------------------------------------------




--------------------------------------- Iteration      1(  23)  ---------------------------------------


    POTLOK:  cpu time    0.0594: real time    0.0596
    SETDIJ:  cpu time    0.0069: real time    0.0069
     EDDAV:  cpu time   48.1129: real time   48.2268
    CHARGE:  cpu time    1.3236: real time    1.3267
    MIXING:  cpu time    0.0039: real time    0.0039
    --------------------------------------------
      LOOP:  cpu time   49.5067: real time   49.6239

 eigenvalue-minimisations  : 23984
 total energy-change (2. order) : 0.1597206E-02  (-0.3830866E-03)
 number of electron     352.0000007 magnetization 
 augmentation part      115.5842226 magnetization 

 Broyden mixing:
  rms(total) = 0.59918E-01    rms(broyden)= 0.59910E-01
  rms(prec ) = 0.84617E-01
  weight for this iteration     100.00

 eigenvalues of (default mixing * dielectric matrix)
  average eigenvalue GAMMA=   0.5751
  2.4687  1.2317  1.2317  0.9624  0.9624  0.5371  0.4468  0.4468  0.4284  0.2975
  0.0895  0.0895  0.2318  0.2318  0.2052  0.1449  0.1790  0.1676

 Free energy of the ion-electron system (eV)
  ---------------------------------------------------
  alpha Z        PSCENC =       972.54880997
  Ewald energy   TEWEN  =    -18983.00659012
  -Hartree energ DENC   =    -12123.31251662
  -exchange      EXHF   =         0.00000000
  -V(xc)+E(xc)   XCENC  =      1394.10576922
  PAW double counting   =     33559.15386064   -34719.46774824
  entropy T*S    EENTRO =        -0.00001706
  eigenvalues    EBANDS =     -1395.66821976
  atomic energy  EATOM  =     31013.67235384
  Solvation  Ediel_sol  =         0.00000000
  ---------------------------------------------------
  free energy    TOTEN  =      -281.97429814 eV

  energy without entropy =     -281.97428107  energy(sigma->0) =     -281.97428961


--------------------------------------------------------------------------------------------------------




--------------------------------------- Iteration      1(  24)  ---------------------------------------


    POTLOK:  cpu time    0.0595: real time    0.0596
    SETDIJ:  cpu time    0.0069: real time    0.0070
     EDDAV:  cpu time   45.6988: real time   45.8070
    CHARGE:  cpu time    1.3665: real time    1.3697
    MIXING:  cpu time    0.0042: real time    0.0042
    --------------------------------------------
      LOOP:  cpu time   47.1359: real time   47.2475

 eigenvalue-minimisations  : 24272
 total energy-change (2. order) : 0.1393546E-02  (-0.2285722E-03)
 number of electron     352.0000007 magnetization 
 augmentation part      115.5635702 magnetization 

 Broyden mixing:
  rms(total) = 0.42098E-01    rms(broyden)= 0.42089E-01
  rms(prec ) = 0.59307E-01
  weight for this iteration     100.00

 eigenvalues of (default mixing * dielectric matrix)
  average eigenvalue GAMMA=   0.5965
  2.3792  1.8236  1.1886  0.9570  0.9570  0.7765  0.4466  0.4466  0.4611  0.3300
  0.0895  0.0895  0.2539  0.2303  0.2151  0.1449  0.1978  0.1782  0.1679

 Free energy of the ion-electron system (eV)
  ---------------------------------------------------
  alpha Z        PSCENC =       972.54880997
  Ewald energy   TEWEN  =    -18983.00659012
  -Hartree energ DENC   =    -12123.28515574
  -exchange      EXHF   =         0.00000000
  -V(xc)+E(xc)   XCENC  =      1394.08792468
  PAW double counting   =     33559.18525304   -34719.45711622
  entropy T*S    EENTRO =        -0.00001456
  eigenvalues    EBANDS =     -1395.71836949
  atomic energy  EATOM  =     31013.67235384
  Solvation  Ediel_sol  =         0.00000000
  ---------------------------------------------------
  free energy    TOTEN  =      -281.97290459 eV

  energy without entropy =     -281.97289004  energy(sigma->0) =     -281.97289731


--------------------------------------------------------------------------------------------------------




--------------------------------------- Iteration      1(  25)  ---------------------------------------


    POTLOK:  cpu time    0.0615: real time    0.0617
    SETDIJ:  cpu time    0.0068: real time    0.0069
     EDDAV:  cpu time   48.1103: real time   48.2242
    CHARGE:  cpu time    1.1087: real time    1.1113
    MIXING:  cpu time    0.0040: real time    0.0040
    --------------------------------------------
      LOOP:  cpu time   49.2913: real time   49.4080

 eigenvalue-minimisations  : 24800
 total energy-change (2. order) : 0.1065832E-02  (-0.1865016E-03)
 number of electron     352.0000007 magnetization 
 augmentation part      115.5347344 magnetization 

 Broyden mixing:
  rms(total) = 0.20876E-01    rms(broyden)= 0.20863E-01
  rms(prec ) = 0.30342E-01
  weight for this iteration     100.00

 eigenvalues of (default mixing * dielectric matrix)
  average eigenvalue GAMMA=   0.6180
  2.3417  2.3417  1.2621  0.9535  0.9535  0.8389  0.4468  0.4468  0.4869  0.4165
  0.3178  0.0895  0.0895  0.2498  0.2216  0.2216  0.1449  0.1915  0.1774  0.1673

 Free energy of the ion-electron system (eV)
  ---------------------------------------------------
  alpha Z        PSCENC =       972.54880997
  Ewald energy   TEWEN  =    -18983.00659012
  -Hartree energ DENC   =    -12123.51413488
  -exchange      EXHF   =         0.00000000
[...]
 total augmentation occupancy for first ion, spin component:           1
  6.395   0.058  -0.179   0.052   0.468  -3.489  -0.095   0.281  -0.076  -0.225  -0.393   0.078  -0.137  -0.018  -0.003   0.022
  0.058   6.555   0.425   0.111  -0.021  -0.095  -3.631  -0.343  -0.134   0.143  -0.321   0.070  -0.173  -0.064  -0.015   0.022
 -0.179   0.425   3.146   0.102   0.243   0.262  -0.337  -2.405  -0.216  -0.570   0.389  -0.077  -0.015  -0.372   0.118   0.003
  0.052   0.111   0.102   5.624   0.091  -0.074  -0.132  -0.235  -2.670  -0.190  -0.482   0.076  -0.015  -0.162  -0.104   0.002
  0.468  -0.021   0.243   0.091   2.993  -0.227   0.127  -0.570  -0.156  -2.647   0.866  -0.183   0.035   0.057  -0.140  -0.000
 -3.489  -0.095   0.262  -0.074  -0.227   2.565   0.123  -0.347   0.095   0.048   0.395  -0.086   0.131   0.016  -0.003  -0.021
 -0.095  -3.631  -0.337  -0.132   0.127   0.123   2.691   0.280   0.151  -0.225   0.321  -0.074   0.175   0.051   0.015  -0.028
  0.281  -0.343  -2.405  -0.235  -0.570  -0.347   0.280   2.947   0.309   0.878  -0.485   0.108   0.028   0.430  -0.100  -0.007
 -0.076  -0.134  -0.216  -2.670  -0.156   0.095   0.151   0.309   1.725   0.235   0.452  -0.085   0.015   0.162   0.111  -0.002
 -0.225   0.143  -0.570  -0.190  -2.647   0.048  -0.225   0.878   0.235   3.559  -1.000   0.230  -0.005  -0.046   0.144  -0.006
 -0.393  -0.321   0.389  -0.482   0.866   0.395   0.321  -0.485   0.452  -1.000   2.060  -0.374  -0.009   0.214   0.108   0.001
  0.078   0.070  -0.077   0.076  -0.183  -0.086  -0.074   0.108  -0.085   0.230  -0.374   0.107  -0.005  -0.051  -0.028   0.000
 -0.137  -0.173  -0.015  -0.015   0.035   0.131   0.175   0.028   0.015  -0.005  -0.009  -0.005   0.533   0.031   0.039  -0.086
 -0.018  -0.064  -0.372  -0.162   0.057   0.016   0.051   0.430   0.162  -0.046   0.214  -0.051   0.031   0.271   0.036  -0.006
 -0.003  -0.015   0.118  -0.104  -0.140  -0.003   0.015  -0.100   0.111   0.144   0.108  -0.028   0.039   0.036   0.275  -0.007
  0.022   0.022   0.003   0.002  -0.000  -0.021  -0.028  -0.007  -0.002  -0.006   0.001   0.000  -0.086  -0.006  -0.007   0.020
  0.003   0.028   0.064   0.036  -0.003  -0.003  -0.018  -0.081  -0.034   0.004  -0.050   0.014  -0.006  -0.043  -0.007   0.002
  0.019   0.002  -0.011   0.018   0.025  -0.009  -0.002   0.011  -0.022  -0.026  -0.026   0.008  -0.007  -0.007  -0.041   0.002


------------------------ aborting loop because EDIFF is reached ----------------------------------------


    CHARGE:  cpu time    1.4323: real time    1.4356
    FORLOC:  cpu time    0.0256: real time    0.0257
    FORNL :  cpu time   10.5890: real time   10.6141
    STRESS:  cpu time   29.2638: real time   29.3331
    FORCOR:  cpu time    0.0801: real time    0.0803
    FORHAR:  cpu time    0.0372: real time    0.0373
    MIXING:  cpu time    0.0047: real time    0.0048
    OFIELD:  cpu time    0.0001: real time    0.0001

  FORCE on cell =-STRESS in cart. coord.  units (eV):
  Direction    XX          YY          ZZ          XY          YZ          ZX
  --------------------------------------------------------------------------------------
  Alpha Z   972.54881   972.54881   972.54881
  Ewald   -6277.28530 -6438.47413 -6267.36085  -118.52461    32.41821   -59.49242
  Hartree  4117.43855  3991.89006  4015.65823   -85.36399    13.88304   -55.54299
  E(xc)   -1783.13605 -1783.28197 -1783.56037    -0.05224    -0.00358     0.01565
  Local   -4625.72042 -4333.48650 -4512.56629   199.71547   -43.13905   117.80356
  n-local  -796.82417  -795.13425  -789.46337    -0.55154     0.80041    -0.21304
  augment  3005.26159  3003.40631  2994.14572     1.98737    -1.37165    -1.46896
  Kinetic  5342.81098  5345.61734  5342.60489     4.69926    -3.16647    -2.04072
  Fock        0.00000     0.00000     0.00000     0.00000     0.00000     0.00000
  -------------------------------------------------------------------------------------
  Total      -44.9059956    -36.9143396    -27.9932409      1.9097206     -0.5791022     -0.9389056
  in kB     -127.6651888   -104.9453659    -79.5831901      5.4292270     -1.6463547     -2.6692552
  external PRESSURE =    -104.0645816 kB  Pullay stress =       0.0000000 kB


 VOLUME and BASIS-vectors are now :
 -----------------------------------------------------------------------------
  energy-cutoff  :      500.00
  volume of cell :      563.56
      direct lattice vectors                 reciprocal lattice vectors
     8.260014440  0.000000000  0.000000000     0.121065164  0.000000000  0.000000000
     0.000000000  8.260014440  0.000000000     0.000000000  0.121065164  0.000000000
     0.000000000  0.000000000  8.260014440     0.000000000  0.000000000  0.121065164

  length of vectors
     8.260014440  8.260014440  8.260014440     0.121065164  0.121065164  0.121065164


 FORCES acting on ions
    electron-ion (+dipol)            ewald-force                    non-local-force                 convergence-correction
 -----------------------------------------------------------------------------------------------
   0.160E+03 -.890E+01 0.218E+03   -.161E+03 0.679E+01 -.218E+03   0.594E+00 0.138E+01 -.868E+00   -.501E-02 0.113E-02 0.133E-01
   -.472E+02 -.173E+03 0.251E+03   0.506E+02 0.175E+03 -.254E+03   -.233E+00 -.836E+00 -.904E-01   -.142E-01 0.305E-01 0.291E-01
   0.486E+01 -.886E+02 0.153E+02   -.201E+01 0.876E+02 -.139E+02   -.262E+00 0.211E+00 0.161E+01   -.119E-01 0.353E-01 -.863E-02
   0.174E+03 -.147E+03 0.714E+02   -.175E+03 0.148E+03 -.744E+02   -.114E+00 0.380E+00 -.773E+00   0.117E-01 0.130E-01 0.921E-02
   0.210E+03 0.173E+03 0.159E+02   -.212E+03 -.173E+03 -.183E+02   -.649E+00 -.331E+00 0.209E+01   0.949E-02 -.248E-01 0.213E-01
   0.661E+02 0.169E+03 -.140E+03   -.687E+02 -.179E+03 0.141E+03   0.423E+00 -.130E+00 -.154E+01   0.881E-02 -.204E-01 0.429E-01
   -.368E+02 0.203E+03 -.231E+03   0.396E+02 -.204E+03 0.232E+03   -.230E+01 0.302E+00 0.825E+00   -.138E-01 0.255E-01 0.216E-02
   0.243E+03 -.257E+02 -.247E+03   -.246E+03 0.291E+02 0.248E+03   -.425E-01 -.129E+01 -.136E-01   0.192E-01 -.455E-01 0.186E-01
   -.957E+02 -.746E+02 -.442E+02   0.969E+02 0.751E+02 0.447E+02   -.590E+00 -.133E+01 0.128E+00   0.236E-01 0.709E-02 0.531E-02
   -.156E+03 -.234E+03 0.469E+00   0.156E+03 0.237E+03 -.357E+01   -.540E+00 -.175E+00 0.136E+01   0.125E-01 0.441E-05 -.245E-02
   -.208E+03 0.101E+03 -.287E+03   0.210E+03 -.106E+03 0.292E+03   -.137E+01 0.109E+01 -.248E+00   -.813E-02 -.398E-03 -.174E-01
   0.513E+02 -.203E+03 -.169E+03   -.549E+02 0.203E+03 0.172E+03   0.140E+01 -.766E-01 -.910E+00   0.164E-01 0.141E-01 -.733E-02
   0.244E+02 0.229E+03 0.228E+03   -.264E+02 -.232E+03 -.230E+03   0.179E+01 -.573E+00 0.252E+00   0.140E-01 0.265E-01 0.286E-02
   -.192E+03 -.310E+02 0.216E+03   0.194E+03 0.333E+02 -.218E+03   -.804E+00 -.173E+01 -.826E+00   -.210E-01 -.359E-01 0.727E-02
   -.182E+03 0.181E+03 -.189E+02   0.182E+03 -.182E+03 0.225E+02   0.214E+00 0.624E+00 -.528E+00   -.133E-01 0.150E-01 -.256E-01
   -.849E+02 0.899E+02 0.744E+02   0.858E+02 -.906E+02 -.758E+02   -.413E+00 0.603E+00 -.123E+00   0.381E-01 -.319E-01 -.317E-01
   -.253E+03 0.253E+03 0.285E+03   0.267E+03 -.267E+03 -.304E+03   -.141E+02 0.156E+02 0.185E+02   -.603E-02 0.988E-02 -.176E-01
   -.184E+03 -.256E+03 -.178E+03   0.198E+03 0.271E+03 0.195E+03   -.152E+02 -.162E+02 -.165E+02   -.109E-01 0.307E-01 0.523E-02
   0.252E+03 -.616E+02 -.566E+02   -.270E+03 0.700E+02 0.647E+02   0.184E+02 -.100E+02 -.995E+01   0.490E-02 0.743E-02 -.350E-02
   -.744E+02 -.899E+02 0.255E+03   0.829E+02 0.980E+02 -.275E+03   -.102E+02 -.100E+02 0.195E+02   0.797E-02 -.141E-01 -.112E-01
   0.254E+03 0.246E+03 0.241E+03   -.272E+03 -.261E+03 -.256E+03   0.173E+02 0.160E+02 0.142E+02   0.967E-02 -.316E-01 -.254E-01
   -.888E+02 0.229E+03 -.523E+02   0.981E+02 -.245E+03 0.603E+02   -.111E+02 0.177E+02 -.996E+01   -.646E-02 -.373E-01 -.211E-02
   0.158E+03 0.289E+03 -.189E+03   -.172E+03 -.306E+03 0.205E+03   0.144E+02 0.165E+02 -.162E+02   -.922E-02 0.326E-02 -.131E-01
   0.268E+03 -.236E+03 0.269E+03   -.285E+03 0.251E+03 -.282E+03   0.163E+02 -.149E+02 0.134E+02   -.245E-02 0.358E-01 0.142E-01
   -.240E+03 0.193E+03 0.222E+03   0.253E+03 -.210E+03 -.244E+03   -.133E+02 0.174E+02 0.189E+02   0.170E-01 -.746E-02 -.110E-01
   -.172E+03 -.158E+03 -.295E+03   0.189E+03 0.171E+03 0.312E+03   -.154E+02 -.146E+02 -.172E+02   0.696E-02 -.232E-01 0.284E-01
   0.240E+03 -.340E+03 -.204E+03   -.256E+03 0.370E+03 0.216E+03   0.163E+02 -.223E+02 -.129E+02   -.163E-01 0.313E-01 0.193E-01
   -.107E+03 -.224E+03 0.243E+02   0.118E+03 0.240E+03 -.321E+02   -.125E+02 -.162E+02 0.100E+02   0.252E-02 0.180E-02 -.119E-01
   0.238E+03 0.765E+02 0.670E+02   -.253E+03 -.844E+02 -.759E+02   0.163E+02 0.978E+01 0.107E+02   -.243E-01 0.172E-01 -.422E-02
   -.987E+02 0.555E+02 -.303E+03   0.109E+03 -.629E+02 0.328E+03   -.115E+02 0.893E+01 -.215E+02   0.661E-02 0.226E-02 -.141E-01
   0.171E+03 0.168E+03 -.287E+03   -.184E+03 -.182E+03 0.303E+03   0.146E+02 0.155E+02 -.160E+02   -.345E-03 -.252E-01 0.154E-01
   0.289E+03 -.134E+03 0.173E+03   -.305E+03 0.146E+03 -.187E+03   0.152E+02 -.129E+02 0.158E+02   -.215E-01 -.803E-02 0.780E-02
   -.200E+03 0.244E+03 0.183E+03   0.218E+03 -.254E+03 -.201E+03   -.171E+02 0.103E+02 0.173E+02   0.614E-02 -.221E-01 0.155E-01
   -.254E+03 -.298E+03 -.278E+03   0.269E+03 0.317E+03 0.295E+03   -.140E+02 -.169E+02 -.172E+02   0.240E-01 0.136E-01 0.328E-02
   0.790E+02 -.846E+02 -.229E+03   -.869E+02 0.933E+02 0.244E+03   0.997E+01 -.106E+02 -.159E+02   -.440E-02 0.571E-02 0.132E-01
   -.234E+03 -.679E+02 0.841E+02   0.253E+03 0.760E+02 -.927E+02   -.187E+02 -.948E+01 0.101E+02   -.515E-02 0.255E-01 0.653E-02
   0.698E+02 0.208E+03 0.602E+02   -.780E+02 -.220E+03 -.671E+02   0.104E+02 0.140E+02 0.854E+01   -.723E-02 -.189E-01 0.666E-02
   -.267E+03 0.263E+03 -.257E+03   0.285E+03 -.280E+03 0.276E+03   -.177E+02 0.170E+02 -.167E+02   0.295E-01 -.286E-01 -.932E-03
   0.271E+03 0.279E+03 -.270E+03   -.287E+03 -.296E+03 0.285E+03   0.159E+02 0.162E+02 -.142E+02   0.880E-02 -.634E-02 0.141E-01
   0.160E+03 -.311E+03 0.165E+03   -.172E+03 0.331E+03 -.179E+03   0.131E+02 -.181E+02 0.153E+02   -.336E-02 0.252E-01 -.200E-01
   -.146E+03 0.140E+03 0.328E+03   0.159E+03 -.152E+03 -.349E+03   -.150E+02 0.141E+02 0.186E+02   0.176E-01 -.375E-02 -.220E-01
   -.267E+03 -.156E+03 -.188E+03   0.282E+03 0.169E+03 0.206E+03   -.152E+02 -.137E+02 -.182E+02   -.663E-02 0.357E-02 -.102E-01
   0.765E+02 -.235E+03 -.651E+02   -.865E+02 0.252E+03 0.717E+02   0.121E+02 -.179E+02 -.774E+01   -.168E-01 -.127E-01 0.919E-02
   -.239E+03 -.259E+03 0.251E+03   0.254E+03 0.275E+03 -.267E+03   -.149E+02 -.151E+02 0.163E+02   0.291E-01 -.503E-02 -.204E-01
   0.104E+03 0.865E+02 0.252E+03   -.114E+03 -.959E+02 -.269E+03   0.125E+02 0.107E+02 0.172E+02   0.763E-02 -.352E-02 -.604E-02
   -.187E+03 0.764E+02 -.103E+03   0.199E+03 -.838E+02 0.112E+03   -.140E+02 0.931E+01 -.114E+02   0.521E-02 0.150E-01 0.198E-01
   0.297E+03 0.170E+03 -.140E+03   -.316E+03 -.186E+03 0.153E+03   0.164E+02 0.165E+02 -.149E+02   -.290E-01 0.202E-01 0.206E-01
   0.151E+03 -.207E+03 0.277E+03   -.164E+03 0.228E+03 -.292E+03   0.149E+02 -.194E+02 0.152E+02   0.793E-02 -.183E-01 -.585E-02
 -----------------------------------------------------------------------------------------------
   -.140E+01 0.145E+02 -.362E+01   -.171E-12 -.171E-12 -.909E-12   0.131E+01 -.146E+02 0.358E+01   0.880E-01 -.840E-02 0.583E-01
 
 
 POSITION                                       TOTAL-FORCE (eV/Angst)
 -----------------------------------------------------------------------------------
      0.88971      4.91482      0.94608        -0.328966     -0.722030     -0.305460
      2.86213      6.96806      0.95473         3.122238      0.699857     -2.227580
      2.90318      4.98089      2.87307         2.576941     -0.766147      2.972888
      0.90369      6.89093      3.00174        -0.546815      1.542885     -3.710554
      1.02514      0.96326      4.85682        -2.532345     -0.091970     -0.337977
      3.04594      3.14885      4.97594        -2.153199    -10.054163     -0.349152
      2.95744      1.02790      6.85971         0.472908     -1.569799      2.252111
      0.99222      2.92527      6.87370        -2.986689      2.069113      0.234973
      4.92505      4.93380      4.89980         0.625796     -0.886498      0.600980
      6.98600      6.87436      4.95809        -0.452264      2.815223     -1.745278
      6.94906      4.99698      6.80121         0.695288     -4.409624      4.744547
      4.94586      6.92856      6.90515        -2.177758      0.728517      1.460251
      4.89779      1.06573      0.94587        -0.162943     -3.978819     -1.719919
      6.90589      2.93798      1.02792         1.084674      0.489366     -2.848831
      6.93479      0.89296      2.85002         0.769602     -0.435876      3.088088
      4.90354      2.92847      2.97272         0.539574     -0.064566     -1.559876
      6.81390      1.02376      1.04624        -0.521245      1.052590     -0.142790
      2.83718      6.93516      2.75002        -0.587478     -1.102149      0.629826
      3.06626      0.90432      0.92178         0.284076     -1.582067     -1.810073
      0.87593      0.86296      3.07720        -1.725267     -1.872759     -0.230946
      3.06573      3.06256      3.10530        -0.328191      0.408071     -0.004535
      0.81622      3.04576      0.93932        -1.830869      1.103955     -1.931092
      5.02951      1.08104      2.78605         0.601108     -0.342637      0.031068
      1.07759      6.78618      1.10894        -0.910642     -0.429388      0.075520
      6.81532      5.05681      5.11543        -0.046507     -0.237594     -2.898853
      2.80455      2.96346      6.83812         0.677629     -0.697117      0.057740
      3.10881      4.71090      4.88003        -0.140695      8.061833     -1.059718
      0.73043      4.80431      6.76525        -1.341134     -0.745891      2.231880
      3.04856      7.01487      6.99069         1.018104      1.838541      1.841721
      0.83478      6.97207      4.65192        -1.472842      1.600544      3.498113
      5.03542      4.98402      6.81656         0.660859      1.085745     -0.528598
      1.19114      2.93081      4.94877        -0.550658     -0.531522      1.005470
      2.78612      1.09415      5.07916         1.610317      0.546615     -0.812012
      6.74072      6.75736      6.77568         0.980141      1.482391      0.149579
      6.96822      0.86556      4.79606         1.983106     -1.954623     -1.357296
      4.79442      0.86124      7.01164        -0.553110     -1.344238      1.516583
      6.94823      2.91382      6.96201         2.135673      1.880212      1.564980
      4.85672      3.05062      4.72913         0.509815      0.231789      1.987508
      1.10584      1.14474      6.67026         0.110680     -0.817570      1.001878
      4.93215      6.70682      4.95774         1.313962      1.136680      1.154114
      2.94799      4.96050      1.14606        -1.628995      1.393774     -2.064614
      6.81779      2.88208      2.85848        -0.452344     -1.231167     -0.342813
      6.94715      4.77402      0.80241         2.191333     -0.391808     -1.082648
      4.75009      4.74017      3.05882         0.533205      1.151231     -0.314190
      6.95541      7.01930      3.13028         2.173930      1.354761      0.066564
      4.95404      6.98564      0.77828        -2.061304      1.901967     -1.801284
      1.17680      5.01762      2.88654        -2.297436      0.405252     -0.954879
      4.95421      2.80795      1.10355         1.118740      1.279113     -0.025414
 -----------------------------------------------------------------------------------
    total drift:                               -0.005617     -0.026076      0.011419


--------------------------------------------------------------------------------------------------------



  FREE ENERGIE OF THE ION-ELECTRON SYSTEM (eV)
  ---------------------------------------------------
  free  energy   TOTEN  =      -281.9715900063 eV

  energy  without entropy=     -281.9715791433  energy(sigma->0) =     -281.97158457
 


--------------------------------------------------------------------------------------------------------


    POTLOK:  cpu time    0.0671: real time    0.0673


--------------------------------------------------------------------------------------------------------


     LOOP+:  cpu time 1367.7890: real time 1371.4643
    4ORBIT:  cpu time    0.0000: real time    0.0000

volume of typ            1:    18.1 %

volume of typ            2:     9.3 %
 
total charge     
 
# of ion       s       p       d       tot
------------------------------------------
    1        0.238   0.266   7.801   8.306
    2        0.255   0.300   7.796   8.352
    3        0.313   0.428   7.837   8.578
    4        0.284   0.365   7.819   8.468
    5        0.275   0.345   7.812   8.432
    6        0.344   0.484   7.877   8.704
    7        0.268   0.324   7.805   8.397
    8        0.266   0.328   7.803   8.397
    9        0.307   0.425   7.833   8.565
   10        0.264   0.325   7.810   8.398
   11        0.288   0.365   7.820   8.473
   12        0.257   0.314   7.784   8.356
   13        0.282   0.349   7.804   8.436
   14        0.261   0.314   7.789   8.365
   15        0.251   0.303   7.792   8.347
   16        0.315   0.447   7.829   8.592
   17        1.282   2.717   0.008   4.007
   18        1.293   2.683   0.008   3.984
   19        1.297   2.629   0.004   3.929
   20        1.295   2.645   0.005   3.945
   21        1.293   2.699   0.008   4.000
   22        1.297   2.620   0.004   3.921
   23        1.289   2.702   0.008   4.000
   24        1.276   2.738   0.008   4.022
   25        1.286   2.746   0.012   4.043
   26        1.288   2.702   0.008   3.998
   27        1.289   2.780   0.015   4.084
   28        1.296   2.629   0.004   3.928
   29        1.296   2.620   0.003   3.919
   30        1.293   2.687   0.008   3.988
   31        1.294   2.674   0.006   3.974
   32        1.297   2.669   0.007   3.972
   33        1.287   2.719   0.009   4.015
   34        1.276   2.764   0.011   4.051
   35        1.300   2.607   0.003   3.909
   36        1.294   2.635   0.004   3.933
   37        1.304   2.581   0.002   3.887
   38        1.285   2.745   0.010   4.040
   39        1.278   2.752   0.009   4.039
   40        1.292   2.685   0.007   3.984
   41        1.296   2.678   0.008   3.983
   42        1.291   2.683   0.007   3.981
   43        1.296   2.628   0.004   3.928
   44        1.283   2.737   0.009   4.028
   45        1.296   2.636   0.005   3.937
   46        1.301   2.592   0.002   3.896
   47        1.289   2.715   0.009   4.013
   48        1.289   2.714   0.009   4.012
--------------------------------------------------
tot          45.79   91.49  125.24  262.52
 

 total amount of memory used by VASP MPI-rank0   192745. kBytes
=======================================================================

   base      :      30000. kBytes
   nonlr-proj:      21515. kBytes
   fftplans  :       4751. kBytes
   grid      :      15225. kBytes
   one-center:        746. kBytes
   wavefun   :     120508. kBytes
 
  
  
 General timing and accounting informations for this job:
 ========================================================
  
                  Total CPU time used (sec):     1398.133
                            User time (sec):     1395.340
                          System time (sec):        2.792
                         Elapsed time (sec):     1405.474
  
                   Maximum memory used (kb):      247936.
                   Average memory used (kb):           0.
  
                          Minor page faults:        36155
                          Major page faults:           49
                 Voluntary context switches:         1201
