 vasp.5.4.4.18Apr17-6-g9f103f2a35 (build May 12 2020 04:58:55) complex          
  
 MD_VERSION_INFO: Compiled 2020-05-12T11:58:55-UTC in devlin.sd.materialsdesign.
 com:/home/medea2/data/build/wwolf/vasp-gpu5.4.4/13047/x86_64/src/src/build/std 
 from svn 13047
 
 This VASP executable licensed from Materials Design, Inc.
 
 executed on                        Lin64 date 2023.04.26  21:19:16
 running on   16 total cores
 distrk:  each k-point on   16 cores,    1 groups
 distr:  one band on NCORES_PER_BAND=   1 cores,   16 groups


--------------------------------------------------------------------------------------------------------


 INCAR:
 POTCAR:    PAW_PBE Ni 02Aug2007                  
 POTCAR:    PAW_PBE O 08Apr2002                   

 ----------------------------------------------------------------------------- 
|                                                                             |
|           W    W    AA    RRRRR   N    N  II  N    N   GGGG   !!!           |
|           W    W   A  A   R    R  NN   N  II  NN   N  G    G  !!!           |
|           W    W  A    A  R    R  N N  N  II  N N  N  G       !!!           |
|           W WW W  AAAAAA  RRRRR   N  N N  II  N  N N  G  GGG   !            |
|           WW  WW  A    A  R   R   N   NN  II  N   NN  G    G                |
|           W    W  A    A  R    R  N    N  II  N    N   GGGG   !!!           |
|                                                                             |
|      For optimal performance we recommend to set                            |
|        NCORE= 4 - approx SQRT( number of cores)                             |
|      NCORE specifies how many cores store one orbital (NPAR=cpu/NCORE).     |
|      This setting can  greatly improve the performance of VASP for DFT.     |
|      The default,   NCORE=1            might be grossly inefficient         |
|      on modern multi-core architectures or massively parallel machines.     |
|      Do your own testing !!!!                                               |
|      Unfortunately you need to use the default for GW and RPA calculations. |
|      (for HF NCORE is supported but not extensively tested yet)             |
|                                                                             |
 ----------------------------------------------------------------------------- 

 POTCAR:    PAW_PBE Ni 02Aug2007                  
  local pseudopotential read in
  partial core-charges read in
  partial kinetic energy density read in
  atomic valenz-charges read in
  non local Contribution for L=           2  read in
    real space projection operators read in
  non local Contribution for L=           2  read in
    real space projection operators read in
  non local Contribution for L=           0  read in
    real space projection operators read in
  non local Contribution for L=           0  read in
    real space projection operators read in
  non local Contribution for L=           1  read in
    real space projection operators read in
  non local Contribution for L=           1  read in
    real space projection operators read in
    PAW grid and wavefunctions read in
 
   number of l-projection  operators is LMAX  =           6
   number of lm-projection operators is LMMAX =          18
 
 POTCAR:    PAW_PBE O 08Apr2002                   
  local pseudopotential read in
  partial core-charges read in
  partial kinetic energy density read in
  kinetic energy density of atom read in
  atomic valenz-charges read in
  non local Contribution for L=           0  read in
    real space projection operators read in
  non local Contribution for L=           0  read in
    real space projection operators read in
  non local Contribution for L=           1  read in
    real space projection operators read in
  non local Contribution for L=           1  read in
    real space projection operators read in
    PAW grid and wavefunctions read in
 
   number of l-projection  operators is LMAX  =           4
   number of lm-projection operators is LMMAX =           8
 
 Optimization of the real space projectors (new method)

 maximal supplied QI-value         = 16.25
 optimisation between [QCUT,QGAM] = [ 11.38, 22.75] = [ 36.24,144.96] Ry 
 Optimized for a Real-space Cutoff    1.47 Angstroem

   l    n(q)    QCUT    max X(q) W(low)/X(q) W(high)/X(q)  e(spline) 
   2      9    11.376    60.317    0.17E-03    0.16E-04    0.16E-06
   2      9    11.376    55.921    0.17E-03    0.16E-04    0.17E-06
   0     10    11.376    51.690    0.45E-04    0.60E-04    0.21E-06
   0     10    11.376    30.015    0.37E-04    0.55E-04    0.19E-06
   1     10    11.376    18.849    0.83E-04    0.11E-03    0.92E-07
   1     10    11.376    14.624    0.69E-04    0.92E-04    0.82E-07
 Optimization of the real space projectors (new method)

 maximal supplied QI-value         = 24.76
 optimisation between [QCUT,QGAM] = [ 11.39, 22.77] = [ 36.31,145.25] Ry 
 Optimized for a Real-space Cutoff    1.10 Angstroem

   l    n(q)    QCUT    max X(q) W(low)/X(q) W(high)/X(q)  e(spline) 
   0      7    11.387    20.381    0.22E-03    0.48E-03    0.18E-06
   0      7    11.387    15.268    0.22E-03    0.52E-03    0.19E-06
   1      7    11.387     5.964    0.22E-03    0.73E-03    0.24E-06
   1      7    11.387     5.382    0.19E-03    0.60E-03    0.21E-06

 ----------------------------------------------------------------------------- 
|                                                                             |
|  ADVICE TO THIS USER RUNNING 'VASP/VAMP'   (HEAR YOUR MASTER'S VOICE ...):  |
|                                                                             |
|      You enforced a specific xc-type in the INCAR file,                     |
|      a different type was found on the POTCAR file                          |
|          I HOPE YOU KNOW, WHAT YOU ARE  DOING                               |
|                                                                             |
 ----------------------------------------------------------------------------- 

  PAW_PBE Ni 02Aug2007                  :
 energy of atom  1       EATOM=-1077.6739
 kinetic energy error for atom=    0.0030 (will be added to EATOM!!)
  PAW_PBE O 08Apr2002                   :
 energy of atom  2       EATOM= -432.3788
 kinetic energy error for atom=    0.0224 (will be added to EATOM!!)
 
 
 POSCAR: NiO2_Fd-3m_scale_1_025_disp_0_08_round_2
  positions in direct lattice
  No initial velocities read in
 exchange correlation table for  LEXCH =       14
   RHO(1)=    0.500       N(1)  =     2000
   RHO(2)=  100.500       N(2)  =     4000
 


--------------------------------------------------------------------------------------------------------


 ion  position               nearest neighbor table
   1  0.122  0.612  0.118-  22 1.87  41 1.89  47 1.91  24 1.97  28 2.04  43 2.05   2 2.69   4 2.80
                             3 2.84   8 2.93  14 2.95
   2  0.364  0.841  0.096-  41 1.81  24 1.86  29 1.88  46 1.95  18 1.99  19 2.17   1 2.69  12 2.78
                             4 2.89   7 2.93   3 2.93  13 3.01
   3  0.369  0.601  0.370-  27 1.84  21 1.85  41 1.85  47 1.87  18 1.89  44 1.92   9 2.64   6 2.77
                            16 2.79   4 2.79   1 2.84   2 2.93
   4  0.131  0.854  0.368-  24 1.83  30 1.84  47 1.88  18 1.94  20 2.08  45 2.29   3 2.79   1 2.80
                            10 2.84   5 2.87   2 2.89
   5  0.107  0.130  0.592-  20 1.72  32 1.78  35 1.89  33 2.02  39 2.03  30 2.14   6 2.74   8 2.83
                            15 2.83  10 2.86   4 2.87   7 2.93
   6  0.361  0.356  0.610-  33 1.75  21 1.85  38 1.85  32 1.86  26 1.88  27 2.10   5 2.74   3 2.77
                             7 2.78  16 2.82   8 2.85   9 2.88
   7  0.365  0.107  0.848-  26 1.83  29 1.90  39 1.98  36 1.99  33 2.02  19 2.17   6 2.78   8 2.91
                            13 2.91  12 2.92   5 2.93   2 2.93
   8  0.108  0.360  0.857-  28 1.84  37 1.89  39 1.96  32 1.98  22 2.05  26 2.08   5 2.83   6 2.85
                            11 2.89   7 2.91   1 2.93  14 3.02
   9  0.594  0.626  0.605-  27 1.59  40 1.66  31 1.89  44 1.96  25 1.97  38 2.04   3 2.64  12 2.79
                            11 2.82   6 2.88  10 2.94  16 2.95
  10  0.860  0.876  0.593-  45 1.60  35 1.94  30 1.95  25 1.98  40 2.04  34 2.04  15 2.69   4 2.84
                             5 2.86  12 2.94   9 2.94  11 2.97
  11  0.849  0.607  0.844-  25 1.73  31 1.86  34 1.89  37 2.00  28 2.06  43 2.09  12 2.71   9 2.82
                             8 2.89  10 2.97  14 2.99
  12  0.621  0.852  0.866-  34 1.86  29 1.96  31 1.97  40 1.98  36 2.01  46 2.20  11 2.71   2 2.78
                             9 2.79   7 2.92  10 2.94  13 3.00
  13  0.604  0.125  0.118-  19 1.80  23 1.85  48 1.85  17 1.99  46 2.03  36 2.05  16 2.69  15 2.75
                            14 2.78   7 2.91  12 3.00   2 3.01
  14  0.849  0.368  0.128-  42 1.68  48 1.75  17 1.98  43 1.99  37 2.00  22 2.19  16 2.72  15 2.78
                            13 2.78   1 2.95  11 2.99   8 3.02
  15  0.845  0.114  0.359-  23 1.77  17 1.83  35 1.83  20 2.00  45 2.05  42 2.05  10 2.69  16 2.71
                            13 2.75  14 2.78   5 2.83
  16  0.608  0.352  0.363-  23 1.77  42 1.78  48 1.82  21 1.87  44 1.88  38 2.09  13 2.69  15 2.71
                            14 2.72   3 2.79   6 2.82   9 2.95
  17  0.851  0.122  0.133-  15 1.83  14 1.98  13 1.99
  18  0.370  0.834  0.343-   3 1.89   4 1.94   2 1.99
  19  0.382  0.108  0.117-  13 1.80   2 2.17   7 2.17
  20  0.092  0.109  0.381-   5 1.72  15 2.00   4 2.08
  21  0.379  0.372  0.382-   3 1.85   6 1.85  16 1.87
  22  0.120  0.380  0.110-   1 1.87   8 2.05  14 2.19
  23  0.627  0.133  0.345-  15 1.77  16 1.77  13 1.85
  24  0.139  0.855  0.142-   4 1.83   2 1.86   1 1.97
  25  0.838  0.635  0.633-  11 1.73   9 1.97  10 1.98
  26  0.364  0.333  0.842-   7 1.83   6 1.88   8 2.08
  27  0.398  0.613  0.595-   9 1.59   3 1.84   6 2.10
  28  0.102  0.588  0.867-   8 1.84   1 2.04  11 2.06
  29  0.379  0.872  0.865-   2 1.88   7 1.90  12 1.96
  30  0.102  0.865  0.594-   4 1.84  10 1.95   5 2.14
  31  0.618  0.609  0.838-  11 1.86   9 1.89  12 1.97
  32  0.130  0.349  0.613-   5 1.78   6 1.86   8 1.98
  33  0.358  0.139  0.600-   6 1.75   7 2.02   5 2.02
  34  0.850  0.841  0.844-  12 1.86  11 1.89  10 2.04
  35  0.873  0.115  0.584-  15 1.83   5 1.89  10 1.94
  36  0.611  0.101  0.864-   7 1.99  12 2.01  13 2.05
  37  0.875  0.363  0.881-   8 1.89  14 2.00  11 2.00
  38  0.590  0.374  0.620-   6 1.85   9 2.04  16 2.09
  39  0.120  0.118  0.844-   8 1.96   7 1.98   5 2.03
  40  0.613  0.830  0.621-   9 1.66  12 1.98  10 2.04
  41  0.355  0.621  0.141-   2 1.81   3 1.85   1 1.89
  42  0.826  0.366  0.334-  14 1.68  16 1.78  15 2.05
  43  0.869  0.614  0.103-  14 1.99   1 2.05  11 2.09
  44  0.606  0.586  0.366-  16 1.88   3 1.92   9 1.96
  45  0.849  0.862  0.396-  10 1.60  15 2.05   4 2.29
  46  0.599  0.874  0.138-   2 1.95  13 2.03  12 2.20
  47  0.138  0.621  0.354-   3 1.87   4 1.88   1 1.91
  48  0.633  0.352  0.139-  14 1.75  16 1.82  13 1.85
 
  LATTYP: Found a simple cubic cell.
 ALAT       =     8.0633474300
  
  Lattice vectors:
  
 A1 = (   8.0633474300,   0.0000000000,   0.0000000000)
 A2 = (   0.0000000000,   8.0633474300,   0.0000000000)
 A3 = (   0.0000000000,   0.0000000000,   8.0633474300)


Analysis of symmetry for initial positions (statically):
=====================================================================
 Subroutine PRICEL returns:
 Original cell was already a primitive cell.
 

 Routine SETGRP: Setting up the symmetry group for a 
 simple cubic supercell.


 Subroutine GETGRP returns: Found  1 space group operations
 (whereof  1 operations were pure point group operations)
 out of a pool of 48 trial point group operations.


The static configuration has the point symmetry C_1 .


Analysis of symmetry for dynamics (positions and initial velocities):
=====================================================================
 Subroutine PRICEL returns:
 Original cell was already a primitive cell.
 

 Routine SETGRP: Setting up the symmetry group for a 
 simple cubic supercell.


 Subroutine GETGRP returns: Found  1 space group operations
 (whereof  1 operations were pure point group operations)
 out of a pool of 48 trial point group operations.


The dynamic configuration has the point symmetry C_1 .


 Subroutine INISYM returns: Found  1 space group operations
 (whereof  1 operations are pure point group operations),
 and found     1 'primitive' translations

 
 
 KPOINTS: Automatic mesh                          

Automatic generation of k-mesh.
Space group operators:
 irot       det(A)        alpha          n_x          n_y          n_z        tau_x        tau_y        tau_z
    1     1.000000     0.000001     1.000000     0.000000     0.000000     0.000000     0.000000     0.000000
 
 Subroutine IBZKPT returns following result:
 ===========================================
 
 Found     36 irreducible k-points:
 
 Following reciprocal coordinates:
            Coordinates               Weight
  0.000000  0.000000  0.000000      1.000000
  0.250000  0.000000  0.000000      2.000000
  0.500000  0.000000  0.000000      1.000000
  0.000000  0.250000  0.000000      2.000000
  0.250000  0.250000  0.000000      2.000000
  0.500000  0.250000  0.000000      2.000000
 -0.250000  0.250000  0.000000      2.000000
  0.000000  0.500000  0.000000      1.000000
  0.250000  0.500000  0.000000      2.000000
  0.500000  0.500000  0.000000      1.000000
  0.000000  0.000000  0.250000      2.000000
  0.250000  0.000000  0.250000      2.000000
  0.500000  0.000000  0.250000      2.000000
 -0.250000  0.000000  0.250000      2.000000
  0.000000  0.250000  0.250000      2.000000
  0.250000  0.250000  0.250000      2.000000
  0.500000  0.250000  0.250000      2.000000
 -0.250000  0.250000  0.250000      2.000000
  0.000000  0.500000  0.250000      2.000000
  0.250000  0.500000  0.250000      2.000000
  0.500000  0.500000  0.250000      2.000000
 -0.250000  0.500000  0.250000      2.000000
  0.000000 -0.250000  0.250000      2.000000
  0.250000 -0.250000  0.250000      2.000000
  0.500000 -0.250000  0.250000      2.000000
 -0.250000 -0.250000  0.250000      2.000000
  0.000000  0.000000  0.500000      1.000000
  0.250000  0.000000  0.500000      2.000000
  0.500000  0.000000  0.500000      1.000000
  0.000000  0.250000  0.500000      2.000000
  0.250000  0.250000  0.500000      2.000000
  0.500000  0.250000  0.500000      2.000000
 -0.250000  0.250000  0.500000      2.000000
  0.000000  0.500000  0.500000      1.000000
  0.250000  0.500000  0.500000      2.000000
  0.500000  0.500000  0.500000      1.000000
 
 Following cartesian coordinates:
            Coordinates               Weight
  0.000000  0.000000  0.000000      1.000000
  0.031004  0.000000  0.000000      2.000000
  0.062009  0.000000  0.000000      1.000000
  0.000000  0.031004  0.000000      2.000000
  0.031004  0.031004  0.000000      2.000000
  0.062009  0.031004  0.000000      2.000000
 -0.031004  0.031004  0.000000      2.000000
  0.000000  0.062009  0.000000      1.000000
  0.031004  0.062009  0.000000      2.000000
  0.062009  0.062009  0.000000      1.000000
  0.000000  0.000000  0.031004      2.000000
  0.031004  0.000000  0.031004      2.000000
  0.062009  0.000000  0.031004      2.000000
 -0.031004  0.000000  0.031004      2.000000
  0.000000  0.031004  0.031004      2.000000
  0.031004  0.031004  0.031004      2.000000
  0.062009  0.031004  0.031004      2.000000
 -0.031004  0.031004  0.031004      2.000000
  0.000000  0.062009  0.031004      2.000000
  0.031004  0.062009  0.031004      2.000000
  0.062009  0.062009  0.031004      2.000000
 -0.031004  0.062009  0.031004      2.000000
  0.000000 -0.031004  0.031004      2.000000
  0.031004 -0.031004  0.031004      2.000000
  0.062009 -0.031004  0.031004      2.000000
 -0.031004 -0.031004  0.031004      2.000000
  0.000000  0.000000  0.062009      1.000000
  0.031004  0.000000  0.062009      2.000000
  0.062009  0.000000  0.062009      1.000000
  0.000000  0.031004  0.062009      2.000000
  0.031004  0.031004  0.062009      2.000000
  0.062009  0.031004  0.062009      2.000000
 -0.031004  0.031004  0.062009      2.000000
  0.000000  0.062009  0.062009      1.000000
  0.031004  0.062009  0.062009      2.000000
  0.062009  0.062009  0.062009      1.000000
 


--------------------------------------------------------------------------------------------------------




 Dimension of arrays:
   k-points           NKPTS =     36   k-points in BZ     NKDIM =     36   number of bands    NBANDS=    224
   number of dos      NEDOS =    301   number of ions     NIONS =     48
   non local maximal  LDIM  =      6   non local SUM 2l+1 LMDIM =     18
   total plane-waves  NPLWV = 216000
   max r-space proj   IRMAX =   5581   max aug-charges    IRDMAX=  13553
   dimension x,y,z NGX =    60 NGY =   60 NGZ =   60
   dimension x,y,z NGXF=   120 NGYF=  120 NGZF=  120
   support grid    NGXF=   120 NGYF=  120 NGZF=  120
   ions per type =              16  32
   NGX,Y,Z   is equivalent  to a cutoff of  12.37, 12.37, 12.37 a.u.
   NGXF,Y,Z  is equivalent  to a cutoff of  24.74, 24.74, 24.74 a.u.

 SYSTEM =  unknown system                          
 POSCAR =  NiO2_Fd-3m_scale_1_025_disp_0_08_round_2

 Startparameter for this run:
   NWRITE =      1    write-flag & timer
   PREC   = accura    normal or accurate (medium, high low for compatibility)
   ISTART =      0    job   : 0-new  1-cont  2-samecut
   ICHARG =      2    charge: 1-file 2-atom 10-const
   ISPIN  =      1    spin polarized calculation?
   LNONCOLLINEAR =      F non collinear calculations
   LSORBIT =      F    spin-orbit coupling
   INIWAV =      1    electr: 0-lowe 1-rand  2-diag
   LASPH  =      F    aspherical Exc in radial PAW
   METAGGA=      F    non-selfconsistent MetaGGA calc.

 Electronic Relaxation 1
   ENCUT  =  500.0 eV  36.75 Ry    6.06 a.u.  14.70 14.70 14.70*2*pi/ulx,y,z
   ENINI  =  500.0     initial cutoff
   ENAUG  =  605.4 eV  augmentation charge cutoff
   NELM   =    120;   NELMIN=  2; NELMDL= -5     # of ELM steps 
   EDIFF  = 0.1E-04   stopping-criterion for ELM
   LREAL  =      T    real-space projection
   NLSPLINE    = F    spline interpolate recip. space projectors
   LCOMPAT=      F    compatible to vasp.4.4
   GGA_COMPAT  = T    GGA compatible to vasp.4.4-vasp.4.6
   LMAXPAW     = -100 max onsite density
   LMAXMIX     =    2 max onsite mixed and CHGCAR
   VOSKOWN=      1    Vosko Wilk Nusair interpolation
   ROPT   =   -0.00025  -0.00025
 Ionic relaxation
   EDIFFG = 0.1E-03   stopping-criterion for IOM
   NSW    =      0    number of steps for IOM
   NBLOCK =      1;   KBLOCK =      1    inner block; outer block 
   IBRION =     -1    ionic relax: 0-MD 1-quasi-New 2-CG
   NFREE  =      0    steps in history (QN), initial steepest desc. (CG)
   ISIF   =      2    stress and relaxation
   IWAVPR =     10    prediction:  0-non 1-charg 2-wave 3-comb
   ISYM   =      2    0-nonsym 1-usesym 2-fastsym
   LCORR  =      T    Harris-Foulkes like correction to forces

   POTIM  = 0.5000    time-step for ionic-motion
   TEIN   =    0.0    initial temperature
   TEBEG  =    0.0;   TEEND  =   0.0 temperature during run
   SMASS  =  -3.00    Nose mass-parameter (am)
   estimated Nose-frequenzy (Omega)   =  0.10E-29 period in steps =****** mass=  -0.149E-26a.u.
   SCALEE = 1.0000    scale energy and forces
   NPACO  =    256;   APACO  = 16.0  distance and # of slots for P.C.
   PSTRESS=    0.0 pullay stress

  Mass of Ions in am
   POMASS =  58.69 16.00
  Ionic Valenz
   ZVAL   =  10.00  6.00
  Atomic Wigner-Seitz radii
   RWIGS  =   1.15  0.73
  virtual crystal weights 
   VCA    =   1.00  1.00
   NELECT =     352.0000    total number of electrons
   NUPDOWN=      -1.0000    fix difference up-down

 DOS related values:
   EMIN   =  10.00;   EMAX   =-10.00  energy-range for DOS
   EFERMI =   0.00
   ISMEAR =     0;   SIGMA  =   0.05  broadening in eV -4-tet -1-fermi 0-gaus

 Electronic relaxation 2 (details)
   IALGO  =     38    algorithm
   LDIAG  =      T    sub-space diagonalisation (order eigenvalues)
   LSUBROT=      F    optimize rotation matrix (better conditioning)
   TURBO    =      0    0=normal 1=particle mesh
   IRESTART =      0    0=no restart 2=restart with 2 vectors
   NREBOOT  =      0    no. of reboots
   NMIN     =      0    reboot dimension
   EREF     =   0.00    reference energy to select bands
   IMIX   =      4    mixing-type and parameters
     AMIX     =   0.40;   BMIX     =  1.00
     AMIX_MAG =   1.60;   BMIX_MAG =  1.00
     AMIN     =   0.10
     WC   =   100.;   INIMIX=   1;  MIXPRE=   1;  MAXMIX= -45

 Intra band minimization:
   WEIMIN = 0.0000     energy-eigenvalue tresh-hold
   EBREAK =  0.11E-07  absolut break condition
   DEPER  =   0.30     relativ break condition  

   TIME   =   0.40     timestep for ELM

  volume/ion in A,a.u.               =      10.92        73.71
  Fermi-wavevector in a.u.,A,eV,Ry     =   1.433531  2.708980 27.960114  2.055010
  Thomas-Fermi vector in A             =   2.553039
 
 Write flags
   LWAVE        =      F    write WAVECAR
   LDOWNSAMPLE  =      F    k-point downsampling of WAVECAR
   LCHARG       =      T    write CHGCAR
   LVTOT        =      F    write LOCPOT, total local potential
   LVHAR        =      F    write LOCPOT, Hartree potential only
   LELF         =      F    write electronic localiz. function (ELF)
   LORBIT       =      0    0 simple, 1 ext, 2 COOP (PROOUT), +10 PAW based schemes


 Dipole corrections
   LMONO  =      F    monopole corrections only (constant potential shift)
   LDIPOL =      F    correct potential (dipole corrections)
   IDIPOL =      0    1-x, 2-y, 3-z, 4-all directions 
   EPSILON=  1.0000000 bulk dielectric constant

 Exchange correlation treatment:
   GGA     =    PS    GGA type
   LEXCH   =    14    internal setting for exchange type
   VOSKOWN=      1    Vosko Wilk Nusair interpolation
   LHFCALC =     F    Hartree Fock is set to
   LHFONE  =     F    Hartree Fock one center treatment
   AEXX    =    0.0000 exact exchange contribution

 Linear response parameters
   LEPSILON=     F    determine dielectric tensor
   LRPA    =     F    only Hartree local field effects (RPA)
   LNABLA  =     F    use nabla operator in PAW spheres
   LVEL    =     F    velocity operator in full k-point grid
   LINTERFAST=   F  fast interpolation
   KINTER  =     0    interpolate to denser k-point grid
   CSHIFT  =0.1000    complex shift for real part using Kramers Kronig
   OMEGAMAX=  -1.0    maximum frequency
   DEG_THRESHOLD= 0.2000000E-02 threshold for treating states as degnerate
   RTIME   =   -0.100 relaxation time in fs
  (WPLASMAI=    0.000 imaginary part of plasma frequency in eV, 0.658/RTIME)
   DFIELD  = 0.0000000 0.0000000 0.0000000 field for delta impulse in time
 
 Orbital magnetization related:
   ORBITALMAG=     F  switch on orbital magnetization
   LCHIMAG   =     F  perturbation theory with respect to B field
   DQ        =  0.001000  dq finite difference perturbation B field
   LLRAUG    =     F  two centre corrections for induced B field



--------------------------------------------------------------------------------------------------------


 Static calculation
 charge density and potential will be updated during run
 non-spin polarized calculation
 Variant of blocked Davidson
 Davidson routine will perform the subspace rotation
 perform sub-space diagonalisation
    after iterative eigenvector-optimisation
 modified Broyden-mixing scheme, WC =      100.0
 initial mixing is a Kerker type mixing with AMIX =  0.4000 and BMIX =      1.0000
 Hartree-type preconditioning will be used
 using additional bands           48
 real space projection scheme for non local part
 use partial core corrections
 calculate Harris-corrections to forces 
   (improved forces if not selfconsistent)
 use gradient corrections 
 use of overlap-Matrix (Vanderbilt PP)
 Gauss-broadening in eV      SIGMA  =   0.05


--------------------------------------------------------------------------------------------------------


  energy-cutoff  :      500.00
  volume of cell :      524.26
      direct lattice vectors                 reciprocal lattice vectors
     8.063347430  0.000000000  0.000000000     0.124017973  0.000000000  0.000000000
     0.000000000  8.063347430  0.000000000     0.000000000  0.124017973  0.000000000
     0.000000000  0.000000000  8.063347430     0.000000000  0.000000000  0.124017973

  length of vectors
     8.063347430  8.063347430  8.063347430     0.124017973  0.124017973  0.124017973


 
 k-points in units of 2pi/SCALE and weight: Automatic mesh                          
   0.00000000  0.00000000  0.00000000       0.016
   0.03100449  0.00000000  0.00000000       0.031
   0.06200899  0.00000000  0.00000000       0.016
   0.00000000  0.03100449  0.00000000       0.031
   0.03100449  0.03100449  0.00000000       0.031
   0.06200899  0.03100449  0.00000000       0.031
  -0.03100449  0.03100449  0.00000000       0.031
   0.00000000  0.06200899  0.00000000       0.016
   0.03100449  0.06200899  0.00000000       0.031
   0.06200899  0.06200899  0.00000000       0.016
   0.00000000  0.00000000  0.03100449       0.031
   0.03100449  0.00000000  0.03100449       0.031
   0.06200899  0.00000000  0.03100449       0.031
  -0.03100449  0.00000000  0.03100449       0.031
   0.00000000  0.03100449  0.03100449       0.031
   0.03100449  0.03100449  0.03100449       0.031
   0.06200899  0.03100449  0.03100449       0.031
  -0.03100449  0.03100449  0.03100449       0.031
   0.00000000  0.06200899  0.03100449       0.031
   0.03100449  0.06200899  0.03100449       0.031
   0.06200899  0.06200899  0.03100449       0.031
  -0.03100449  0.06200899  0.03100449       0.031
   0.00000000 -0.03100449  0.03100449       0.031
   0.03100449 -0.03100449  0.03100449       0.031
   0.06200899 -0.03100449  0.03100449       0.031
  -0.03100449 -0.03100449  0.03100449       0.031
   0.00000000  0.00000000  0.06200899       0.016
   0.03100449  0.00000000  0.06200899       0.031
   0.06200899  0.00000000  0.06200899       0.016
   0.00000000  0.03100449  0.06200899       0.031
   0.03100449  0.03100449  0.06200899       0.031
   0.06200899  0.03100449  0.06200899       0.031
  -0.03100449  0.03100449  0.06200899       0.031
   0.00000000  0.06200899  0.06200899       0.016
   0.03100449  0.06200899  0.06200899       0.031
   0.06200899  0.06200899  0.06200899       0.016
 
 k-points in reciprocal lattice and weights: Automatic mesh                          
   0.00000000  0.00000000  0.00000000       0.016
   0.25000000  0.00000000  0.00000000       0.031
   0.50000000  0.00000000  0.00000000       0.016
   0.00000000  0.25000000  0.00000000       0.031
   0.25000000  0.25000000  0.00000000       0.031
   0.50000000  0.25000000  0.00000000       0.031
  -0.25000000  0.25000000  0.00000000       0.031
   0.00000000  0.50000000  0.00000000       0.016
   0.25000000  0.50000000  0.00000000       0.031
   0.50000000  0.50000000  0.00000000       0.016
   0.00000000  0.00000000  0.25000000       0.031
   0.25000000  0.00000000  0.25000000       0.031
   0.50000000  0.00000000  0.25000000       0.031
  -0.25000000  0.00000000  0.25000000       0.031
   0.00000000  0.25000000  0.25000000       0.031
   0.25000000  0.25000000  0.25000000       0.031
   0.50000000  0.25000000  0.25000000       0.031
  -0.25000000  0.25000000  0.25000000       0.031
   0.00000000  0.50000000  0.25000000       0.031
   0.25000000  0.50000000  0.25000000       0.031
   0.50000000  0.50000000  0.25000000       0.031
  -0.25000000  0.50000000  0.25000000       0.031
   0.00000000 -0.25000000  0.25000000       0.031
   0.25000000 -0.25000000  0.25000000       0.031
   0.50000000 -0.25000000  0.25000000       0.031
  -0.25000000 -0.25000000  0.25000000       0.031
   0.00000000  0.00000000  0.50000000       0.016
   0.25000000  0.00000000  0.50000000       0.031
   0.50000000  0.00000000  0.50000000       0.016
   0.00000000  0.25000000  0.50000000       0.031
   0.25000000  0.25000000  0.50000000       0.031
   0.50000000  0.25000000  0.50000000       0.031
  -0.25000000  0.25000000  0.50000000       0.031
   0.00000000  0.50000000  0.50000000       0.016
   0.25000000  0.50000000  0.50000000       0.031
   0.50000000  0.50000000  0.50000000       0.016
 
 position of ions in fractional coordinates (direct lattice) 
   0.12221290  0.61233886  0.11803081
   0.36382670  0.84104211  0.09618645
   0.36872771  0.60109166  0.36976343
   0.13122881  0.85350292  0.36842922
   0.10733382  0.12990748  0.59238612
   0.36094203  0.35584689  0.61000656
   0.36464814  0.10660401  0.84763678
   0.10812259  0.35962602  0.85695873
   0.59446352  0.62632787  0.60479988
   0.86033694  0.87596282  0.59334343
   0.84895184  0.60676066  0.84442142
   0.62077868  0.85177661  0.86634220
   0.60425886  0.12546641  0.11758305
   0.84944739  0.36811656  0.12769617
   0.84518376  0.11360391  0.35934813
   0.60829881  0.35184483  0.36316935
   0.85115908  0.12235770  0.13318161
   0.36964627  0.83408168  0.34314310
   0.38225407  0.10820220  0.11672142
   0.09247232  0.10880354  0.38060773
   0.37865619  0.37247475  0.38157857
   0.12018326  0.38039393  0.10987391
   0.62716802  0.13340374  0.34548989
   0.13877141  0.85468233  0.14212539
   0.83764731  0.63521425  0.63259698
   0.36421933  0.33346522  0.84215031
   0.39758066  0.61334425  0.59545231
   0.10239829  0.58789662  0.86684422
   0.37871175  0.87163897  0.86541096
   0.10169344  0.86491670  0.59397337
   0.61843752  0.60918667  0.83793069
   0.13002522  0.34868950  0.61323891
   0.35796233  0.13934407  0.59957752
   0.84951887  0.84091223  0.84420875
   0.87328871  0.11549096  0.58423133
   0.61107912  0.10132582  0.86412554
   0.87513242  0.36281872  0.88141513
   0.58981021  0.37443601  0.62032605
   0.11995728  0.11774048  0.84370507
   0.61330442  0.83045027  0.62146495
   0.35516525  0.62109293  0.14120780
   0.82627435  0.36574039  0.33416786
   0.86866873  0.61351609  0.10299816
   0.60575678  0.58552546  0.36598793
   0.84908093  0.86222337  0.39570369
   0.59925208  0.87429278  0.13794861
   0.13792139  0.62069033  0.35445358
   0.63320429  0.35238041  0.13889066
 
 position of ions in cartesian coordinates  (Angst):
   0.98544507  4.93750097  0.95172343
   2.93366109  6.78161474  0.77558476
   2.97317963  4.84681089  2.98153100
   1.05814349  6.88209058  2.97077280
   0.86546988  1.04748914  4.77661510
   2.91040099  2.86931711  4.91869483
   2.94028464  0.85958517  6.83478985
   0.87183001  2.89978954  6.90995597
   4.79336590  5.05029922  4.87671156
   6.93719565  7.06319255  4.78433422
   6.84539364  4.89252201  6.80886329
   5.00555417  6.86817074  6.98561815
   4.87234913  1.01167925  0.94811298
   6.84938943  2.96825172  1.02965858
   6.81501030  0.91602780  2.89754882
   4.90492465  2.83704711  2.92836064
   6.86319138  0.98661265  1.07388959
   2.98058630  6.72549037  2.76688203
   3.08224737  0.87247193  0.94116536
   0.74563644  0.87732074  3.06897236
   3.05323642  3.00339332  3.07680058
   0.96907938  3.06724842  0.88595151
   5.05707364  1.07568070  2.78580502
   1.11896209  6.89160057  1.14600640
   6.75424128  5.12195319  5.10084923
   2.93682700  2.68884592  6.79055054
   3.20583099  4.94560778  4.80133885
   0.82567299  4.74041470  6.98966611
   3.05368442  7.02832785  6.97810924
   0.81998954  6.97412385  4.78941365
   4.98667659  4.91208377  6.75652628
   1.04843852  2.81160458  4.94475839
   2.88637463  1.12357965  4.83460185
   6.84996580  6.78056747  6.80714845
   7.04163028  0.93124374  4.71086019
   4.92734325  0.81702529  6.96774445
   7.05649675  2.92553339  7.10715642
   4.75584464  3.01920764  5.00190446
   0.96725723  0.94938240  6.80308711
   4.94528662  6.69620905  5.01108781
   2.86382081  5.00808808  1.13860755
   6.66253716  2.94909183  2.69451156
   7.00437777  4.94699339  0.83050995
   4.88442738  4.72129521  2.95108783
   6.84643453  6.95240659  3.19069633
   4.83197772  7.04972644  1.11232757
   1.11210809  5.00484178  2.85808236
   5.10574618  2.84136567  1.11992365
 


--------------------------------------------------------------------------------------------------------


 k-point  1 :   0.0000 0.0000 0.0000  plane waves:   13301
 k-point  2 :   0.2500 0.0000 0.0000  plane waves:   13361
 k-point  3 :   0.5000 0.0000 0.0000  plane waves:   13286
 k-point  4 :   0.0000 0.2500 0.0000  plane waves:   13361
 k-point  5 :   0.2500 0.2500 0.0000  plane waves:   13343
 k-point  6 :   0.5000 0.2500 0.0000  plane waves:   13270
 k-point  7 :  -0.2500 0.2500 0.0000  plane waves:   13343
 k-point  8 :   0.0000 0.5000 0.0000  plane waves:   13286
 k-point  9 :   0.2500 0.5000 0.0000  plane waves:   13270
 k-point 10 :   0.5000 0.5000 0.0000  plane waves:   13272
 k-point 11 :   0.0000 0.0000 0.2500  plane waves:   13361
 k-point 12 :   0.2500 0.0000 0.2500  plane waves:   13343
 k-point 13 :   0.5000 0.0000 0.2500  plane waves:   13270
 k-point 14 :  -0.2500 0.0000 0.2500  plane waves:   13343
 k-point 15 :   0.0000 0.2500 0.2500  plane waves:   13343
 k-point 16 :   0.2500 0.2500 0.2500  plane waves:   13286
 k-point 17 :   0.5000 0.2500 0.2500  plane waves:   13298
 k-point 18 :  -0.2500 0.2500 0.2500  plane waves:   13286
 k-point 19 :   0.0000 0.5000 0.2500  plane waves:   13270
 k-point 20 :   0.2500 0.5000 0.2500  plane waves:   13298
 k-point 21 :   0.5000 0.5000 0.2500  plane waves:   13332
 k-point 22 :  -0.2500 0.5000 0.2500  plane waves:   13298
 k-point 23 :   0.0000-0.2500 0.2500  plane waves:   13343
 k-point 24 :   0.2500-0.2500 0.2500  plane waves:   13286
 k-point 25 :   0.5000-0.2500 0.2500  plane waves:   13298
 k-point 26 :  -0.2500-0.2500 0.2500  plane waves:   13286
 k-point 27 :   0.0000 0.0000 0.5000  plane waves:   13286
 k-point 28 :   0.2500 0.0000 0.5000  plane waves:   13270
 k-point 29 :   0.5000 0.0000 0.5000  plane waves:   13272
 k-point 30 :   0.0000 0.2500 0.5000  plane waves:   13270
 k-point 31 :   0.2500 0.2500 0.5000  plane waves:   13298
 k-point 32 :   0.5000 0.2500 0.5000  plane waves:   13332
 k-point 33 :  -0.2500 0.2500 0.5000  plane waves:   13298
 k-point 34 :   0.0000 0.5000 0.5000  plane waves:   13272
 k-point 35 :   0.2500 0.5000 0.5000  plane waves:   13332
 k-point 36 :   0.5000 0.5000 0.5000  plane waves:   13264

 maximum and minimum number of plane-waves per node :     13361    13264

 maximum number of plane-waves:     13361
 maximum index in each direction: 
   IXMAX=   14   IYMAX=   14   IZMAX=   14
   IXMIN=  -15   IYMIN=  -15   IZMIN=  -15

 The following grids will avoid any aliasing or wrap around errors in the Hartre
 e energy
  - symmetry arguments have not been applied
  - exchange correlation energies might require even more grid points
  - we recommend to set PREC=Normal or Accurate and rely on VASP defaults
 NGX is ok and might be reduce to    60
 NGY is ok and might be reduce to    60
 NGZ is ok and might be reduce to    60

 serial   3D FFT for wavefunctions
 parallel 3D FFT for charge:
    minimum data exchange during FFTs selected (reduces bandwidth)


 total amount of memory used by VASP MPI-rank0   186115. kBytes
=======================================================================

   base      :      30000. kBytes
   nonlr-proj:      23143. kBytes
   fftplans  :       4751. kBytes
   grid      :      15225. kBytes
   one-center:        746. kBytes
   wavefun   :     112250. kBytes
 
     INWAV:  cpu time    0.0000: real time    0.0000
 Broyden mixing: mesh for mixing (old mesh)
   NGX = 29   NGY = 29   NGZ = 29
  (NGX  =120   NGY  =120   NGZ  =120)
  gives a total of  24389 points

 initial charge density was supplied:
 charge density of overlapping atoms calculated
 number of electron     352.0000000 magnetization 
 keeping initial charge density in first step


--------------------------------------------------------------------------------------------------------


 Maximum index for non-local projection operator         5394
 Maximum index for augmentation-charges          928 (set IRDMAX)


--------------------------------------------------------------------------------------------------------


 First call to EWALD:  gamma=   0.220
 Maximum number of real-space cells 3x 3x 3
 Maximum number of reciprocal cells 3x 3x 3

    FEWALD:  cpu time    0.0034: real time    0.0034


--------------------------------------- Iteration      1(   1)  ---------------------------------------


    POTLOK:  cpu time    0.0857: real time    0.0910
    SETDIJ:  cpu time    0.0079: real time    0.0079
     EDDAV:  cpu time   36.8917: real time   36.9794
    --------------------------------------------
      LOOP:  cpu time   36.9876: real time   37.0805

 eigenvalue-minimisations  : 16128
 total energy-change (2. order) : 0.4499448E+04  (-0.1556391E+05)
 number of electron     352.0000000 magnetization 
 augmentation part      352.0000000 magnetization 

 Free energy of the ion-electron system (eV)
  ---------------------------------------------------
  alpha Z        PSCENC =      1045.46069007
  Ewald energy   TEWEN  =    -20182.46809793
  -Hartree energ DENC   =    -11579.79205252
  -exchange      EXHF   =         0.00000000
  -V(xc)+E(xc)   XCENC  =      1404.20684297
  PAW double counting   =     26475.20327555   -27591.76617206
  entropy T*S    EENTRO =        -0.00638996
  eigenvalues    EBANDS =      3914.93788226
  atomic energy  EATOM  =     31013.67235384
  Solvation  Ediel_sol  =         0.00000000
  ---------------------------------------------------
  free energy    TOTEN  =      4499.44833222 eV

  energy without entropy =     4499.45472218  energy(sigma->0) =     4499.45152720


--------------------------------------------------------------------------------------------------------




--------------------------------------- Iteration      1(   2)  ---------------------------------------


     EDDAV:  cpu time   38.2871: real time   38.3811
    --------------------------------------------
      LOOP:  cpu time   38.2869: real time   38.3809

 eigenvalue-minimisations  : 16832
 total energy-change (2. order) :-0.3963916E+04  (-0.3617352E+04)
 number of electron     352.0000000 magnetization 
 augmentation part      352.0000000 magnetization 

 Free energy of the ion-electron system (eV)
  ---------------------------------------------------
  alpha Z        PSCENC =      1045.46069007
  Ewald energy   TEWEN  =    -20182.46809793
  -Hartree energ DENC   =    -11579.79205252
  -exchange      EXHF   =         0.00000000
  -V(xc)+E(xc)   XCENC  =      1404.20684297
  PAW double counting   =     26475.20327555   -27591.76617206
  entropy T*S    EENTRO =        -0.02893497
  eigenvalues    EBANDS =       -48.95516198
  atomic energy  EATOM  =     31013.67235384
  Solvation  Ediel_sol  =         0.00000000
  ---------------------------------------------------
  free energy    TOTEN  =       535.53274296 eV

  energy without entropy =      535.56167794  energy(sigma->0) =      535.54721045


--------------------------------------------------------------------------------------------------------




--------------------------------------- Iteration      1(   3)  ---------------------------------------


     EDDAV:  cpu time   41.3622: real time   41.4609
    --------------------------------------------
      LOOP:  cpu time   41.3615: real time   41.4602

 eigenvalue-minimisations  : 17296
 total energy-change (2. order) :-0.8694386E+03  (-0.7702224E+03)
 number of electron     352.0000000 magnetization 
 augmentation part      352.0000000 magnetization 

 Free energy of the ion-electron system (eV)
  ---------------------------------------------------
  alpha Z        PSCENC =      1045.46069007
  Ewald energy   TEWEN  =    -20182.46809793
  -Hartree energ DENC   =    -11579.79205252
  -exchange      EXHF   =         0.00000000
  -V(xc)+E(xc)   XCENC  =      1404.20684297
  PAW double counting   =     26475.20327555   -27591.76617206
  entropy T*S    EENTRO =        -0.00000001
  eigenvalues    EBANDS =      -918.42273002
  atomic energy  EATOM  =     31013.67235384
  Solvation  Ediel_sol  =         0.00000000
  ---------------------------------------------------
  free energy    TOTEN  =      -333.90589011 eV

  energy without entropy =     -333.90589011  energy(sigma->0) =     -333.90589011


--------------------------------------------------------------------------------------------------------




--------------------------------------- Iteration      1(   4)  ---------------------------------------


     EDDAV:  cpu time   38.3813: real time   38.4722
    --------------------------------------------
      LOOP:  cpu time   38.3811: real time   38.4719

 eigenvalue-minimisations  : 17280
 total energy-change (2. order) :-0.7837850E+02  (-0.7692327E+02)
 number of electron     352.0000000 magnetization 
 augmentation part      352.0000000 magnetization 

 Free energy of the ion-electron system (eV)
  ---------------------------------------------------
  alpha Z        PSCENC =      1045.46069007
  Ewald energy   TEWEN  =    -20182.46809793
  -Hartree energ DENC   =    -11579.79205252
  -exchange      EXHF   =         0.00000000
  -V(xc)+E(xc)   XCENC  =      1404.20684297
  PAW double counting   =     26475.20327555   -27591.76617206
  entropy T*S    EENTRO =        -0.00000000
  eigenvalues    EBANDS =      -996.80122530
  atomic energy  EATOM  =     31013.67235384
  Solvation  Ediel_sol  =         0.00000000
  ---------------------------------------------------
  free energy    TOTEN  =      -412.28438538 eV

  energy without entropy =     -412.28438538  energy(sigma->0) =     -412.28438538


--------------------------------------------------------------------------------------------------------




--------------------------------------- Iteration      1(   5)  ---------------------------------------


     EDDAV:  cpu time   37.7628: real time   37.8532
    CHARGE:  cpu time    1.2797: real time    1.2827
    MIXING:  cpu time    0.0022: real time    0.0022
    --------------------------------------------
      LOOP:  cpu time   39.0435: real time   39.1371

 eigenvalue-minimisations  : 17632
 total energy-change (2. order) :-0.2244030E+01  (-0.2233857E+01)
 number of electron     352.0000013 magnetization 
 augmentation part       99.7668880 magnetization 

 Broyden mixing:
  rms(total) = 0.10951E+02    rms(broyden)= 0.10940E+02
  rms(prec ) = 0.14727E+02
  weight for this iteration     100.00

 Free energy of the ion-electron system (eV)
  ---------------------------------------------------
  alpha Z        PSCENC =      1045.46069007
  Ewald energy   TEWEN  =    -20182.46809793
  -Hartree energ DENC   =    -11579.79205252
  -exchange      EXHF   =         0.00000000
  -V(xc)+E(xc)   XCENC  =      1404.20684297
  PAW double counting   =     26475.20327555   -27591.76617206
  entropy T*S    EENTRO =        -0.00000000
  eigenvalues    EBANDS =      -999.04525560
  atomic energy  EATOM  =     31013.67235384
  Solvation  Ediel_sol  =         0.00000000
  ---------------------------------------------------
  free energy    TOTEN  =      -414.52841569 eV

  energy without entropy =     -414.52841569  energy(sigma->0) =     -414.52841569


--------------------------------------------------------------------------------------------------------




--------------------------------------- Iteration      1(   6)  ---------------------------------------


    POTLOK:  cpu time    0.0586: real time    0.0587
    SETDIJ:  cpu time    0.0070: real time    0.0070
     EDDAV:  cpu time   54.0798: real time   54.2079
    CHARGE:  cpu time    1.4770: real time    1.4805
    MIXING:  cpu time    0.0023: real time    0.0023
    --------------------------------------------
      LOOP:  cpu time   55.6246: real time   55.7564

 eigenvalue-minimisations  : 25104
 total energy-change (2. order) :-0.1283642E+03  (-0.1039770E+03)
 number of electron     352.0000014 magnetization 
 augmentation part      138.7091355 magnetization 

 Broyden mixing:
  rms(total) = 0.20222E+02    rms(broyden)= 0.20217E+02
  rms(prec ) = 0.23614E+02
  weight for this iteration     100.00

 eigenvalues of (default mixing * dielectric matrix)
  average eigenvalue GAMMA=   0.1980
  0.1980

 Free energy of the ion-electron system (eV)
  ---------------------------------------------------
  alpha Z        PSCENC =      1045.46069007
  Ewald energy   TEWEN  =    -20182.46809793
  -Hartree energ DENC   =    -10925.23338138
  -exchange      EXHF   =         0.00000000
  -V(xc)+E(xc)   XCENC  =      1399.48642207
  PAW double counting   =     28735.54349408   -29654.74071494
  entropy T*S    EENTRO =        -0.04530115
  eigenvalues    EBANDS =     -1974.56804409
  atomic energy  EATOM  =     31013.67235384
  Solvation  Ediel_sol  =         0.00000000
  ---------------------------------------------------
  free energy    TOTEN  =      -542.89257944 eV

  energy without entropy =     -542.84727828  energy(sigma->0) =     -542.86992886


--------------------------------------------------------------------------------------------------------




--------------------------------------- Iteration      1(   7)  ---------------------------------------


    POTLOK:  cpu time    0.0663: real time    0.0664
    SETDIJ:  cpu time    0.0083: real time    0.0083
     EDDAV:  cpu time   42.2854: real time   42.3856
    CHARGE:  cpu time    1.3212: real time    1.3243
    MIXING:  cpu time    0.0019: real time    0.0019
    --------------------------------------------
      LOOP:  cpu time   43.6830: real time   43.7865

 eigenvalue-minimisations  : 22816
 total energy-change (2. order) : 0.2247005E+03  (-0.2748956E+02)
 number of electron     351.9999997 magnetization 
 augmentation part      124.8441915 magnetization 

 Broyden mixing:
  rms(total) = 0.64929E+01    rms(broyden)= 0.64915E+01
  rms(prec ) = 0.89840E+01
  weight for this iteration     100.00

 eigenvalues of (default mixing * dielectric matrix)
  average eigenvalue GAMMA=   0.5626
  0.5626  0.5626

 Free energy of the ion-electron system (eV)
  ---------------------------------------------------
  alpha Z        PSCENC =      1045.46069007
  Ewald energy   TEWEN  =    -20182.46809793
  -Hartree energ DENC   =    -11202.83437607
  -exchange      EXHF   =         0.00000000
  -V(xc)+E(xc)   XCENC  =      1403.32955493
  PAW double counting   =     30060.08767201   -31122.50283620
  entropy T*S    EENTRO =        -0.01949900
  eigenvalues    EBANDS =     -1332.91758138
  atomic energy  EATOM  =     31013.67235384
  Solvation  Ediel_sol  =         0.00000000
  ---------------------------------------------------
  free energy    TOTEN  =      -318.19211974 eV

  energy without entropy =     -318.17262074  energy(sigma->0) =     -318.18237024


--------------------------------------------------------------------------------------------------------




--------------------------------------- Iteration      1(   8)  ---------------------------------------


    POTLOK:  cpu time    0.0564: real time    0.0565
    SETDIJ:  cpu time    0.0065: real time    0.0065
     EDDAV:  cpu time   47.6675: real time   47.7804
    CHARGE:  cpu time    1.3408: real time    1.3440
    MIXING:  cpu time    0.0019: real time    0.0019
    --------------------------------------------
      LOOP:  cpu time   49.0732: real time   49.1894

 eigenvalue-minimisations  : 26336
 total energy-change (2. order) :-0.1408448E+01  (-0.1075292E+02)
 number of electron     352.0000015 magnetization 
 augmentation part      116.8624708 magnetization 

 Broyden mixing:
  rms(total) = 0.75596E+01    rms(broyden)= 0.75575E+01
  rms(prec ) = 0.11527E+02
  weight for this iteration     100.00

 eigenvalues of (default mixing * dielectric matrix)
  average eigenvalue GAMMA=   0.4877
  0.6216  0.6216  0.2200

 Free energy of the ion-electron system (eV)
  ---------------------------------------------------
  alpha Z        PSCENC =      1045.46069007
  Ewald energy   TEWEN  =    -20182.46809793
  -Hartree energ DENC   =    -11248.04182777
  -exchange      EXHF   =         0.00000000
  -V(xc)+E(xc)   XCENC  =      1400.19499143
  PAW double counting   =     30950.59838547   -32079.42322863
  entropy T*S    EENTRO =        -0.06289014
  eigenvalues    EBANDS =     -1219.53094436
  atomic energy  EATOM  =     31013.67235384
  Solvation  Ediel_sol  =         0.00000000
  ---------------------------------------------------
  free energy    TOTEN  =      -319.60056803 eV

  energy without entropy =     -319.53767789  energy(sigma->0) =     -319.56912296


--------------------------------------------------------------------------------------------------------




--------------------------------------- Iteration      1(   9)  ---------------------------------------


    POTLOK:  cpu time    0.0548: real time    0.0549
    SETDIJ:  cpu time    0.0064: real time    0.0064
     EDDAV:  cpu time   38.8623: real time   38.9544
    CHARGE:  cpu time    1.2526: real time    1.2556
    MIXING:  cpu time    0.0019: real time    0.0019
    --------------------------------------------
      LOOP:  cpu time   40.1780: real time   40.2732

 eigenvalue-minimisations  : 20384
 total energy-change (2. order) :-0.2560527E+01  (-0.1251676E+02)
 number of electron     352.0000015 magnetization 
 augmentation part      110.0713682 magnetization 

 Broyden mixing:
  rms(total) = 0.85028E+01    rms(broyden)= 0.85009E+01
  rms(prec ) = 0.13446E+02
  weight for this iteration     100.00

 eigenvalues of (default mixing * dielectric matrix)
  average eigenvalue GAMMA=   0.4416
  0.9004  0.4500  0.2724  0.1437

 Free energy of the ion-electron system (eV)
  ---------------------------------------------------
  alpha Z        PSCENC =      1045.46069007
  Ewald energy   TEWEN  =    -20182.46809793
  -Hartree energ DENC   =    -11256.75820454
  -exchange      EXHF   =         0.00000000
  -V(xc)+E(xc)   XCENC  =      1398.47204698
  PAW double counting   =     31651.52205638   -32798.85459919
  entropy T*S    EENTRO =        -0.03008083
  eigenvalues    EBANDS =     -1193.17725951
  atomic energy  EATOM  =     31013.67235384
  Solvation  Ediel_sol  =         0.00000000
  ---------------------------------------------------
  free energy    TOTEN  =      -322.16109473 eV

  energy without entropy =     -322.13101390  energy(sigma->0) =     -322.14605431


--------------------------------------------------------------------------------------------------------




--------------------------------------- Iteration      1(  10)  ---------------------------------------


    POTLOK:  cpu time    0.0522: real time    0.0523
    SETDIJ:  cpu time    0.0066: real time    0.0066
     EDDAV:  cpu time   40.3921: real time   40.4877
    CHARGE:  cpu time    1.2050: real time    1.2079
    MIXING:  cpu time    0.0022: real time    0.0022
    --------------------------------------------
      LOOP:  cpu time   41.6581: real time   41.7567

 eigenvalue-minimisations  : 22432
 total energy-change (2. order) : 0.2069716E+02  (-0.3289674E+01)
 number of electron     352.0000015 magnetization 
 augmentation part      111.5493278 magnetization 

 Broyden mixing:
  rms(total) = 0.42356E+01    rms(broyden)= 0.42335E+01
  rms(prec ) = 0.63409E+01
  weight for this iteration     100.00

 eigenvalues of (default mixing * dielectric matrix)
  average eigenvalue GAMMA=   0.4181
  1.0460  0.3651  0.2887  0.2887  0.1017

 Free energy of the ion-electron system (eV)
  ---------------------------------------------------
  alpha Z        PSCENC =      1045.46069007
  Ewald energy   TEWEN  =    -20182.46809793
  -Hartree energ DENC   =    -11237.65655724
  -exchange      EXHF   =         0.00000000
  -V(xc)+E(xc)   XCENC  =      1397.83779752
  PAW double counting   =     32059.64134100   -33213.15348902
  entropy T*S    EENTRO =        -0.04594712
  eigenvalues    EBANDS =     -1184.75202090
  atomic energy  EATOM  =     31013.67235384
  Solvation  Ediel_sol  =         0.00000000
  ---------------------------------------------------
  free energy    TOTEN  =      -301.46392979 eV

  energy without entropy =     -301.41798267  energy(sigma->0) =     -301.44095623


--------------------------------------------------------------------------------------------------------




--------------------------------------- Iteration      1(  11)  ---------------------------------------


    POTLOK:  cpu time    0.0542: real time    0.0543
    SETDIJ:  cpu time    0.0066: real time    0.0066
     EDDAV:  cpu time   41.5584: real time   41.6569
    CHARGE:  cpu time    1.3301: real time    1.3332
    MIXING:  cpu time    0.0022: real time    0.0022
    --------------------------------------------
      LOOP:  cpu time   42.9515: real time   43.0533

 eigenvalue-minimisations  : 21952
 total energy-change (2. order) : 0.9013063E+01  (-0.1293972E+01)
 number of electron     352.0000015 magnetization 
 augmentation part      112.7464048 magnetization 

 Broyden mixing:
  rms(total) = 0.21783E+01    rms(broyden)= 0.21762E+01
  rms(prec ) = 0.31452E+01
  weight for this iteration     100.00

 eigenvalues of (default mixing * dielectric matrix)
  average eigenvalue GAMMA=   0.4741
  1.3341  0.4468  0.4468  0.3419  0.1597  0.1155

 Free energy of the ion-electron system (eV)
  ---------------------------------------------------
  alpha Z        PSCENC =      1045.46069007
  Ewald energy   TEWEN  =    -20182.46809793
  -Hartree energ DENC   =    -11222.82770070
  -exchange      EXHF   =         0.00000000
  -V(xc)+E(xc)   XCENC  =      1397.65375511
  PAW double counting   =     32352.02070934   -33507.43538743
  entropy T*S    EENTRO =        -0.00000725
  eigenvalues    EBANDS =     -1188.52718182
  atomic energy  EATOM  =     31013.67235384
  Solvation  Ediel_sol  =         0.00000000
  ---------------------------------------------------
  free energy    TOTEN  =      -292.45086677 eV

  energy without entropy =     -292.45085952  energy(sigma->0) =     -292.45086315


--------------------------------------------------------------------------------------------------------




--------------------------------------- Iteration      1(  12)  ---------------------------------------


    POTLOK:  cpu time    0.0559: real time    0.0560
    SETDIJ:  cpu time    0.0069: real time    0.0069
     EDDAV:  cpu time   43.4943: real time   43.5972
    CHARGE:  cpu time    1.2290: real time    1.2319
    MIXING:  cpu time    0.0022: real time    0.0022
    --------------------------------------------
      LOOP:  cpu time   44.7883: real time   44.8943

 eigenvalue-minimisations  : 24384
 total energy-change (2. order) : 0.3129725E+01  (-0.6824071E+00)
 number of electron     352.0000013 magnetization 
 augmentation part      114.1081089 magnetization 

 Broyden mixing:
  rms(total) = 0.15336E+01    rms(broyden)= 0.15331E+01
  rms(prec ) = 0.22846E+01
  weight for this iteration     100.00

 eigenvalues of (default mixing * dielectric matrix)
  average eigenvalue GAMMA=   0.4635
  1.4197  0.4742  0.4742  0.3249  0.2432  0.1966  0.1114

 Free energy of the ion-electron system (eV)
  ---------------------------------------------------
  alpha Z        PSCENC =      1045.46069007
  Ewald energy   TEWEN  =    -20182.46809793
  -Hartree energ DENC   =    -11209.76594007
  -exchange      EXHF   =         0.00000000
  -V(xc)+E(xc)   XCENC  =      1397.84871142
  PAW double counting   =     32801.99397610   -33958.92368463
  entropy T*S    EENTRO =        -0.00000043
  eigenvalues    EBANDS =     -1197.13914984
  atomic energy  EATOM  =     31013.67235384
  Solvation  Ediel_sol  =         0.00000000
  ---------------------------------------------------
  free energy    TOTEN  =      -289.32114147 eV

  energy without entropy =     -289.32114104  energy(sigma->0) =     -289.32114126


--------------------------------------------------------------------------------------------------------




--------------------------------------- Iteration      1(  13)  ---------------------------------------


    POTLOK:  cpu time    0.0549: real time    0.0550
    SETDIJ:  cpu time    0.0065: real time    0.0065
     EDDAV:  cpu time   40.5294: real time   40.6253
    CHARGE:  cpu time    1.2420: real time    1.2449
    MIXING:  cpu time    0.0023: real time    0.0023
    --------------------------------------------
      LOOP:  cpu time   41.8351: real time   41.9341

 eigenvalue-minimisations  : 21936
 total energy-change (2. order) : 0.9155119E+00  (-0.3244005E+00)
 number of electron     352.0000010 magnetization 
 augmentation part      114.4711175 magnetization 

 Broyden mixing:
  rms(total) = 0.10950E+01    rms(broyden)= 0.10944E+01
  rms(prec ) = 0.15595E+01
  weight for this iteration     100.00

 eigenvalues of (default mixing * dielectric matrix)
  average eigenvalue GAMMA=   0.4844
  1.5319  0.5528  0.5528  0.3812  0.3812  0.2089  0.1128  0.1536

 Free energy of the ion-electron system (eV)
  ---------------------------------------------------
  alpha Z        PSCENC =      1045.46069007
  Ewald energy   TEWEN  =    -20182.46809793
  -Hartree energ DENC   =    -11208.26041317
  -exchange      EXHF   =         0.00000000
  -V(xc)+E(xc)   XCENC  =      1398.07646361
  PAW double counting   =     33021.89176774   -34179.34759243
  entropy T*S    EENTRO =        -0.00000003
  eigenvalues    EBANDS =     -1197.43080128
  atomic energy  EATOM  =     31013.67235384
  Solvation  Ediel_sol  =         0.00000000
  ---------------------------------------------------
  free energy    TOTEN  =      -288.40562959 eV

  energy without entropy =     -288.40562955  energy(sigma->0) =     -288.40562957


--------------------------------------------------------------------------------------------------------




--------------------------------------- Iteration      1(  14)  ---------------------------------------


    POTLOK:  cpu time    0.0543: real time    0.0544
    SETDIJ:  cpu time    0.0063: real time    0.0063
     EDDAV:  cpu time   41.9629: real time   42.0623
    CHARGE:  cpu time    1.2375: real time    1.2404
    MIXING:  cpu time    0.0026: real time    0.0026
    --------------------------------------------
      LOOP:  cpu time   43.2636: real time   43.3661

 eigenvalue-minimisations  : 23248
 total energy-change (2. order) : 0.4512697E+00  (-0.1310914E+00)
 number of electron     352.0000012 magnetization 
 augmentation part      114.9174021 magnetization 

 Broyden mixing:
  rms(total) = 0.72757E+00    rms(broyden)= 0.72720E+00
  rms(prec ) = 0.10074E+01
  weight for this iteration     100.00

 eigenvalues of (default mixing * dielectric matrix)
  average eigenvalue GAMMA=   0.5242
  1.8065  0.6334  0.6334  0.4597  0.4597  0.2623  0.1123  0.1805  0.1703

 Free energy of the ion-electron system (eV)
  ---------------------------------------------------
  alpha Z        PSCENC =      1045.46069007
  Ewald energy   TEWEN  =    -20182.46809793
  -Hartree energ DENC   =    -11207.08382894
  -exchange      EXHF   =         0.00000000
  -V(xc)+E(xc)   XCENC  =      1398.28169339
  PAW double counting   =     33286.14083532   -34445.28715666
  entropy T*S    EENTRO =        -0.00000965
  eigenvalues    EBANDS =     -1196.67083934
  atomic energy  EATOM  =     31013.67235384
  Solvation  Ediel_sol  =         0.00000000
  ---------------------------------------------------
  free energy    TOTEN  =      -287.95435990 eV

  energy without entropy =     -287.95435025  energy(sigma->0) =     -287.95435507


--------------------------------------------------------------------------------------------------------




--------------------------------------- Iteration      1(  15)  ---------------------------------------


    POTLOK:  cpu time    0.0539: real time    0.0541
    SETDIJ:  cpu time    0.0063: real time    0.0063
     EDDAV:  cpu time   42.9031: real time   43.0046
    CHARGE:  cpu time    1.2330: real time    1.2360
    MIXING:  cpu time    0.0025: real time    0.0025
    --------------------------------------------
      LOOP:  cpu time   44.1989: real time   44.3035

 eigenvalue-minimisations  : 23344
 total energy-change (2. order) : 0.1497614E+00  (-0.8456282E-01)
 number of electron     352.0000009 magnetization 
 augmentation part      115.2791452 magnetization 

 Broyden mixing:
  rms(total) = 0.51947E+00    rms(broyden)= 0.51916E+00
  rms(prec ) = 0.72539E+00
  weight for this iteration     100.00

 eigenvalues of (default mixing * dielectric matrix)
  average eigenvalue GAMMA=   0.5614
  2.1308  0.7276  0.7276  0.5080  0.5080  0.3114  0.2384  0.1124  0.1888  0.1610

 Free energy of the ion-electron system (eV)
  ---------------------------------------------------
  alpha Z        PSCENC =      1045.46069007
  Ewald energy   TEWEN  =    -20182.46809793
  -Hartree energ DENC   =    -11205.62086923
  -exchange      EXHF   =         0.00000000
  -V(xc)+E(xc)   XCENC  =      1398.42606836
  PAW double counting   =     33584.38352718   -34745.61958818
  entropy T*S    EENTRO =        -0.00000000
  eigenvalues    EBANDS =     -1196.03868256
  atomic energy  EATOM  =     31013.67235384
  Solvation  Ediel_sol  =         0.00000000
  ---------------------------------------------------
  free energy    TOTEN  =      -287.80459845 eV

  energy without entropy =     -287.80459845  energy(sigma->0) =     -287.80459845


--------------------------------------------------------------------------------------------------------




--------------------------------------- Iteration      1(  16)  ---------------------------------------


    POTLOK:  cpu time    0.0544: real time    0.0545
    SETDIJ:  cpu time    0.0063: real time    0.0063
     EDDAV:  cpu time   39.7141: real time   39.8080
    CHARGE:  cpu time    1.0579: real time    1.0604
    MIXING:  cpu time    0.0025: real time    0.0025
    --------------------------------------------
      LOOP:  cpu time   40.8352: real time   40.9318

 eigenvalue-minimisations  : 21856
 total energy-change (2. order) : 0.6785217E-01  (-0.3926919E-01)
 number of electron     352.0000010 magnetization 
 augmentation part      115.4860482 magnetization 

 Broyden mixing:
  rms(total) = 0.30006E+00    rms(broyden)= 0.29977E+00
  rms(prec ) = 0.44240E+00
  weight for this iteration     100.00

 eigenvalues of (default mixing * dielectric matrix)
  average eigenvalue GAMMA=   0.5730
  2.3101  0.7702  0.7702  0.5420  0.5420  0.3488  0.3488  0.1124  0.2141  0.1826
  0.1614

 Free energy of the ion-electron system (eV)
  ---------------------------------------------------
  alpha Z        PSCENC =      1045.46069007
  Ewald energy   TEWEN  =    -20182.46809793
  -Hartree energ DENC   =    -11205.69656461
  -exchange      EXHF   =         0.00000000
  -V(xc)+E(xc)   XCENC  =      1398.51993202
  PAW double counting   =     33851.13207645   -35014.67247198
  entropy T*S    EENTRO =        -0.00000172
  eigenvalues    EBANDS =     -1193.68466242
  atomic energy  EATOM  =     31013.67235384
  Solvation  Ediel_sol  =         0.00000000
  ---------------------------------------------------
  free energy    TOTEN  =      -287.73674628 eV

  energy without entropy =     -287.73674457  energy(sigma->0) =     -287.73674542


--------------------------------------------------------------------------------------------------------




--------------------------------------- Iteration      1(  17)  ---------------------------------------


    POTLOK:  cpu time    0.0504: real time    0.0505
    SETDIJ:  cpu time    0.0062: real time    0.0063
     EDDAV:  cpu time   41.4069: real time   41.5050
    CHARGE:  cpu time    1.2447: real time    1.2477
    MIXING:  cpu time    0.0030: real time    0.0030
    --------------------------------------------
      LOOP:  cpu time   42.7113: real time   42.8124

 eigenvalue-minimisations  : 23616
 total energy-change (2. order) : 0.3327928E-01  (-0.1560772E-01)
 number of electron     352.0000010 magnetization 
 augmentation part      115.4873161 magnetization 

 Broyden mixing:
  rms(total) = 0.21420E+00    rms(broyden)= 0.21405E+00
  rms(prec ) = 0.30410E+00
  weight for this iteration     100.00

 eigenvalues of (default mixing * dielectric matrix)
  average eigenvalue GAMMA=   0.5912
  2.4669  1.0621  0.6073  0.6073  0.5122  0.5122  0.3938  0.2678  0.1124  0.2048
  0.1871  0.1610

 Free energy of the ion-electron system (eV)
  ---------------------------------------------------
  alpha Z        PSCENC =      1045.46069007
  Ewald energy   TEWEN  =    -20182.46809793
  -Hartree energ DENC   =    -11207.22937256
  -exchange      EXHF   =         0.00000000
  -V(xc)+E(xc)   XCENC  =      1398.57116743
  PAW double counting   =     33991.99149451   -35156.69659162
  entropy T*S    EENTRO =        -0.00000015
  eigenvalues    EBANDS =     -1191.00511059
  atomic energy  EATOM  =     31013.67235384
  Solvation  Ediel_sol  =         0.00000000
  ---------------------------------------------------
  free energy    TOTEN  =      -287.70346700 eV

  energy without entropy =     -287.70346685  energy(sigma->0) =     -287.70346693


--------------------------------------------------------------------------------------------------------




--------------------------------------- Iteration      1(  18)  ---------------------------------------


    POTLOK:  cpu time    0.0552: real time    0.0553
    SETDIJ:  cpu time    0.0064: real time    0.0065
     EDDAV:  cpu time   43.4466: real time   43.5494
    CHARGE:  cpu time    1.2765: real time    1.2795
    MIXING:  cpu time    0.0029: real time    0.0029
    --------------------------------------------
      LOOP:  cpu time   44.7876: real time   44.8937

 eigenvalue-minimisations  : 23696
 total energy-change (2. order) : 0.1225191E-01  (-0.7388146E-02)
 number of electron     352.0000010 magnetization 
 augmentation part      115.4593646 magnetization 

 Broyden mixing:
  rms(total) = 0.15525E+00    rms(broyden)= 0.15518E+00
  rms(prec ) = 0.22616E+00
  weight for this iteration     100.00

 eigenvalues of (default mixing * dielectric matrix)
  average eigenvalue GAMMA=   0.6061
  2.5418  1.2560  0.6276  0.6276  0.6190  0.4911  0.4911  0.2980  0.2623  0.1124
  0.2061  0.1849  0.1611

 Free energy of the ion-electron system (eV)
  ---------------------------------------------------
  alpha Z        PSCENC =      1045.46069007
  Ewald energy   TEWEN  =    -20182.46809793
  -Hartree energ DENC   =    -11208.11969057
  -exchange      EXHF   =         0.00000000
  -V(xc)+E(xc)   XCENC  =      1398.56712569
  PAW double counting   =     34065.93030397   -35231.07885093
  entropy T*S    EENTRO =        -0.00000027
  eigenvalues    EBANDS =     -1189.65504896
  atomic energy  EATOM  =     31013.67235384
  Solvation  Ediel_sol  =         0.00000000
  ---------------------------------------------------
  free energy    TOTEN  =      -287.69121508 eV

  energy without entropy =     -287.69121482  energy(sigma->0) =     -287.69121495


--------------------------------------------------------------------------------------------------------




--------------------------------------- Iteration      1(  19)  ---------------------------------------


    POTLOK:  cpu time    0.0549: real time    0.0550
    SETDIJ:  cpu time    0.0064: real time    0.0064
     EDDAV:  cpu time   44.4434: real time   44.5486
    CHARGE:  cpu time    1.1469: real time    1.1496
    MIXING:  cpu time    0.0028: real time    0.0028
    --------------------------------------------
      LOOP:  cpu time   45.6544: real time   45.7625

 eigenvalue-minimisations  : 24064
 total energy-change (2. order) : 0.7200354E-02  (-0.2450714E-02)
 number of electron     352.0000010 magnetization 
 augmentation part      115.4443879 magnetization 

 Broyden mixing:
  rms(total) = 0.11017E+00    rms(broyden)= 0.11014E+00
  rms(prec ) = 0.16237E+00
  weight for this iteration     100.00

 eigenvalues of (default mixing * dielectric matrix)
  average eigenvalue GAMMA=   0.6203
  2.5753  1.4662  0.6935  0.6935  0.6579  0.5046  0.5046  0.3379  0.3379  0.1124
  0.2511  0.1610  0.2021  0.1861

 Free energy of the ion-electron system (eV)
  ---------------------------------------------------
  alpha Z        PSCENC =      1045.46069007
  Ewald energy   TEWEN  =    -20182.46809793
  -Hartree energ DENC   =    -11208.27022087
  -exchange      EXHF   =         0.00000000
  -V(xc)+E(xc)   XCENC  =      1398.52528586
  PAW double counting   =     34091.42185100   -35256.42576601
  entropy T*S    EENTRO =        -0.00000017
  eigenvalues    EBANDS =     -1189.60011051
  atomic energy  EATOM  =     31013.67235384
  Solvation  Ediel_sol  =         0.00000000
  ---------------------------------------------------
  free energy    TOTEN  =      -287.68401473 eV

  energy without entropy =     -287.68401456  energy(sigma->0) =     -287.68401464


--------------------------------------------------------------------------------------------------------




--------------------------------------- Iteration      1(  20)  ---------------------------------------


    POTLOK:  cpu time    0.0543: real time    0.0545
    SETDIJ:  cpu time    0.0065: real time    0.0065
     EDDAV:  cpu time   41.5451: real time   41.6434
    CHARGE:  cpu time    1.0564: real time    1.0589
    MIXING:  cpu time    0.0028: real time    0.0028
    --------------------------------------------
      LOOP:  cpu time   42.6652: real time   42.7662

 eigenvalue-minimisations  : 23488
 total energy-change (2. order) : 0.3885089E-02  (-0.7563340E-03)
 number of electron     352.0000010 magnetization 
 augmentation part      115.4345462 magnetization 

 Broyden mixing:
  rms(total) = 0.83885E-01    rms(broyden)= 0.83872E-01
  rms(prec ) = 0.12356E+00
  weight for this iteration     100.00

 eigenvalues of (default mixing * dielectric matrix)
  average eigenvalue GAMMA=   0.6343
  2.5443  1.5939  0.8227  0.8227  0.6966  0.5190  0.5190  0.3967  0.3967  0.2931
  0.1124  0.2464  0.1611  0.2039  0.1854

 Free energy of the ion-electron system (eV)
  ---------------------------------------------------
  alpha Z        PSCENC =      1045.46069007
  Ewald energy   TEWEN  =    -20182.46809793
  -Hartree energ DENC   =    -11208.35081894
  -exchange      EXHF   =         0.00000000
  -V(xc)+E(xc)   XCENC  =      1398.49743538
  PAW double counting   =     34092.38861891   -35257.09071253
  entropy T*S    EENTRO =        -0.00000019
  eigenvalues    EBANDS =     -1189.78959825
  atomic energy  EATOM  =     31013.67235384
  Solvation  Ediel_sol  =         0.00000000
  ---------------------------------------------------
  free energy    TOTEN  =      -287.68012964 eV

  energy without entropy =     -287.68012945  energy(sigma->0) =     -287.68012955


--------------------------------------------------------------------------------------------------------




--------------------------------------- Iteration      1(  21)  ---------------------------------------


    POTLOK:  cpu time    0.0505: real time    0.0506
    SETDIJ:  cpu time    0.0063: real time    0.0063
     EDDAV:  cpu time   44.4643: real time   44.5695
    CHARGE:  cpu time    1.2855: real time    1.2886
    MIXING:  cpu time    0.0037: real time    0.0038
    --------------------------------------------
      LOOP:  cpu time   45.8103: real time   45.9188

 eigenvalue-minimisations  : 23408
 total energy-change (2. order) : 0.1573814E-02  (-0.3946124E-03)
 number of electron     352.0000010 magnetization 
 augmentation part      115.4318832 magnetization 

 Broyden mixing:
  rms(total) = 0.70012E-01    rms(broyden)= 0.70001E-01
  rms(prec ) = 0.10362E+00
  weight for this iteration     100.00

 eigenvalues of (default mixing * dielectric matrix)
  average eigenvalue GAMMA=   0.6418
  2.5096  1.7718  0.9610  0.9610  0.6634  0.5252  0.5252  0.4452  0.4452  0.1124
  0.2944  0.2669  0.1610  0.1857  0.2028  0.2371

 Free energy of the ion-electron system (eV)
  ---------------------------------------------------
  alpha Z        PSCENC =      1045.46069007
  Ewald energy   TEWEN  =    -20182.46809793
  -Hartree energ DENC   =    -11208.44497274
  -exchange      EXHF   =         0.00000000
  -V(xc)+E(xc)   XCENC  =      1398.48933853
  PAW double counting   =     34084.97552715   -35249.38811418
  entropy T*S    EENTRO =        -0.00000017
  eigenvalues    EBANDS =     -1189.97528040
  atomic energy  EATOM  =     31013.67235384
  Solvation  Ediel_sol  =         0.00000000
  ---------------------------------------------------
  free energy    TOTEN  =      -287.67855583 eV

  energy without entropy =     -287.67855566  energy(sigma->0) =     -287.67855574


--------------------------------------------------------------------------------------------------------




--------------------------------------- Iteration      1(  22)  ---------------------------------------


    POTLOK:  cpu time    0.0534: real time    0.0535
    SETDIJ:  cpu time    0.0070: real time    0.0070
     EDDAV:  cpu time   40.4082: real time   40.5039
    CHARGE:  cpu time    1.2750: real time    1.2780
    MIXING:  cpu time    0.0043: real time    0.0043
    --------------------------------------------
      LOOP:  cpu time   41.7479: real time   41.8467

 eigenvalue-minimisations  : 22432
 total energy-change (2. order) : 0.1712914E-02  (-0.2251630E-03)
 number of electron     352.0000010 magnetization 
 augmentation part      115.4332403 magnetization 

 Broyden mixing:
  rms(total) = 0.50025E-01    rms(broyden)= 0.50015E-01
  rms(prec ) = 0.74762E-01
  weight for this iteration     100.00

 eigenvalues of (default mixing * dielectric matrix)
  average eigenvalue GAMMA=   0.6626
  2.4338  2.0013  1.1519  1.1519  0.5928  0.5928  0.5170  0.5170  0.5126  0.3237
  0.3237  0.1124  0.1611  0.2526  0.1855  0.2037  0.2299

 Free energy of the ion-electron system (eV)
  ---------------------------------------------------
  alpha Z        PSCENC =      1045.46069007
  Ewald energy   TEWEN  =    -20182.46809793
  -Hartree energ DENC   =    -11208.65213404
  -exchange      EXHF   =         0.00000000
  -V(xc)+E(xc)   XCENC  =      1398.49345257
  PAW double counting   =     34078.11699041   -35242.27773292
  entropy T*S    EENTRO =        -0.00000020
  eigenvalues    EBANDS =     -1190.02236470
  atomic energy  EATOM  =     31013.67235384
  Solvation  Ediel_sol  =         0.00000000
  ---------------------------------------------------
  free energy    TOTEN  =      -287.67684291 eV

  energy without entropy =     -287.67684271  energy(sigma->0) =     -287.67684281


--------------------------------------------------------------------------------------------------------




--------------------------------------- Iteration      1(  23)  ---------------------------------------


    POTLOK:  cpu time    0.0661: real time    0.0663
    SETDIJ:  cpu time    0.0069: real time    0.0069
     EDDAV:  cpu time   42.7943: real time   42.8955
    CHARGE:  cpu time    1.2769: real time    1.2799
    MIXING:  cpu time    0.0035: real time    0.0035
    --------------------------------------------
      LOOP:  cpu time   44.1477: real time   44.2522

 eigenvalue-minimisations  : 23760
 total energy-change (2. order) : 0.1049503E-02  (-0.7552112E-04)
 number of electron     352.0000010 magnetization 
 augmentation part      115.4315986 magnetization 

 Broyden mixing:
  rms(total) = 0.35553E-01    rms(broyden)= 0.35545E-01
  rms(prec ) = 0.53010E-01
  weight for this iteration     100.00

 eigenvalues of (default mixing * dielectric matrix)
  average eigenvalue GAMMA=   0.6854
  2.4155  2.1680  1.4965  1.2080  0.6639  0.6639  0.5129  0.5129  0.5262  0.3702
  0.3702  0.1124  0.2976  0.1611  0.2512  0.1855  0.2033  0.2186

 Free energy of the ion-electron system (eV)
  ---------------------------------------------------
  alpha Z        PSCENC =      1045.46069007
  Ewald energy   TEWEN  =    -20182.46809793
  -Hartree energ DENC   =    -11208.95809395
  -exchange      EXHF   =         0.00000000
  -V(xc)+E(xc)   XCENC  =      1398.50734363
  PAW double counting   =     34071.88967071   -35235.85656042
  entropy T*S    EENTRO =        -0.00000019
  eigenvalues    EBANDS =     -1189.92309916
  atomic energy  EATOM  =     31013.67235384
  Solvation  Ediel_sol  =         0.00000000
  ---------------------------------------------------
  free energy    TOTEN  =      -287.67579341 eV

  energy without entropy =     -287.67579322  energy(sigma->0) =     -287.67579332


--------------------------------------------------------------------------------------------------------




--------------------------------------- Iteration      1(  24)  ---------------------------------------


    POTLOK:  cpu time    0.0562: real time    0.0563
    SETDIJ:  cpu time    0.0068: real time    0.0069
     EDDAV:  cpu time   44.9502: real time   45.0566
    CHARGE:  cpu time    1.1656: real time    1.1683
    MIXING:  cpu time    0.0040: real time    0.0040
    --------------------------------------------
      LOOP:  cpu time   46.1829: real time   46.2922

 eigenvalue-minimisations  : 24208
 total energy-change (2. order) : 0.4507030E-03  (-0.5819361E-04)
 number of electron     352.0000010 magnetization 
 augmentation part      115.4285342 magnetization 

 Broyden mixing:
  rms(total) = 0.26695E-01    rms(broyden)= 0.26689E-01
  rms(prec ) = 0.39991E-01
  weight for this iteration     100.00

 eigenvalues of (default mixing * dielectric matrix)
  average eigenvalue GAMMA=   0.7226
  2.8600  2.1035  2.1035  1.1188  0.7228  0.7228  0.5176  0.5176  0.5629  0.4307
  0.3771  0.1124  0.2981  0.1611  0.2711  0.1855  0.2442  0.2034  0.2169

 Free energy of the ion-electron system (eV)
  ---------------------------------------------------
  alpha Z        PSCENC =      1045.46069007
  Ewald energy   TEWEN  =    -20182.46809793
  -Hartree energ DENC   =    -11209.20409256
  -exchange      EXHF   =         0.00000000
  -V(xc)+E(xc)   XCENC  =      1398.51995121
  PAW double counting   =     34069.56853300   -35233.45023592
  entropy T*S    EENTRO =        -0.00000019
  eigenvalues    EBANDS =     -1189.77444423
  atomic energy  EATOM  =     31013.67235384
  Solvation  Ediel_sol  =         0.00000000
  ---------------------------------------------------
  free energy    TOTEN  =      -287.67534271 eV

  energy without entropy =     -287.67534251  energy(sigma->0) =     -287.67534261


--------------------------------------------------------------------------------------------------------




--------------------------------------- Iteration      1(  25)  ---------------------------------------


    POTLOK:  cpu time    0.0568: real time    0.0569
    SETDIJ:  cpu time    0.0068: real time    0.0068
     EDDAV:  cpu time   43.3555: real time   43.4581
    CHARGE:  cpu time    1.1499: real time    1.1526
    MIXING:  cpu time    0.0037: real time    0.0037
    --------------------------------------------
      LOOP:  cpu time   44.5726: real time   44.6782

 eigenvalue-minimisations  : 24272
 total energy-change (2. order) : 0.4121585E-03  (-0.4597110E-04)
 number of electron     352.0000010 magnetization 
 augmentation part      115.4275240 magnetization 

 Broyden mixing:
  rms(total) = 0.14491E-01    rms(broyden)= 0.14482E-01
  rms(prec ) = 0.22077E-01
  weight for this iteration     100.00

 eigenvalues of (default mixing * dielectric matrix)
  average eigenvalue GAMMA=   0.7356
  3.1487  2.2013  2.2013  1.0846  0.7371  0.7371  0.6143  0.5232  0.5232  0.4616
  0.4616  0.1124  0.3253  0.3212  0.1611  0.1855  0.2553  0.2412  0.2034  0.2127

 Free energy of the ion-electron system (eV)
  ---------------------------------------------------
  alpha Z        PSCENC =      1045.46069007
  Ewald energy   TEWEN  =    -20182.46809793
[...]
 total augmentation occupancy for first ion, spin component:           1
  7.342   0.006  -0.286   0.098   0.203  -4.281  -0.052   0.321  -0.119  -0.129  -0.316   0.087  -0.137  -0.003  -0.061   0.032
  0.006   6.854   0.225   0.040  -0.059  -0.051  -3.882  -0.239  -0.079   0.211  -0.442   0.078  -0.108   0.041  -0.007   0.017
 -0.286   0.225   3.096   0.068  -0.107   0.305  -0.222  -2.848  -0.108   0.007   0.135  -0.038  -0.043  -0.240   0.164   0.011
  0.098   0.040   0.068   6.764   0.038  -0.117  -0.078  -0.133  -3.743  -0.223  -0.515   0.082   0.000  -0.079  -0.128  -0.001
  0.203  -0.059  -0.107   0.038   2.961  -0.129   0.181   0.008  -0.179  -2.872   0.157  -0.041  -0.096  -0.003  -0.264   0.031
 -4.281  -0.051   0.305  -0.117  -0.129   3.235   0.085  -0.340   0.134   0.074   0.308  -0.082   0.129   0.002   0.051  -0.026
 -0.052  -3.882  -0.222  -0.078   0.181   0.085   2.900   0.236   0.113  -0.302   0.432  -0.087   0.102  -0.045   0.006  -0.016
  0.321  -0.239  -2.848  -0.133   0.008  -0.340   0.236   3.847   0.161   0.082  -0.167   0.045   0.067   0.263  -0.176  -0.016
 -0.119  -0.079  -0.108  -3.743  -0.179   0.134   0.113   0.161   2.732   0.326   0.500  -0.094   0.001   0.078   0.126   0.001
 -0.129   0.211   0.007  -0.223  -2.872   0.074  -0.302   0.082   0.326   4.026  -0.188   0.048   0.149   0.007   0.285  -0.041
 -0.316  -0.442   0.135  -0.515   0.157   0.308   0.432  -0.167   0.500  -0.188   2.427  -0.469  -0.073   0.125   0.142   0.016
  0.087   0.078  -0.038   0.082  -0.041  -0.082  -0.087   0.045  -0.094   0.048  -0.469   0.136   0.013  -0.033  -0.040  -0.004
 -0.137  -0.108  -0.043   0.000  -0.096   0.129   0.102   0.067   0.001   0.149  -0.073   0.013   0.492   0.040   0.026  -0.080
 -0.003   0.041  -0.240  -0.079  -0.003   0.002  -0.045   0.263   0.078   0.007   0.125  -0.033   0.040   0.421   0.045  -0.008
 -0.061  -0.007   0.164  -0.128  -0.264   0.051   0.006  -0.176   0.126   0.285   0.142  -0.040   0.026   0.045   0.439  -0.006
  0.032   0.017   0.011  -0.001   0.031  -0.026  -0.016  -0.016   0.001  -0.041   0.016  -0.004  -0.080  -0.008  -0.006   0.018
 -0.001   0.011   0.045   0.028   0.003   0.000  -0.002  -0.049  -0.021  -0.003  -0.030   0.009  -0.008  -0.068  -0.009   0.002
  0.025  -0.001  -0.033   0.027   0.052  -0.017   0.000   0.035  -0.026  -0.054  -0.033   0.011  -0.006  -0.009  -0.071   0.002


------------------------ aborting loop because EDIFF is reached ----------------------------------------


    CHARGE:  cpu time    1.2211: real time    1.2240
    FORLOC:  cpu time    0.0220: real time    0.0221
    FORNL :  cpu time    9.5591: real time    9.5817
    STRESS:  cpu time   28.6338: real time   28.7016
    FORCOR:  cpu time    0.0712: real time    0.0714
    FORHAR:  cpu time    0.0320: real time    0.0321
    MIXING:  cpu time    0.0042: real time    0.0042
    OFIELD:  cpu time    0.0001: real time    0.0001

  FORCE on cell =-STRESS in cart. coord.  units (eV):
  Direction    XX          YY          ZZ          XY          YZ          ZX
  --------------------------------------------------------------------------------------
  Alpha Z  1045.46069  1045.46069  1045.46069
  Ewald   -6747.81918 -6754.71461 -6680.05112   238.71966  -138.46121   139.17140
  Hartree  3722.04442  3758.92402  3728.65007   168.95380  -105.08378    99.43187
  E(xc)   -1787.76602 -1787.61373 -1787.87931     0.04811    -0.08608     0.00925
  Local   -3832.73303 -3867.71943 -3894.51968  -400.49998   241.82135  -235.03707
  n-local  -786.24158  -788.62323  -781.32461     0.58295     0.45176     0.47807
  augment  3000.19181  3002.13278  2993.70551    -3.28447     1.00004    -1.14915
  Kinetic  5362.27856  5360.16193  5356.13037    -3.92469     2.94281    -3.47065
  Fock        0.00000     0.00000     0.00000     0.00000     0.00000     0.00000
  -------------------------------------------------------------------------------------
  Total      -24.5843382    -31.9915767    -19.8280832      0.5953873      2.5848907     -0.5662787
  in kB      -75.1316601    -97.7687603    -60.5961728      1.8195502      7.8996282     -1.7305920
  external PRESSURE =     -77.8321978 kB  Pullay stress =       0.0000000 kB


 VOLUME and BASIS-vectors are now :
 -----------------------------------------------------------------------------
  energy-cutoff  :      500.00
  volume of cell :      524.26
      direct lattice vectors                 reciprocal lattice vectors
     8.063347430  0.000000000  0.000000000     0.124017973  0.000000000  0.000000000
     0.000000000  8.063347430  0.000000000     0.000000000  0.124017973  0.000000000
     0.000000000  0.000000000  8.063347430     0.000000000  0.000000000  0.124017973

  length of vectors
     8.063347430  8.063347430  8.063347430     0.124017973  0.124017973  0.124017973


 FORCES acting on ions
    electron-ion (+dipol)            ewald-force                    non-local-force                 convergence-correction
 -----------------------------------------------------------------------------------------------
   0.114E+03 -.985E+01 0.117E+03   -.116E+03 0.818E+01 -.118E+03   0.797E+00 0.121E+01 0.422E+00   0.612E-02 0.941E-02 -.320E-02
   0.127E+02 -.641E+02 0.142E+03   -.110E+02 0.663E+02 -.141E+03   -.169E+00 0.108E+01 0.240E+01   0.586E-02 0.594E-03 -.711E-02
   0.758E+02 -.107E+02 0.286E+02   -.759E+02 0.114E+02 -.301E+02   0.539E+00 0.633E+00 0.117E+00   -.856E-03 0.132E-01 -.116E-01
   0.706E+02 -.891E+02 -.236E+02   -.698E+02 0.897E+02 0.246E+02   -.170E+01 0.398E+00 -.132E+01   0.971E-02 -.171E-01 0.978E-04
   0.323E+01 0.625E+02 -.801E+02   -.319E+01 -.636E+02 0.824E+02   0.621E+00 -.169E+01 0.750E+00   0.105E-01 -.105E-01 0.192E-01
   0.541E+02 -.721E+02 -.664E+02   -.523E+02 0.732E+02 0.672E+02   -.686E+00 0.147E+01 -.683E-01   0.167E-02 -.496E-03 0.122E-01
   0.317E+02 0.892E+02 -.519E+02   -.315E+02 -.896E+02 0.525E+02   0.782E-01 0.188E+00 0.291E+00   0.825E-02 -.900E-02 0.117E-01
   0.693E+01 0.252E+02 -.557E+02   -.727E+01 -.259E+02 0.574E+02   0.137E+01 -.130E+00 -.454E+00   0.322E-02 0.287E-02 0.524E-02
   -.101E+03 0.279E+02 -.368E+01   0.108E+03 -.324E+02 0.393E+01   0.377E+00 -.937E+00 0.371E+00   0.516E-02 0.118E-01 0.651E-02
   -.197E+02 -.289E+02 -.159E+03   0.205E+02 0.272E+02 0.166E+03   -.935E+00 -.158E+00 -.346E+00   -.154E-02 -.210E-01 0.126E-01
   -.120E+03 0.768E+02 -.107E+03   0.122E+03 -.780E+02 0.110E+03   -.437E+00 0.107E+01 0.336E+00   -.236E-02 0.675E-02 -.705E-03
   -.131E+02 -.699E+02 -.138E+03   0.127E+02 0.719E+02 0.138E+03   -.754E+00 -.741E+00 -.415E+00   -.632E-02 0.305E-02 0.450E-02
   0.264E+02 0.782E+02 0.177E+03   -.268E+02 -.814E+02 -.179E+03   0.193E+01 0.371E+00 0.118E+01   -.204E-01 -.710E-02 -.224E-01
   -.195E+03 -.664E+02 0.161E+03   0.199E+03 0.685E+02 -.167E+03   -.541E+00 -.166E+01 0.109E+01   -.831E-02 0.164E-01 -.154E-01
   -.119E+03 0.814E+02 0.114E+02   0.122E+03 -.826E+02 -.117E+02   0.256E+00 0.101E+01 0.105E+00   -.955E-02 -.911E-02 -.323E-03
   0.412E+02 -.771E+00 -.109E+03   -.436E+02 0.367E+01 0.112E+03   0.141E+01 -.526E-01 -.109E+01   -.945E-02 0.138E-01 -.945E-02
   -.238E+03 0.217E+03 0.258E+03   0.253E+03 -.230E+03 -.276E+03   -.157E+02 0.145E+02 0.182E+02   -.607E-02 -.527E-02 -.295E-01
   -.161E+03 -.239E+03 -.158E+03   0.176E+03 0.254E+03 0.167E+03   -.170E+02 -.154E+02 -.998E+01   -.198E-02 -.163E-02 -.439E-02
   0.255E+03 -.125E+03 -.109E+03   -.275E+03 0.133E+03 0.119E+03   0.193E+02 -.943E+01 -.131E+02   0.555E-02 -.416E-02 -.111E-01
   -.158E+03 -.121E+03 0.271E+03   0.169E+03 0.131E+03 -.294E+03   -.117E+02 -.117E+02 0.209E+02   0.214E-01 -.101E-01 -.753E-02
   0.224E+03 0.202E+03 0.214E+03   -.240E+03 -.218E+03 -.231E+03   0.163E+02 0.160E+02 0.165E+02   0.477E-02 0.339E-02 -.153E-01
   -.130E+03 0.215E+03 -.127E+03   0.140E+03 -.232E+03 0.139E+03   -.126E+02 0.171E+02 -.126E+02   0.814E-02 0.634E-02 -.712E-02
   0.209E+03 0.247E+03 -.198E+03   -.228E+03 -.266E+03 0.213E+03   0.173E+02 0.182E+02 -.154E+02   -.304E-01 0.518E-03 -.690E-02
   0.235E+03 -.220E+03 0.220E+03   -.252E+03 0.236E+03 -.235E+03   0.164E+02 -.174E+02 0.136E+02   0.653E-02 -.500E-02 -.200E-02
   -.225E+03 0.180E+03 0.208E+03   0.237E+03 -.192E+03 -.228E+03   -.121E+02 0.120E+02 0.182E+02   0.155E-02 0.469E-02 0.500E-02
   -.133E+03 -.192E+03 -.238E+03   0.146E+03 0.208E+03 0.254E+03   -.143E+02 -.157E+02 -.165E+02   0.305E-02 -.789E-02 0.165E-01
   0.315E+03 -.159E+03 -.235E+03   -.344E+03 0.170E+03 0.251E+03   0.214E+02 -.127E+02 -.166E+02   -.181E-02 0.139E-01 0.377E-02
   -.150E+03 -.214E+03 0.145E+03   0.161E+03 0.230E+03 -.157E+03   -.127E+02 -.166E+02 0.129E+02   0.647E-03 0.474E-02 0.662E-03
   0.201E+03 0.149E+03 0.168E+03   -.214E+03 -.162E+03 -.185E+03   0.140E+02 0.141E+02 0.178E+02   0.124E-02 0.479E-02 0.257E-02
   -.169E+03 0.150E+03 -.242E+03   0.181E+03 -.160E+03 0.261E+03   -.128E+02 0.120E+02 -.198E+02   0.231E-02 -.116E-01 0.195E-02
   0.186E+03 0.186E+03 -.241E+03   -.202E+03 -.202E+03 0.255E+03   0.163E+02 0.173E+02 -.141E+02   -.100E-03 0.352E-02 0.620E-02
   0.218E+03 -.236E+03 0.136E+03   -.233E+03 0.256E+03 -.149E+03   0.144E+02 -.197E+02 0.137E+02   -.712E-02 0.129E-01 0.832E-02
   -.149E+03 0.277E+03 0.146E+03   0.162E+03 -.296E+03 -.160E+03   -.142E+02 0.179E+02 0.155E+02   0.821E-02 -.167E-01 0.113E-01
   -.241E+03 -.215E+03 -.197E+03   0.258E+03 0.229E+03 0.209E+03   -.182E+02 -.144E+02 -.126E+02   -.211E-02 -.353E-02 0.344E-03
   0.165E+03 -.175E+03 -.251E+03   -.179E+03 0.190E+03 0.270E+03   0.145E+02 -.154E+02 -.185E+02   -.682E-02 -.620E-02 0.286E-01
   -.190E+03 -.142E+03 0.142E+03   0.204E+03 0.155E+03 -.154E+03   -.155E+02 -.142E+02 0.136E+02   -.939E-02 -.371E-02 0.397E-02
   0.154E+03 0.182E+03 0.144E+03   -.168E+03 -.196E+03 -.155E+03   0.149E+02 0.161E+02 0.114E+02   -.206E-02 0.379E-02 -.386E-02
   -.243E+03 0.174E+03 -.199E+03   0.259E+03 -.184E+03 0.212E+03   -.167E+02 0.106E+02 -.160E+02   0.898E-02 0.198E-02 0.598E-02
   0.184E+03 0.210E+03 -.201E+03   -.197E+03 -.225E+03 0.213E+03   0.148E+02 0.165E+02 -.133E+02   0.964E-02 -.448E-02 0.886E-02
   0.148E+03 -.293E+03 0.129E+03   -.160E+03 0.318E+03 -.140E+03   0.124E+02 -.203E+02 0.118E+02   -.162E-02 0.912E-03 0.561E-02
   -.171E+03 0.205E+03 0.239E+03   0.186E+03 -.224E+03 -.252E+03   -.159E+02 0.174E+02 0.122E+02   0.195E-02 0.442E-02 -.462E-02
   -.275E+03 -.194E+03 -.247E+03   0.293E+03 0.207E+03 0.270E+03   -.158E+02 -.150E+02 -.190E+02   -.895E-02 0.233E-01 0.102E-02
   0.117E+03 -.204E+03 -.121E+03   -.128E+03 0.218E+03 0.131E+03   0.122E+02 -.166E+02 -.107E+02   -.129E-02 0.697E-02 -.449E-02
   -.227E+03 -.197E+03 0.194E+03   0.243E+03 0.211E+03 -.209E+03   -.176E+02 -.137E+02 0.165E+02   -.543E-04 0.294E-02 -.547E-02
   0.973E+02 0.178E+03 0.301E+03   -.107E+03 -.193E+03 -.328E+03   0.109E+02 0.158E+02 0.218E+02   0.241E-03 -.239E-01 0.605E-02
   -.199E+03 0.143E+03 -.106E+03   0.212E+03 -.153E+03 0.119E+03   -.141E+02 0.110E+02 -.160E+02   -.731E-02 -.252E-02 -.703E-02
   0.249E+03 0.182E+03 -.183E+03   -.266E+03 -.197E+03 0.197E+03   0.167E+02 0.156E+02 -.145E+02   0.306E-03 0.886E-02 -.143E-02
   0.217E+03 -.200E+03 0.277E+03   -.236E+03 0.217E+03 -.295E+03   0.171E+02 -.175E+02 0.159E+02   -.126E-01 0.326E-02 -.592E-02
 -----------------------------------------------------------------------------------------------
   -.144E+02 0.184E+01 -.151E+02   -.284E-13 -.540E-12 -.341E-12   0.144E+02 -.184E+01 0.151E+02   -.234E-01 0.815E-02 0.179E-02
 
 
 POSITION                                       TOTAL-FORCE (eV/Angst)
 -----------------------------------------------------------------------------------
      0.98545      4.93750      0.95172        -1.465003     -0.450568     -0.603339
      2.93366      6.78161      0.77558         1.461703      3.237759      3.223017
      2.97318      4.84681      2.98153         0.497590      1.311982     -1.448903
      1.05814      6.88209      2.97077        -0.908650      1.039824     -0.319748
      0.86547      1.04749      4.77662         0.664379     -2.793889      3.091401
      2.91040      2.86932      4.91869         1.061678      2.545319      0.669368
      2.94028      0.85959      6.83479         0.239929     -0.208972      0.900361
      0.87183      2.89979      6.90996         1.030606     -0.814513      1.172604
      4.79337      5.05030      4.87671         7.981301     -5.389727      0.632184
      6.93720      7.06319      4.78433        -0.166110     -1.867869      7.441817
      6.84539      4.89252      6.80886         1.918085     -0.134206      3.730712
      5.00555      6.86817      6.98562        -1.232268      1.249876     -0.480718
      4.87235      1.01168      0.94811         1.511904     -2.831355     -1.045103
      6.84939      2.96825      1.02966         3.686726      0.451592     -4.989792
      6.81501      0.91603      2.89755         3.106362     -0.104608     -0.169368
      4.90492      2.83705      2.92836        -0.936671      2.861933      2.111012
      6.86319      0.98661      1.07389        -1.456164      1.171916      0.127235
      2.98059      6.72549      2.76688        -1.198997     -0.019852     -0.358187
      3.08225      0.87247      0.94117        -0.255086     -1.318323     -2.379468
      0.74564      0.87732      3.06897        -0.749221     -1.467493     -2.094645
      3.05324      3.00339      3.07680        -0.067379      0.016605      0.121742
      0.96908      3.06725      0.88595        -2.053459      0.667467     -1.497650
      5.05707      1.07568      2.78581        -1.358706     -1.163992      0.155631
      1.11896      6.89160      1.14601        -0.224849     -1.436653     -0.715262
      6.75424      5.12195      5.10085        -0.282860      0.047140     -2.498843
      2.93683      2.68885      6.79055        -1.931489      0.117038     -0.547177
      3.20583      4.94561      4.80134        -6.937278     -1.666551     -0.216014
      0.82567      4.74041      6.98967        -1.214621      0.014840      1.144178
      3.05368      7.02833      6.97811         1.056282      0.319189      0.852134
      0.81999      6.97412      4.78941        -1.085141      1.837021     -0.527625
      4.98668      4.91208      6.75653         0.379551      1.585971      0.294926
      1.04844      2.81160      4.94476        -0.212465      0.699010      1.023039
      2.88637      1.12358      4.83460        -1.505122     -1.717260      1.528621
      6.84997      6.78057      6.80715        -0.637900     -0.345506     -0.695832
      7.04163      0.93124      4.71086         0.280454     -0.961435      0.356770
      4.92734      0.81703      6.96774        -1.515285     -1.593759      1.698301
      7.05650      2.92553      7.10716         0.404618      1.314381      0.714068
      4.75584      3.01921      5.00190        -0.038462      0.687619     -2.280733
      0.96726      0.94938      6.80309         1.465045      1.483986     -1.437341
      4.94529      6.69621      5.01109         0.758859      4.586329      1.061819
      2.86382      5.00809      1.13861        -0.634024     -1.040934     -1.280743
      6.66254      2.94909      2.69451         1.699084     -1.371941      3.673172
      7.00438      4.94699      0.83051         1.333110     -1.761577     -1.171867
      4.88443      4.72130      2.95109        -1.227710      0.099909      1.123651
      6.84643      6.95241      3.19070         1.442638      1.486506     -5.223598
      4.83198      7.04973      1.11233        -0.699854      1.057098     -3.032004
      1.11211      5.00484      2.85808         0.109381      0.507545     -0.385557
      5.10575      2.84137      1.11992        -2.094509      0.063127     -1.448250
 -----------------------------------------------------------------------------------
    total drift:                                0.001813      0.008161     -0.016693


--------------------------------------------------------------------------------------------------------



  FREE ENERGIE OF THE ION-ELECTRON SYSTEM (eV)
  ---------------------------------------------------
  free  energy   TOTEN  =      -287.6747499311 eV

  energy  without entropy=     -287.6747497383  energy(sigma->0) =     -287.67474983
 


--------------------------------------------------------------------------------------------------------


    POTLOK:  cpu time    0.0606: real time    0.0608


--------------------------------------------------------------------------------------------------------


     LOOP+:  cpu time 1285.6580: real time 1288.8553
    4ORBIT:  cpu time    0.0000: real time    0.0000

volume of typ            1:    19.4 %

volume of typ            2:     9.9 %
 
total charge     
 
# of ion       s       p       d       tot
------------------------------------------
    1        0.266   0.330   7.790   8.386
    2        0.279   0.353   7.802   8.433
    3        0.301   0.418   7.822   8.541
    4        0.271   0.334   7.809   8.414
    5        0.296   0.380   7.814   8.490
    6        0.306   0.415   7.826   8.548
    7        0.259   0.317   7.785   8.360
    8        0.264   0.323   7.785   8.372
    9        0.350   0.496   7.868   8.713
   10        0.302   0.395   7.838   8.535
   11        0.285   0.363   7.798   8.446
   12        0.253   0.302   7.799   8.353
   13        0.282   0.364   7.802   8.449
   14        0.299   0.392   7.828   8.518
   15        0.291   0.381   7.826   8.498
   16        0.311   0.436   7.838   8.586
   17        1.291   2.685   0.007   3.983
   18        1.298   2.664   0.006   3.968
   19        1.298   2.644   0.005   3.948
   20        1.287   2.704   0.008   3.999
   21        1.282   2.733   0.009   4.024
   22        1.297   2.639   0.005   3.941
   23        1.283   2.759   0.011   4.053
   24        1.284   2.713   0.008   4.005
   25        1.286   2.721   0.008   4.015
   26        1.290   2.691   0.007   3.987
   27        1.286   2.772   0.013   4.071
   28        1.289   2.668   0.005   3.962
   29        1.283   2.699   0.007   3.988
   30        1.292   2.672   0.006   3.970
   31        1.293   2.684   0.007   3.984
   32        1.285   2.718   0.008   4.011
   33        1.294   2.681   0.008   3.984
   34        1.288   2.690   0.007   3.985
   35        1.286   2.708   0.008   4.002
   36        1.296   2.638   0.004   3.938
   37        1.287   2.676   0.005   3.968
   38        1.295   2.667   0.005   3.967
   39        1.290   2.662   0.005   3.958
   40        1.290   2.721   0.010   4.020
   41        1.284   2.725   0.009   4.018
   42        1.289   2.749   0.012   4.050
   43        1.294   2.639   0.004   3.937
   44        1.293   2.688   0.007   3.988
   45        1.299   2.699   0.011   4.009
   46        1.300   2.626   0.004   3.930
   47        1.288   2.698   0.008   3.994
   48        1.287   2.743   0.011   4.040
--------------------------------------------------
tot          45.90   92.17  125.27  263.34
 

 total amount of memory used by VASP MPI-rank0   186115. kBytes
=======================================================================

   base      :      30000. kBytes
   nonlr-proj:      23143. kBytes
   fftplans  :       4751. kBytes
   grid      :      15225. kBytes
   one-center:        746. kBytes
   wavefun   :     112250. kBytes
 
  
  
 General timing and accounting informations for this job:
 ========================================================
  
                  Total CPU time used (sec):     1314.973
                            User time (sec):     1312.487
                          System time (sec):        2.486
                         Elapsed time (sec):     1321.630
  
                   Maximum memory used (kb):      238240.
                   Average memory used (kb):           0.
  
                          Minor page faults:        37007
                          Major page faults:           11
                 Voluntary context switches:         1219
