 vasp.5.4.4.18Apr17-6-g9f103f2a35 (build May 12 2020 04:58:55) complex          
  
 MD_VERSION_INFO: Compiled 2020-05-12T11:58:55-UTC in devlin.sd.materialsdesign.
 com:/home/medea2/data/build/wwolf/vasp-gpu5.4.4/13047/x86_64/src/src/build/std 
 from svn 13047
 
 This VASP executable licensed from Materials Design, Inc.
 
 executed on                        Lin64 date 2023.04.27  05:26:21
 running on   16 total cores
 distrk:  each k-point on   16 cores,    1 groups
 distr:  one band on NCORES_PER_BAND=   1 cores,   16 groups


--------------------------------------------------------------------------------------------------------


 INCAR:
 POTCAR:    PAW_PBE Ni 02Aug2007                  
 POTCAR:    PAW_PBE O 08Apr2002                   

 ----------------------------------------------------------------------------- 
|                                                                             |
|           W    W    AA    RRRRR   N    N  II  N    N   GGGG   !!!           |
|           W    W   A  A   R    R  NN   N  II  NN   N  G    G  !!!           |
|           W    W  A    A  R    R  N N  N  II  N N  N  G       !!!           |
|           W WW W  AAAAAA  RRRRR   N  N N  II  N  N N  G  GGG   !            |
|           WW  WW  A    A  R   R   N   NN  II  N   NN  G    G                |
|           W    W  A    A  R    R  N    N  II  N    N   GGGG   !!!           |
|                                                                             |
|      For optimal performance we recommend to set                            |
|        NCORE= 4 - approx SQRT( number of cores)                             |
|      NCORE specifies how many cores store one orbital (NPAR=cpu/NCORE).     |
|      This setting can  greatly improve the performance of VASP for DFT.     |
|      The default,   NCORE=1            might be grossly inefficient         |
|      on modern multi-core architectures or massively parallel machines.     |
|      Do your own testing !!!!                                               |
|      Unfortunately you need to use the default for GW and RPA calculations. |
|      (for HF NCORE is supported but not extensively tested yet)             |
|                                                                             |
 ----------------------------------------------------------------------------- 

 POTCAR:    PAW_PBE Ni 02Aug2007                  
  local pseudopotential read in
  partial core-charges read in
  partial kinetic energy density read in
  atomic valenz-charges read in
  non local Contribution for L=           2  read in
    real space projection operators read in
  non local Contribution for L=           2  read in
    real space projection operators read in
  non local Contribution for L=           0  read in
    real space projection operators read in
  non local Contribution for L=           0  read in
    real space projection operators read in
  non local Contribution for L=           1  read in
    real space projection operators read in
  non local Contribution for L=           1  read in
    real space projection operators read in
    PAW grid and wavefunctions read in
 
   number of l-projection  operators is LMAX  =           6
   number of lm-projection operators is LMMAX =          18
 
 POTCAR:    PAW_PBE O 08Apr2002                   
  local pseudopotential read in
  partial core-charges read in
  partial kinetic energy density read in
  kinetic energy density of atom read in
  atomic valenz-charges read in
  non local Contribution for L=           0  read in
    real space projection operators read in
  non local Contribution for L=           0  read in
    real space projection operators read in
  non local Contribution for L=           1  read in
    real space projection operators read in
  non local Contribution for L=           1  read in
    real space projection operators read in
    PAW grid and wavefunctions read in
 
   number of l-projection  operators is LMAX  =           4
   number of lm-projection operators is LMMAX =           8
 
 Optimization of the real space projectors (new method)

 maximal supplied QI-value         = 16.25
 optimisation between [QCUT,QGAM] = [ 11.38, 22.75] = [ 36.24,144.96] Ry 
 Optimized for a Real-space Cutoff    1.47 Angstroem

   l    n(q)    QCUT    max X(q) W(low)/X(q) W(high)/X(q)  e(spline) 
   2      9    11.376    60.317    0.17E-03    0.16E-04    0.16E-06
   2      9    11.376    55.921    0.17E-03    0.16E-04    0.17E-06
   0     10    11.376    51.690    0.45E-04    0.60E-04    0.21E-06
   0     10    11.376    30.015    0.37E-04    0.55E-04    0.19E-06
   1     10    11.376    18.849    0.83E-04    0.11E-03    0.92E-07
   1     10    11.376    14.624    0.69E-04    0.92E-04    0.82E-07
 Optimization of the real space projectors (new method)

 maximal supplied QI-value         = 24.76
 optimisation between [QCUT,QGAM] = [ 11.39, 22.77] = [ 36.31,145.25] Ry 
 Optimized for a Real-space Cutoff    1.10 Angstroem

   l    n(q)    QCUT    max X(q) W(low)/X(q) W(high)/X(q)  e(spline) 
   0      7    11.387    20.381    0.22E-03    0.48E-03    0.18E-06
   0      7    11.387    15.268    0.22E-03    0.52E-03    0.19E-06
   1      7    11.387     5.964    0.22E-03    0.73E-03    0.24E-06
   1      7    11.387     5.382    0.19E-03    0.60E-03    0.21E-06

 ----------------------------------------------------------------------------- 
|                                                                             |
|  ADVICE TO THIS USER RUNNING 'VASP/VAMP'   (HEAR YOUR MASTER'S VOICE ...):  |
|                                                                             |
|      You enforced a specific xc-type in the INCAR file,                     |
|      a different type was found on the POTCAR file                          |
|          I HOPE YOU KNOW, WHAT YOU ARE  DOING                               |
|                                                                             |
 ----------------------------------------------------------------------------- 

  PAW_PBE Ni 02Aug2007                  :
 energy of atom  1       EATOM=-1077.6739
 kinetic energy error for atom=    0.0030 (will be added to EATOM!!)
  PAW_PBE O 08Apr2002                   :
 energy of atom  2       EATOM= -432.3788
 kinetic energy error for atom=    0.0224 (will be added to EATOM!!)
 
 
 POSCAR: NiO2_Fd-3m_scale_0_950_disp_0_08_round_1
  positions in direct lattice
  No initial velocities read in
 exchange correlation table for  LEXCH =       14
   RHO(1)=    0.500       N(1)  =     2000
   RHO(2)=  100.500       N(2)  =     4000
 


--------------------------------------------------------------------------------------------------------


 ion  position               nearest neighbor table
   1  0.151  0.663  0.133-  28 1.56  43 1.63  41 1.66  24 1.75  47 1.78  22 1.95  11 2.36   8 2.45
                             2 2.54   3 2.67   4 2.74  14 2.74
   2  0.375  0.918  0.128-  19 1.45  29 1.48  24 1.58  41 1.80  46 1.97  18 1.98   7 2.24   1 2.54
                            13 2.54  12 2.70   4 2.78   3 2.82
   3  0.394  0.651  0.394-  21 1.71  27 1.75  44 1.82  47 1.90  41 1.93  18 2.00   1 2.67   6 2.69
                             4 2.77  16 2.77   9 2.77   2 2.82
   4  0.126  0.907  0.404-  45 1.37  20 1.54  30 1.71  24 1.88  47 1.91  18 1.97  15 2.20  10 2.43
                             5 2.63   1 2.74   3 2.77   2 2.78
   5  0.141  0.150  0.658-  35 1.55  32 1.68  33 1.84  30 1.86  39 1.92  20 2.06  10 2.43   6 2.58
                             4 2.63  15 2.64   7 2.73   8 2.78
   6  0.390  0.389  0.641-  21 1.78  32 1.81  38 1.88  33 1.89  26 2.00  27 2.01   5 2.58  16 2.68
                             3 2.69   9 2.74   7 2.84   8 2.88
   7  0.405  0.120  0.908-  29 1.30  19 1.64  33 1.80  36 1.80  26 2.00  39 2.00   2 2.24  12 2.41
                            13 2.53   5 2.73   6 2.84   8 3.00
   8  0.129  0.411  0.924-  37 1.40  22 1.46  28 1.79  32 1.91  26 1.94  39 1.94  14 2.26   1 2.45
                            11 2.51   5 2.78   6 2.88   7 3.00
   9  0.647  0.650  0.665-  31 1.74  44 1.76  38 1.84  40 1.87  27 1.91  25 1.95  12 2.61   6 2.74
                             3 2.77  11 2.79  16 2.82  10 2.83
  10  0.919  0.913  0.655-  30 1.42  35 1.57  25 1.67  34 1.77  45 1.81  40 1.82   5 2.43   4 2.43
                            15 2.49  11 2.57  12 2.69   9 2.83
  11  0.929  0.679  0.908-  28 1.45  43 1.53  25 1.73  34 1.77  31 1.97  37 2.00   1 2.36   8 2.51
                            10 2.57  12 2.71   9 2.79  14 2.84
  12  0.651  0.912  0.895-  36 1.51  40 1.57  46 1.73  31 1.84  29 1.84  34 2.08   7 2.41  13 2.42
                             9 2.61  10 2.69   2 2.70  11 2.71
  13  0.648  0.121  0.144-  46 1.43  36 1.61  19 1.67  17 1.76  23 1.82  48 1.96  12 2.42   7 2.53
                             2 2.54  15 2.72  16 2.73  14 2.79
  14  0.920  0.377  0.139-  37 1.59  22 1.63  17 1.78  42 1.84  48 1.85  43 2.02   8 2.26  15 2.72
                             1 2.74  16 2.77  13 2.79  11 2.84
  15  0.917  0.113  0.388-  20 1.34  45 1.40  17 1.76  23 1.82  35 2.01  42 2.03   4 2.20  10 2.49
                             5 2.64  14 2.72  13 2.72  16 2.84
  16  0.652  0.385  0.395-  21 1.75  42 1.77  48 1.77  23 1.88  38 1.92  44 1.93   6 2.68  13 2.73
                             3 2.77  14 2.77   9 2.82  15 2.84
  17  0.882  0.143  0.157-  13 1.76  15 1.76  14 1.78
  18  0.389  0.918  0.392-   4 1.97   2 1.98   3 2.00
  19  0.425  0.105  0.126-   2 1.45   7 1.64  13 1.67  29 1.84
  20  0.097  0.110  0.389-  15 1.34   4 1.54  45 1.77   5 2.06
  21  0.421  0.424  0.407-   3 1.71  16 1.75   6 1.78
  22  0.136  0.402  0.118-   8 1.46  14 1.63   1 1.95
  23  0.674  0.135  0.385-  13 1.82  15 1.82  16 1.88
  24  0.167  0.895  0.156-   2 1.58   1 1.75   4 1.88
  25  0.905  0.692  0.678-  10 1.67  11 1.73   9 1.95
  26  0.387  0.387  0.909-   8 1.94   6 2.00   7 2.00
  27  0.395  0.658  0.628-   3 1.75   9 1.91   6 2.01
  28  0.119  0.650  0.927-  11 1.45   1 1.56   8 1.79  43 1.94
  29  0.411  0.948  0.936-   7 1.30   2 1.48  12 1.84  19 1.84
  30  0.107  0.905  0.633-  10 1.42   4 1.71   5 1.86
  31  0.666  0.667  0.896-   9 1.74  12 1.84  11 1.97
  32  0.150  0.374  0.672-   5 1.68   6 1.81   8 1.91
  33  0.387  0.137  0.669-   7 1.80   5 1.84   6 1.89
  34  0.929  0.916  0.892-  11 1.77  10 1.77  12 2.08
  35  0.935  0.123  0.656-   5 1.55  10 1.57  15 2.01
  36  0.645  0.111  0.928-  12 1.51  13 1.61   7 1.80
  37  0.943  0.413  0.930-   8 1.40  14 1.59  11 2.00
  38  0.641  0.405  0.651-   9 1.84   6 1.88  16 1.92
  39  0.139  0.152  0.915-   5 1.92   8 1.94   7 2.00
  40  0.678  0.897  0.687-  12 1.57  10 1.82   9 1.87
  41  0.373  0.677  0.138-   1 1.66   2 1.80   3 1.93
  42  0.888  0.382  0.383-  16 1.77  14 1.84  15 2.03
  43  0.935  0.646  0.110-  11 1.53   1 1.63  28 1.94  14 2.02
  44  0.635  0.641  0.430-   9 1.76   3 1.82  16 1.93
  45  0.945  0.930  0.416-   4 1.37  15 1.40  20 1.77  10 1.81
  46  0.638  0.931  0.126-  13 1.43  12 1.73   2 1.97
  47  0.141  0.655  0.370-   1 1.78   3 1.90   4 1.91
  48  0.674  0.381  0.160-  16 1.77  14 1.85  13 1.96
 
  LATTYP: Found a simple cubic cell.
 ALAT       =     7.4733464000
  
  Lattice vectors:
  
 A1 = (   7.4733464000,   0.0000000000,   0.0000000000)
 A2 = (   0.0000000000,   7.4733464000,   0.0000000000)
 A3 = (   0.0000000000,   0.0000000000,   7.4733464000)


Analysis of symmetry for initial positions (statically):
=====================================================================
 Subroutine PRICEL returns:
 Original cell was already a primitive cell.
 

 Routine SETGRP: Setting up the symmetry group for a 
 simple cubic supercell.


 Subroutine GETGRP returns: Found  1 space group operations
 (whereof  1 operations were pure point group operations)
 out of a pool of 48 trial point group operations.


The static configuration has the point symmetry C_1 .


Analysis of symmetry for dynamics (positions and initial velocities):
=====================================================================
 Subroutine PRICEL returns:
 Original cell was already a primitive cell.
 

 Routine SETGRP: Setting up the symmetry group for a 
 simple cubic supercell.


 Subroutine GETGRP returns: Found  1 space group operations
 (whereof  1 operations were pure point group operations)
 out of a pool of 48 trial point group operations.


The dynamic configuration has the point symmetry C_1 .


 Subroutine INISYM returns: Found  1 space group operations
 (whereof  1 operations are pure point group operations),
 and found     1 'primitive' translations

 
 
 KPOINTS: Automatic mesh                          

Automatic generation of k-mesh.
Space group operators:
 irot       det(A)        alpha          n_x          n_y          n_z        tau_x        tau_y        tau_z
    1     1.000000     0.000001     1.000000     0.000000     0.000000     0.000000     0.000000     0.000000
 
 Subroutine IBZKPT returns following result:
 ===========================================
 
 Found     36 irreducible k-points:
 
 Following reciprocal coordinates:
            Coordinates               Weight
  0.000000  0.000000  0.000000      1.000000
  0.250000  0.000000  0.000000      2.000000
  0.500000  0.000000  0.000000      1.000000
  0.000000  0.250000  0.000000      2.000000
  0.250000  0.250000  0.000000      2.000000
  0.500000  0.250000  0.000000      2.000000
 -0.250000  0.250000  0.000000      2.000000
  0.000000  0.500000  0.000000      1.000000
  0.250000  0.500000  0.000000      2.000000
  0.500000  0.500000  0.000000      1.000000
  0.000000  0.000000  0.250000      2.000000
  0.250000  0.000000  0.250000      2.000000
  0.500000  0.000000  0.250000      2.000000
 -0.250000  0.000000  0.250000      2.000000
  0.000000  0.250000  0.250000      2.000000
  0.250000  0.250000  0.250000      2.000000
  0.500000  0.250000  0.250000      2.000000
 -0.250000  0.250000  0.250000      2.000000
  0.000000  0.500000  0.250000      2.000000
  0.250000  0.500000  0.250000      2.000000
  0.500000  0.500000  0.250000      2.000000
 -0.250000  0.500000  0.250000      2.000000
  0.000000 -0.250000  0.250000      2.000000
  0.250000 -0.250000  0.250000      2.000000
  0.500000 -0.250000  0.250000      2.000000
 -0.250000 -0.250000  0.250000      2.000000
  0.000000  0.000000  0.500000      1.000000
  0.250000  0.000000  0.500000      2.000000
  0.500000  0.000000  0.500000      1.000000
  0.000000  0.250000  0.500000      2.000000
  0.250000  0.250000  0.500000      2.000000
  0.500000  0.250000  0.500000      2.000000
 -0.250000  0.250000  0.500000      2.000000
  0.000000  0.500000  0.500000      1.000000
  0.250000  0.500000  0.500000      2.000000
  0.500000  0.500000  0.500000      1.000000
 
 Following cartesian coordinates:
            Coordinates               Weight
  0.000000  0.000000  0.000000      1.000000
  0.033452  0.000000  0.000000      2.000000
  0.066904  0.000000  0.000000      1.000000
  0.000000  0.033452  0.000000      2.000000
  0.033452  0.033452  0.000000      2.000000
  0.066904  0.033452  0.000000      2.000000
 -0.033452  0.033452  0.000000      2.000000
  0.000000  0.066904  0.000000      1.000000
  0.033452  0.066904  0.000000      2.000000
  0.066904  0.066904  0.000000      1.000000
  0.000000  0.000000  0.033452      2.000000
  0.033452  0.000000  0.033452      2.000000
  0.066904  0.000000  0.033452      2.000000
 -0.033452  0.000000  0.033452      2.000000
  0.000000  0.033452  0.033452      2.000000
  0.033452  0.033452  0.033452      2.000000
  0.066904  0.033452  0.033452      2.000000
 -0.033452  0.033452  0.033452      2.000000
  0.000000  0.066904  0.033452      2.000000
  0.033452  0.066904  0.033452      2.000000
  0.066904  0.066904  0.033452      2.000000
 -0.033452  0.066904  0.033452      2.000000
  0.000000 -0.033452  0.033452      2.000000
  0.033452 -0.033452  0.033452      2.000000
  0.066904 -0.033452  0.033452      2.000000
 -0.033452 -0.033452  0.033452      2.000000
  0.000000  0.000000  0.066904      1.000000
  0.033452  0.000000  0.066904      2.000000
  0.066904  0.000000  0.066904      1.000000
  0.000000  0.033452  0.066904      2.000000
  0.033452  0.033452  0.066904      2.000000
  0.066904  0.033452  0.066904      2.000000
 -0.033452  0.033452  0.066904      2.000000
  0.000000  0.066904  0.066904      1.000000
  0.033452  0.066904  0.066904      2.000000
  0.066904  0.066904  0.066904      1.000000
 


--------------------------------------------------------------------------------------------------------




 Dimension of arrays:
   k-points           NKPTS =     36   k-points in BZ     NKDIM =     36   number of bands    NBANDS=    224
   number of dos      NEDOS =    301   number of ions     NIONS =     48
   non local maximal  LDIM  =      6   non local SUM 2l+1 LMDIM =     18
   total plane-waves  NPLWV = 175616
   max r-space proj   IRMAX =   5698   max aug-charges    IRDMAX=  13836
   dimension x,y,z NGX =    56 NGY =   56 NGZ =   56
   dimension x,y,z NGXF=   112 NGYF=  112 NGZF=  112
   support grid    NGXF=   112 NGYF=  112 NGZF=  112
   ions per type =              16  32
   NGX,Y,Z   is equivalent  to a cutoff of  12.46, 12.46, 12.46 a.u.
   NGXF,Y,Z  is equivalent  to a cutoff of  24.91, 24.91, 24.91 a.u.

 SYSTEM =  unknown system                          
 POSCAR =  NiO2_Fd-3m_scale_0_950_disp_0_08_round_1

 Startparameter for this run:
   NWRITE =      1    write-flag & timer
   PREC   = accura    normal or accurate (medium, high low for compatibility)
   ISTART =      0    job   : 0-new  1-cont  2-samecut
   ICHARG =      2    charge: 1-file 2-atom 10-const
   ISPIN  =      1    spin polarized calculation?
   LNONCOLLINEAR =      F non collinear calculations
   LSORBIT =      F    spin-orbit coupling
   INIWAV =      1    electr: 0-lowe 1-rand  2-diag
   LASPH  =      F    aspherical Exc in radial PAW
   METAGGA=      F    non-selfconsistent MetaGGA calc.

 Electronic Relaxation 1
   ENCUT  =  500.0 eV  36.75 Ry    6.06 a.u.  13.63 13.63 13.63*2*pi/ulx,y,z
   ENINI  =  500.0     initial cutoff
   ENAUG  =  605.4 eV  augmentation charge cutoff
   NELM   =    120;   NELMIN=  2; NELMDL= -5     # of ELM steps 
   EDIFF  = 0.1E-04   stopping-criterion for ELM
   LREAL  =      T    real-space projection
   NLSPLINE    = F    spline interpolate recip. space projectors
   LCOMPAT=      F    compatible to vasp.4.4
   GGA_COMPAT  = T    GGA compatible to vasp.4.4-vasp.4.6
   LMAXPAW     = -100 max onsite density
   LMAXMIX     =    2 max onsite mixed and CHGCAR
   VOSKOWN=      1    Vosko Wilk Nusair interpolation
   ROPT   =   -0.00025  -0.00025
 Ionic relaxation
   EDIFFG = 0.1E-03   stopping-criterion for IOM
   NSW    =      0    number of steps for IOM
   NBLOCK =      1;   KBLOCK =      1    inner block; outer block 
   IBRION =     -1    ionic relax: 0-MD 1-quasi-New 2-CG
   NFREE  =      0    steps in history (QN), initial steepest desc. (CG)
   ISIF   =      2    stress and relaxation
   IWAVPR =     10    prediction:  0-non 1-charg 2-wave 3-comb
   ISYM   =      2    0-nonsym 1-usesym 2-fastsym
   LCORR  =      T    Harris-Foulkes like correction to forces

   POTIM  = 0.5000    time-step for ionic-motion
   TEIN   =    0.0    initial temperature
   TEBEG  =    0.0;   TEEND  =   0.0 temperature during run
   SMASS  =  -3.00    Nose mass-parameter (am)
   estimated Nose-frequenzy (Omega)   =  0.10E-29 period in steps =****** mass=  -0.128E-26a.u.
   SCALEE = 1.0000    scale energy and forces
   NPACO  =    256;   APACO  = 16.0  distance and # of slots for P.C.
   PSTRESS=    0.0 pullay stress

  Mass of Ions in am
   POMASS =  58.69 16.00
  Ionic Valenz
   ZVAL   =  10.00  6.00
  Atomic Wigner-Seitz radii
   RWIGS  =   1.15  0.73
  virtual crystal weights 
   VCA    =   1.00  1.00
   NELECT =     352.0000    total number of electrons
   NUPDOWN=      -1.0000    fix difference up-down

 DOS related values:
   EMIN   =  10.00;   EMAX   =-10.00  energy-range for DOS
   EFERMI =   0.00
   ISMEAR =     0;   SIGMA  =   0.05  broadening in eV -4-tet -1-fermi 0-gaus

 Electronic relaxation 2 (details)
   IALGO  =     38    algorithm
   LDIAG  =      T    sub-space diagonalisation (order eigenvalues)
   LSUBROT=      F    optimize rotation matrix (better conditioning)
   TURBO    =      0    0=normal 1=particle mesh
   IRESTART =      0    0=no restart 2=restart with 2 vectors
   NREBOOT  =      0    no. of reboots
   NMIN     =      0    reboot dimension
   EREF     =   0.00    reference energy to select bands
   IMIX   =      4    mixing-type and parameters
     AMIX     =   0.40;   BMIX     =  1.00
     AMIX_MAG =   1.60;   BMIX_MAG =  1.00
     AMIN     =   0.10
     WC   =   100.;   INIMIX=   1;  MIXPRE=   1;  MAXMIX= -45

 Intra band minimization:
   WEIMIN = 0.0000     energy-eigenvalue tresh-hold
   EBREAK =  0.11E-07  absolut break condition
   DEPER  =   0.30     relativ break condition  

   TIME   =   0.40     timestep for ELM

  volume/ion in A,a.u.               =       8.70        58.68
  Fermi-wavevector in a.u.,A,eV,Ry     =   1.546704  2.922847 32.549135  2.392294
  Thomas-Fermi vector in A             =   2.651902
 
 Write flags
   LWAVE        =      F    write WAVECAR
   LDOWNSAMPLE  =      F    k-point downsampling of WAVECAR
   LCHARG       =      T    write CHGCAR
   LVTOT        =      F    write LOCPOT, total local potential
   LVHAR        =      F    write LOCPOT, Hartree potential only
   LELF         =      F    write electronic localiz. function (ELF)
   LORBIT       =      0    0 simple, 1 ext, 2 COOP (PROOUT), +10 PAW based schemes


 Dipole corrections
   LMONO  =      F    monopole corrections only (constant potential shift)
   LDIPOL =      F    correct potential (dipole corrections)
   IDIPOL =      0    1-x, 2-y, 3-z, 4-all directions 
   EPSILON=  1.0000000 bulk dielectric constant

 Exchange correlation treatment:
   GGA     =    PS    GGA type
   LEXCH   =    14    internal setting for exchange type
   VOSKOWN=      1    Vosko Wilk Nusair interpolation
   LHFCALC =     F    Hartree Fock is set to
   LHFONE  =     F    Hartree Fock one center treatment
   AEXX    =    0.0000 exact exchange contribution

 Linear response parameters
   LEPSILON=     F    determine dielectric tensor
   LRPA    =     F    only Hartree local field effects (RPA)
   LNABLA  =     F    use nabla operator in PAW spheres
   LVEL    =     F    velocity operator in full k-point grid
   LINTERFAST=   F  fast interpolation
   KINTER  =     0    interpolate to denser k-point grid
   CSHIFT  =0.1000    complex shift for real part using Kramers Kronig
   OMEGAMAX=  -1.0    maximum frequency
   DEG_THRESHOLD= 0.2000000E-02 threshold for treating states as degnerate
   RTIME   =   -0.100 relaxation time in fs
  (WPLASMAI=    0.000 imaginary part of plasma frequency in eV, 0.658/RTIME)
   DFIELD  = 0.0000000 0.0000000 0.0000000 field for delta impulse in time
 
 Orbital magnetization related:
   ORBITALMAG=     F  switch on orbital magnetization
   LCHIMAG   =     F  perturbation theory with respect to B field
   DQ        =  0.001000  dq finite difference perturbation B field
   LLRAUG    =     F  two centre corrections for induced B field



--------------------------------------------------------------------------------------------------------


 Static calculation
 charge density and potential will be updated during run
 non-spin polarized calculation
 Variant of blocked Davidson
 Davidson routine will perform the subspace rotation
 perform sub-space diagonalisation
    after iterative eigenvector-optimisation
 modified Broyden-mixing scheme, WC =      100.0
 initial mixing is a Kerker type mixing with AMIX =  0.4000 and BMIX =      1.0000
 Hartree-type preconditioning will be used
 using additional bands           48
 real space projection scheme for non local part
 use partial core corrections
 calculate Harris-corrections to forces 
   (improved forces if not selfconsistent)
 use gradient corrections 
 use of overlap-Matrix (Vanderbilt PP)
 Gauss-broadening in eV      SIGMA  =   0.05


--------------------------------------------------------------------------------------------------------


  energy-cutoff  :      500.00
  volume of cell :      417.39
      direct lattice vectors                 reciprocal lattice vectors
     7.473346400  0.000000000  0.000000000     0.133808865  0.000000000  0.000000000
     0.000000000  7.473346400  0.000000000     0.000000000  0.133808865  0.000000000
     0.000000000  0.000000000  7.473346400     0.000000000  0.000000000  0.133808865

  length of vectors
     7.473346400  7.473346400  7.473346400     0.133808865  0.133808865  0.133808865


 
 k-points in units of 2pi/SCALE and weight: Automatic mesh                          
   0.00000000  0.00000000  0.00000000       0.016
   0.03345222  0.00000000  0.00000000       0.031
   0.06690443  0.00000000  0.00000000       0.016
   0.00000000  0.03345222  0.00000000       0.031
   0.03345222  0.03345222  0.00000000       0.031
   0.06690443  0.03345222  0.00000000       0.031
  -0.03345222  0.03345222  0.00000000       0.031
   0.00000000  0.06690443  0.00000000       0.016
   0.03345222  0.06690443  0.00000000       0.031
   0.06690443  0.06690443  0.00000000       0.016
   0.00000000  0.00000000  0.03345222       0.031
   0.03345222  0.00000000  0.03345222       0.031
   0.06690443  0.00000000  0.03345222       0.031
  -0.03345222  0.00000000  0.03345222       0.031
   0.00000000  0.03345222  0.03345222       0.031
   0.03345222  0.03345222  0.03345222       0.031
   0.06690443  0.03345222  0.03345222       0.031
  -0.03345222  0.03345222  0.03345222       0.031
   0.00000000  0.06690443  0.03345222       0.031
   0.03345222  0.06690443  0.03345222       0.031
   0.06690443  0.06690443  0.03345222       0.031
  -0.03345222  0.06690443  0.03345222       0.031
   0.00000000 -0.03345222  0.03345222       0.031
   0.03345222 -0.03345222  0.03345222       0.031
   0.06690443 -0.03345222  0.03345222       0.031
  -0.03345222 -0.03345222  0.03345222       0.031
   0.00000000  0.00000000  0.06690443       0.016
   0.03345222  0.00000000  0.06690443       0.031
   0.06690443  0.00000000  0.06690443       0.016
   0.00000000  0.03345222  0.06690443       0.031
   0.03345222  0.03345222  0.06690443       0.031
   0.06690443  0.03345222  0.06690443       0.031
  -0.03345222  0.03345222  0.06690443       0.031
   0.00000000  0.06690443  0.06690443       0.016
   0.03345222  0.06690443  0.06690443       0.031
   0.06690443  0.06690443  0.06690443       0.016
 
 k-points in reciprocal lattice and weights: Automatic mesh                          
   0.00000000  0.00000000  0.00000000       0.016
   0.25000000  0.00000000  0.00000000       0.031
   0.50000000  0.00000000  0.00000000       0.016
   0.00000000  0.25000000  0.00000000       0.031
   0.25000000  0.25000000  0.00000000       0.031
   0.50000000  0.25000000  0.00000000       0.031
  -0.25000000  0.25000000  0.00000000       0.031
   0.00000000  0.50000000  0.00000000       0.016
   0.25000000  0.50000000  0.00000000       0.031
   0.50000000  0.50000000  0.00000000       0.016
   0.00000000  0.00000000  0.25000000       0.031
   0.25000000  0.00000000  0.25000000       0.031
   0.50000000  0.00000000  0.25000000       0.031
  -0.25000000  0.00000000  0.25000000       0.031
   0.00000000  0.25000000  0.25000000       0.031
   0.25000000  0.25000000  0.25000000       0.031
   0.50000000  0.25000000  0.25000000       0.031
  -0.25000000  0.25000000  0.25000000       0.031
   0.00000000  0.50000000  0.25000000       0.031
   0.25000000  0.50000000  0.25000000       0.031
   0.50000000  0.50000000  0.25000000       0.031
  -0.25000000  0.50000000  0.25000000       0.031
   0.00000000 -0.25000000  0.25000000       0.031
   0.25000000 -0.25000000  0.25000000       0.031
   0.50000000 -0.25000000  0.25000000       0.031
  -0.25000000 -0.25000000  0.25000000       0.031
   0.00000000  0.00000000  0.50000000       0.016
   0.25000000  0.00000000  0.50000000       0.031
   0.50000000  0.00000000  0.50000000       0.016
   0.00000000  0.25000000  0.50000000       0.031
   0.25000000  0.25000000  0.50000000       0.031
   0.50000000  0.25000000  0.50000000       0.031
  -0.25000000  0.25000000  0.50000000       0.031
   0.00000000  0.50000000  0.50000000       0.016
   0.25000000  0.50000000  0.50000000       0.031
   0.50000000  0.50000000  0.50000000       0.016
 
 position of ions in fractional coordinates (direct lattice) 
   0.15072570  0.66256745  0.13261192
   0.37478869  0.91808327  0.12778136
   0.39385112  0.65118288  0.39426778
   0.12647047  0.90698809  0.40420647
   0.14101320  0.14987943  0.65843033
   0.39040489  0.38889892  0.64134015
   0.40525280  0.11979234  0.90836705
   0.12937752  0.41064563  0.92358661
   0.64693541  0.65026235  0.66458780
   0.91933438  0.91282246  0.65543232
   0.92902824  0.67904843  0.90773465
   0.65118913  0.91244855  0.89515705
   0.64800581  0.12061866  0.14361080
   0.91964053  0.37736004  0.13850142
   0.91723886  0.11291913  0.38834988
   0.65159401  0.38538219  0.39505492
   0.88220004  0.14349828  0.15721042
   0.38908015  0.91812981  0.39193395
   0.42544620  0.10482222  0.12584771
   0.09687302  0.11033960  0.38902862
   0.42074260  0.42379976  0.40740922
   0.13579036  0.40229972  0.11840562
   0.67431762  0.13497269  0.38463929
   0.16712079  0.89529540  0.15599175
   0.90461304  0.69162372  0.67785919
   0.38718990  0.38683608  0.90893339
   0.39458124  0.65800644  0.62843648
   0.11934705  0.64968261  0.92686867
   0.41107534  0.94834011  0.93558024
   0.10728049  0.90462615  0.63270582
   0.66635305  0.66715228  0.89599051
   0.15040343  0.37379911  0.67150870
   0.38722046  0.13720738  0.66946676
   0.92936935  0.91562596  0.89242006
   0.93498467  0.12283596  0.65631304
   0.64470395  0.11111358  0.92801820
   0.94274347  0.41287370  0.93030771
   0.64108514  0.40506721  0.65086634
   0.13897876  0.15157151  0.91538225
   0.67788554  0.89733669  0.68707813
   0.37269113  0.67724524  0.13830036
   0.88759680  0.38236779  0.38302383
   0.93500929  0.64606433  0.10985226
   0.63521475  0.64130974  0.42996074
   0.94456063  0.93027191  0.41550335
   0.63798834  0.93094343  0.12599169
   0.14074178  0.65474320  0.37024744
   0.67362684  0.38132149  0.15965573
 
 position of ions in cartesian coordinates  (Angst):
   1.12642537  4.95159607  0.99105481
   2.80092571  6.86115430  0.95495437
   2.94338585  4.86651523  2.94649969
   0.94515763  6.77823618  3.02077497
   1.05384049  1.12010090  4.92067794
   2.91763098  2.90637634  4.79295710
   3.02859455  0.89524965  6.78854162
   0.96688302  3.06889704  6.90228267
   4.83477242  4.85963579  4.96669484
   6.87050428  6.82183845  4.89827277
   6.94294985  5.07476414  6.78381548
   4.86656194  6.81904409  6.68981872
   4.84277189  0.90142503  1.07325326
   6.87279224  2.82014230  1.03506909
   6.85484373  0.84388377  2.90227318
   4.86958775  2.88009460  2.95238226
   6.59298649  1.07241235  1.17488793
   2.90773074  6.86150211  2.92905817
   3.17950683  0.78337276  0.94050353
   0.72396564  0.82460605  2.90734564
   3.14435520  3.16720241  3.04471023
   1.01480840  3.00652516  0.88488621
   5.03940916  1.00869767  2.87454265
   1.24895155  6.69085265  1.16578038
   6.76048661  5.16874364  5.06587654
   2.89360425  2.89096003  6.79277408
   2.94884229  4.91751006  4.69652351
   0.89192185  4.85530319  6.92681064
   3.07210841  7.08727415  6.99191522
   0.80174426  6.76058458  4.72842976
   4.97988717  4.98586009  6.69604745
   1.12401693  2.79353023  5.01841713
   2.89383263  1.02539828  5.00315700
   6.94549909  6.84278997  6.66936424
   6.98746432  0.91799568  4.90485469
   4.81809594  0.83039027  6.93540147
   7.04544852  3.08554818  6.95251178
   4.79105132  3.02720758  4.86414962
   1.03863642  1.13274640  6.84096864
   5.06607346  6.70610792  5.13477287
   2.78524991  5.06128828  1.03356650
   6.63331835  2.85756695  2.86246976
   6.98764831  4.82826253  0.82096399
   4.74717987  4.79272984  3.21324555
   7.05902878  6.95224423  3.10520046
   4.76790786  6.95726273  0.94157954
   1.05181207  4.89312274  2.76698737
   5.03424672  2.84974758  1.19316258
 


--------------------------------------------------------------------------------------------------------


 k-point  1 :   0.0000 0.0000 0.0000  plane waves:   10635
 k-point  2 :   0.2500 0.0000 0.0000  plane waves:   10643
 k-point  3 :   0.5000 0.0000 0.0000  plane waves:   10612
 k-point  4 :   0.0000 0.2500 0.0000  plane waves:   10643
 k-point  5 :   0.2500 0.2500 0.0000  plane waves:   10595
 k-point  6 :   0.5000 0.2500 0.0000  plane waves:   10574
 k-point  7 :  -0.2500 0.2500 0.0000  plane waves:   10595
 k-point  8 :   0.0000 0.5000 0.0000  plane waves:   10612
 k-point  9 :   0.2500 0.5000 0.0000  plane waves:   10574
 k-point 10 :   0.5000 0.5000 0.0000  plane waves:   10600
 k-point 11 :   0.0000 0.0000 0.2500  plane waves:   10643
 k-point 12 :   0.2500 0.0000 0.2500  plane waves:   10595
 k-point 13 :   0.5000 0.0000 0.2500  plane waves:   10574
 k-point 14 :  -0.2500 0.0000 0.2500  plane waves:   10595
 k-point 15 :   0.0000 0.2500 0.2500  plane waves:   10595
 k-point 16 :   0.2500 0.2500 0.2500  plane waves:   10585
 k-point 17 :   0.5000 0.2500 0.2500  plane waves:   10618
 k-point 18 :  -0.2500 0.2500 0.2500  plane waves:   10585
 k-point 19 :   0.0000 0.5000 0.2500  plane waves:   10574
 k-point 20 :   0.2500 0.5000 0.2500  plane waves:   10618
 k-point 21 :   0.5000 0.5000 0.2500  plane waves:   10616
 k-point 22 :  -0.2500 0.5000 0.2500  plane waves:   10618
 k-point 23 :   0.0000-0.2500 0.2500  plane waves:   10595
 k-point 24 :   0.2500-0.2500 0.2500  plane waves:   10585
 k-point 25 :   0.5000-0.2500 0.2500  plane waves:   10618
 k-point 26 :  -0.2500-0.2500 0.2500  plane waves:   10585
 k-point 27 :   0.0000 0.0000 0.5000  plane waves:   10612
 k-point 28 :   0.2500 0.0000 0.5000  plane waves:   10574
 k-point 29 :   0.5000 0.0000 0.5000  plane waves:   10600
 k-point 30 :   0.0000 0.2500 0.5000  plane waves:   10574
 k-point 31 :   0.2500 0.2500 0.5000  plane waves:   10618
 k-point 32 :   0.5000 0.2500 0.5000  plane waves:   10616
 k-point 33 :  -0.2500 0.2500 0.5000  plane waves:   10618
 k-point 34 :   0.0000 0.5000 0.5000  plane waves:   10600
 k-point 35 :   0.2500 0.5000 0.5000  plane waves:   10616
 k-point 36 :   0.5000 0.5000 0.5000  plane waves:   10552

 maximum and minimum number of plane-waves per node :     10643    10552

 maximum number of plane-waves:     10643
 maximum index in each direction: 
   IXMAX=   13   IYMAX=   13   IZMAX=   13
   IXMIN=  -14   IYMIN=  -14   IZMIN=  -14

 The following grids will avoid any aliasing or wrap around errors in the Hartre
 e energy
  - symmetry arguments have not been applied
  - exchange correlation energies might require even more grid points
  - we recommend to set PREC=Normal or Accurate and rely on VASP defaults
 NGX is ok and might be reduce to    56
 NGY is ok and might be reduce to    56
 NGZ is ok and might be reduce to    56

 serial   3D FFT for wavefunctions
 parallel 3D FFT for charge:
    minimum data exchange during FFTs selected (reduces bandwidth)


 total amount of memory used by VASP MPI-rank0   160453. kBytes
=======================================================================

   base      :      30000. kBytes
   nonlr-proj:      23611. kBytes
   fftplans  :       3726. kBytes
   grid      :      12054. kBytes
   one-center:        746. kBytes
   wavefun   :      90316. kBytes
 
     INWAV:  cpu time    0.0000: real time    0.0000
 Broyden mixing: mesh for mixing (old mesh)
   NGX = 27   NGY = 27   NGZ = 27
  (NGX  =112   NGY  =112   NGZ  =112)
  gives a total of  19683 points

 initial charge density was supplied:
 charge density of overlapping atoms calculated
 number of electron     352.0000000 magnetization 
 keeping initial charge density in first step


--------------------------------------------------------------------------------------------------------


 Maximum index for non-local projection operator         5496
 Maximum index for augmentation-charges          953 (set IRDMAX)


--------------------------------------------------------------------------------------------------------


 First call to EWALD:  gamma=   0.237
 Maximum number of real-space cells 3x 3x 3
 Maximum number of reciprocal cells 3x 3x 3

    FEWALD:  cpu time    0.0023: real time    0.0023


--------------------------------------- Iteration      1(   1)  ---------------------------------------


    POTLOK:  cpu time    0.0570: real time    0.0585
    SETDIJ:  cpu time    0.0066: real time    0.0066
     EDDAV:  cpu time   27.9229: real time   28.0058
    --------------------------------------------
      LOOP:  cpu time   27.9885: real time   28.0729

 eigenvalue-minimisations  : 16128
 total energy-change (2. order) : 0.4967389E+04  (-0.1564038E+05)
 number of electron     352.0000000 magnetization 
 augmentation part      352.0000000 magnetization 

 Free energy of the ion-electron system (eV)
  ---------------------------------------------------
  alpha Z        PSCENC =      1313.13231116
  Ewald energy   TEWEN  =    -20474.85800160
  -Hartree energ DENC   =    -11939.53435646
  -exchange      EXHF   =         0.00000000
  -V(xc)+E(xc)   XCENC  =      1438.68229755
  PAW double counting   =     26475.20327555   -27591.76617206
  entropy T*S    EENTRO =        -0.00765958
  eigenvalues    EBANDS =      4732.86523140
  atomic energy  EATOM  =     31013.67235384
  Solvation  Ediel_sol  =         0.00000000
  ---------------------------------------------------
  free energy    TOTEN  =      4967.38927980 eV

  energy without entropy =     4967.39693938  energy(sigma->0) =     4967.39310959


--------------------------------------------------------------------------------------------------------




--------------------------------------- Iteration      1(   2)  ---------------------------------------


     EDDAV:  cpu time   27.8500: real time   27.9159
    --------------------------------------------
      LOOP:  cpu time   27.8500: real time   27.9159

 eigenvalue-minimisations  : 16656
 total energy-change (2. order) :-0.4266925E+04  (-0.3872812E+04)
 number of electron     352.0000000 magnetization 
 augmentation part      352.0000000 magnetization 

 Free energy of the ion-electron system (eV)
  ---------------------------------------------------
  alpha Z        PSCENC =      1313.13231116
  Ewald energy   TEWEN  =    -20474.85800160
  -Hartree energ DENC   =    -11939.53435646
  -exchange      EXHF   =         0.00000000
  -V(xc)+E(xc)   XCENC  =      1438.68229755
  PAW double counting   =     26475.20327555   -27591.76617206
  entropy T*S    EENTRO =        -0.02436021
  eigenvalues    EBANDS =       465.95706885
  atomic energy  EATOM  =     31013.67235384
  Solvation  Ediel_sol  =         0.00000000
  ---------------------------------------------------
  free energy    TOTEN  =       700.46441662 eV

  energy without entropy =      700.48877683  energy(sigma->0) =      700.47659672


--------------------------------------------------------------------------------------------------------




--------------------------------------- Iteration      1(   3)  ---------------------------------------


     EDDAV:  cpu time   28.0338: real time   28.1003
    --------------------------------------------
      LOOP:  cpu time   28.0330: real time   28.0995

 eigenvalue-minimisations  : 17072
 total energy-change (2. order) :-0.9647980E+03  (-0.8570352E+03)
 number of electron     352.0000000 magnetization 
 augmentation part      352.0000000 magnetization 

 Free energy of the ion-electron system (eV)
  ---------------------------------------------------
  alpha Z        PSCENC =      1313.13231116
  Ewald energy   TEWEN  =    -20474.85800160
  -Hartree energ DENC   =    -11939.53435646
  -exchange      EXHF   =         0.00000000
  -V(xc)+E(xc)   XCENC  =      1438.68229755
  PAW double counting   =     26475.20327555   -27591.76617206
  entropy T*S    EENTRO =        -0.00000000
  eigenvalues    EBANDS =      -498.86533973
  atomic energy  EATOM  =     31013.67235384
  Solvation  Ediel_sol  =         0.00000000
  ---------------------------------------------------
  free energy    TOTEN  =      -264.33363175 eV

  energy without entropy =     -264.33363175  energy(sigma->0) =     -264.33363175


--------------------------------------------------------------------------------------------------------




--------------------------------------- Iteration      1(   4)  ---------------------------------------


     EDDAV:  cpu time   30.7535: real time   30.8263
    --------------------------------------------
      LOOP:  cpu time   30.7534: real time   30.8262

 eigenvalue-minimisations  : 17280
 total energy-change (2. order) :-0.8711103E+02  (-0.8551611E+02)
 number of electron     352.0000000 magnetization 
 augmentation part      352.0000000 magnetization 

 Free energy of the ion-electron system (eV)
  ---------------------------------------------------
  alpha Z        PSCENC =      1313.13231116
  Ewald energy   TEWEN  =    -20474.85800160
  -Hartree energ DENC   =    -11939.53435646
  -exchange      EXHF   =         0.00000000
  -V(xc)+E(xc)   XCENC  =      1438.68229755
  PAW double counting   =     26475.20327555   -27591.76617206
  entropy T*S    EENTRO =        -0.00000000
  eigenvalues    EBANDS =      -585.97637335
  atomic energy  EATOM  =     31013.67235384
  Solvation  Ediel_sol  =         0.00000000
  ---------------------------------------------------
  free energy    TOTEN  =      -351.44466537 eV

  energy without entropy =     -351.44466537  energy(sigma->0) =     -351.44466537


--------------------------------------------------------------------------------------------------------




--------------------------------------- Iteration      1(   5)  ---------------------------------------


     EDDAV:  cpu time   29.6477: real time   29.7179
    CHARGE:  cpu time    0.8411: real time    0.8431
    MIXING:  cpu time    0.0036: real time    0.0100
    --------------------------------------------
      LOOP:  cpu time   30.4913: real time   30.5699

 eigenvalue-minimisations  : 17328
 total energy-change (2. order) :-0.2083877E+01  (-0.2075883E+01)
 number of electron     352.0000011 magnetization 
 augmentation part      103.4826819 magnetization 

 Broyden mixing:
  rms(total) = 0.18646E+02    rms(broyden)= 0.18642E+02
  rms(prec ) = 0.20911E+02
  weight for this iteration     100.00

 Free energy of the ion-electron system (eV)
  ---------------------------------------------------
  alpha Z        PSCENC =      1313.13231116
  Ewald energy   TEWEN  =    -20474.85800160
  -Hartree energ DENC   =    -11939.53435646
  -exchange      EXHF   =         0.00000000
  -V(xc)+E(xc)   XCENC  =      1438.68229755
  PAW double counting   =     26475.20327555   -27591.76617206
  entropy T*S    EENTRO =        -0.00000000
  eigenvalues    EBANDS =      -588.06025022
  atomic energy  EATOM  =     31013.67235384
  Solvation  Ediel_sol  =         0.00000000
  ---------------------------------------------------
  free energy    TOTEN  =      -353.52854224 eV

  energy without entropy =     -353.52854224  energy(sigma->0) =     -353.52854224


--------------------------------------------------------------------------------------------------------




--------------------------------------- Iteration      1(   6)  ---------------------------------------


    POTLOK:  cpu time    0.0444: real time    0.0445
    SETDIJ:  cpu time    0.0070: real time    0.0071
     EDDAV:  cpu time   39.0032: real time   39.0958
    CHARGE:  cpu time    0.9206: real time    0.9229
    MIXING:  cpu time    0.0019: real time    0.0019
    --------------------------------------------
      LOOP:  cpu time   39.9771: real time   40.0721

 eigenvalue-minimisations  : 25344
 total energy-change (2. order) :-0.1720083E+02  (-0.7071643E+02)
 number of electron     351.9999995 magnetization 
 augmentation part      134.9453803 magnetization 

 Broyden mixing:
  rms(total) = 0.20021E+02    rms(broyden)= 0.20018E+02
  rms(prec ) = 0.22681E+02
  weight for this iteration     100.00

 eigenvalues of (default mixing * dielectric matrix)
  average eigenvalue GAMMA=   0.4177
  0.4177

 Free energy of the ion-electron system (eV)
  ---------------------------------------------------
  alpha Z        PSCENC =      1313.13231116
  Ewald energy   TEWEN  =    -20474.85800160
  -Hartree energ DENC   =    -11429.36169037
  -exchange      EXHF   =         0.00000000
  -V(xc)+E(xc)   XCENC  =      1439.72496730
  PAW double counting   =     32826.90280294   -33807.00938377
  entropy T*S    EENTRO =        -0.03214815
  eigenvalues    EBANDS =     -1252.90058278
  atomic energy  EATOM  =     31013.67235384
  Solvation  Ediel_sol  =         0.00000000
  ---------------------------------------------------
  free energy    TOTEN  =      -370.72937143 eV

  energy without entropy =     -370.69722328  energy(sigma->0) =     -370.71329736


--------------------------------------------------------------------------------------------------------




--------------------------------------- Iteration      1(   7)  ---------------------------------------


    POTLOK:  cpu time    0.0431: real time    0.0432
    SETDIJ:  cpu time    0.0068: real time    0.0068
     EDDAV:  cpu time   37.1736: real time   37.2619
    CHARGE:  cpu time    0.9529: real time    0.9552
    MIXING:  cpu time    0.0017: real time    0.0017
    --------------------------------------------
      LOOP:  cpu time   38.1780: real time   38.2686

 eigenvalue-minimisations  : 23152
 total energy-change (2. order) : 0.1275141E+03  (-0.2898132E+02)
 number of electron     352.0000001 magnetization 
 augmentation part      115.6908356 magnetization 

 Broyden mixing:
  rms(total) = 0.53593E+01    rms(broyden)= 0.53563E+01
  rms(prec ) = 0.65739E+01
  weight for this iteration     100.00

 eigenvalues of (default mixing * dielectric matrix)
  average eigenvalue GAMMA=   0.8678
  1.3128  0.4228

 Free energy of the ion-electron system (eV)
  ---------------------------------------------------
  alpha Z        PSCENC =      1313.13231116
  Ewald energy   TEWEN  =    -20474.85800160
  -Hartree energ DENC   =    -11779.18676232
  -exchange      EXHF   =         0.00000000
  -V(xc)+E(xc)   XCENC  =      1445.43355550
  PAW double counting   =     35527.39978747   -36683.88739970
  entropy T*S    EENTRO =        -0.00327481
  eigenvalues    EBANDS =      -604.91784966
  atomic energy  EATOM  =     31013.67235384
  Solvation  Ediel_sol  =         0.00000000
  ---------------------------------------------------
  free energy    TOTEN  =      -243.21528012 eV

  energy without entropy =     -243.21200531  energy(sigma->0) =     -243.21364271


--------------------------------------------------------------------------------------------------------




--------------------------------------- Iteration      1(   8)  ---------------------------------------


    POTLOK:  cpu time    0.0430: real time    0.0431
    SETDIJ:  cpu time    0.0068: real time    0.0069
     EDDAV:  cpu time   44.4262: real time   44.5315
    CHARGE:  cpu time    0.8894: real time    0.8916
    MIXING:  cpu time    0.0017: real time    0.0017
    --------------------------------------------
      LOOP:  cpu time   45.3671: real time   45.4747

 eigenvalue-minimisations  : 28272
 total energy-change (2. order) :-0.2265259E+02  (-0.9787950E+01)
 number of electron     352.0000011 magnetization 
 augmentation part      113.3551174 magnetization 

 Broyden mixing:
  rms(total) = 0.11982E+02    rms(broyden)= 0.11981E+02
  rms(prec ) = 0.15175E+02
  weight for this iteration     100.00

 eigenvalues of (default mixing * dielectric matrix)
  average eigenvalue GAMMA=   0.7136
  1.5400  0.4092  0.1916

 Free energy of the ion-electron system (eV)
  ---------------------------------------------------
  alpha Z        PSCENC =      1313.13231116
  Ewald energy   TEWEN  =    -20474.85800160
  -Hartree energ DENC   =    -11665.10246985
  -exchange      EXHF   =         0.00000000
  -V(xc)+E(xc)   XCENC  =      1441.75605274
  PAW double counting   =     39590.04007654   -40820.03359959
  entropy T*S    EENTRO =        -0.03519465
  eigenvalues    EBANDS =      -664.43940349
  atomic energy  EATOM  =     31013.67235384
  Solvation  Ediel_sol  =         0.00000000
  ---------------------------------------------------
  free energy    TOTEN  =      -265.86787490 eV

  energy without entropy =     -265.83268025  energy(sigma->0) =     -265.85027757


--------------------------------------------------------------------------------------------------------




--------------------------------------- Iteration      1(   9)  ---------------------------------------


    POTLOK:  cpu time    0.0421: real time    0.0422
    SETDIJ:  cpu time    0.0068: real time    0.0068
     EDDAV:  cpu time   33.2192: real time   33.2978
    CHARGE:  cpu time    0.9699: real time    0.9722
    MIXING:  cpu time    0.0017: real time    0.0017
    --------------------------------------------
      LOOP:  cpu time   34.2397: real time   34.3208

 eigenvalue-minimisations  : 21056
 total energy-change (2. order) : 0.1110933E+02  (-0.9379643E+01)
 number of electron     352.0000012 magnetization 
 augmentation part      114.0334546 magnetization 

 Broyden mixing:
  rms(total) = 0.56086E+01    rms(broyden)= 0.56072E+01
  rms(prec ) = 0.79948E+01
  weight for this iteration     100.00

 eigenvalues of (default mixing * dielectric matrix)
  average eigenvalue GAMMA=   0.6951
  1.7881  0.3813  0.3813  0.2296

 Free energy of the ion-electron system (eV)
  ---------------------------------------------------
  alpha Z        PSCENC =      1313.13231116
  Ewald energy   TEWEN  =    -20474.85800160
  -Hartree energ DENC   =    -11659.27369784
  -exchange      EXHF   =         0.00000000
  -V(xc)+E(xc)   XCENC  =      1440.55562697
  PAW double counting   =     41418.28044480   -42667.53464511
  entropy T*S    EENTRO =        -0.02804605
  eigenvalues    EBANDS =      -638.70489037
  atomic energy  EATOM  =     31013.67235384
  Solvation  Ediel_sol  =         0.00000000
  ---------------------------------------------------
  free energy    TOTEN  =      -254.75854420 eV

  energy without entropy =     -254.73049815  energy(sigma->0) =     -254.74452118


--------------------------------------------------------------------------------------------------------




--------------------------------------- Iteration      1(  10)  ---------------------------------------


    POTLOK:  cpu time    0.0428: real time    0.0429
    SETDIJ:  cpu time    0.0067: real time    0.0068
     EDDAV:  cpu time   35.7602: real time   35.8451
    CHARGE:  cpu time    0.9522: real time    0.9545
    MIXING:  cpu time    0.0018: real time    0.0018
    --------------------------------------------
      LOOP:  cpu time   36.7638: real time   36.8510

 eigenvalue-minimisations  : 22112
 total energy-change (2. order) : 0.1759181E+02  (-0.2593071E+01)
 number of electron     351.9999997 magnetization 
 augmentation part      114.7964066 magnetization 

 Broyden mixing:
  rms(total) = 0.26034E+01    rms(broyden)= 0.26016E+01
  rms(prec ) = 0.35975E+01
  weight for this iteration     100.00

 eigenvalues of (default mixing * dielectric matrix)
  average eigenvalue GAMMA=   0.6877
  1.9400  0.4905  0.4905  0.3377  0.1798

 Free energy of the ion-electron system (eV)
  ---------------------------------------------------
  alpha Z        PSCENC =      1313.13231116
  Ewald energy   TEWEN  =    -20474.85800160
  -Hartree energ DENC   =    -11615.00021562
  -exchange      EXHF   =         0.00000000
  -V(xc)+E(xc)   XCENC  =      1439.40892479
  PAW double counting   =     43251.72515979   -44507.30812804
  entropy T*S    EENTRO =        -0.01736980
  eigenvalues    EBANDS =      -657.92176936
  atomic energy  EATOM  =     31013.67235384
  Solvation  Ediel_sol  =         0.00000000
  ---------------------------------------------------
  free energy    TOTEN  =      -237.16673483 eV

  energy without entropy =     -237.14936503  energy(sigma->0) =     -237.15804993


--------------------------------------------------------------------------------------------------------




--------------------------------------- Iteration      1(  11)  ---------------------------------------


    POTLOK:  cpu time    0.0418: real time    0.0419
    SETDIJ:  cpu time    0.0067: real time    0.0067
     EDDAV:  cpu time   37.3109: real time   37.3994
    CHARGE:  cpu time    0.9456: real time    0.9479
    MIXING:  cpu time    0.0021: real time    0.0021
    --------------------------------------------
      LOOP:  cpu time   38.3070: real time   38.3979

 eigenvalue-minimisations  : 23040
 total energy-change (2. order) : 0.1821500E+01  (-0.1521817E+01)
 number of electron     352.0000009 magnetization 
 augmentation part      114.8714701 magnetization 

 Broyden mixing:
  rms(total) = 0.21745E+01    rms(broyden)= 0.21738E+01
  rms(prec ) = 0.29116E+01
  weight for this iteration     100.00

 eigenvalues of (default mixing * dielectric matrix)
  average eigenvalue GAMMA=   0.6606
  1.9853  0.6085  0.6085  0.3450  0.2082  0.2082

 Free energy of the ion-electron system (eV)
  ---------------------------------------------------
  alpha Z        PSCENC =      1313.13231116
  Ewald energy   TEWEN  =    -20474.85800160
  -Hartree energ DENC   =    -11614.38794793
  -exchange      EXHF   =         0.00000000
  -V(xc)+E(xc)   XCENC  =      1439.11765957
  PAW double counting   =     43957.75990808   -45214.24122583
  entropy T*S    EENTRO =        -0.00507231
  eigenvalues    EBANDS =      -655.53521954
  atomic energy  EATOM  =     31013.67235384
  Solvation  Ediel_sol  =         0.00000000
  ---------------------------------------------------
  free energy    TOTEN  =      -235.34523455 eV

  energy without entropy =     -235.34016224  energy(sigma->0) =     -235.34269839


--------------------------------------------------------------------------------------------------------




--------------------------------------- Iteration      1(  12)  ---------------------------------------


    POTLOK:  cpu time    0.0433: real time    0.0434
    SETDIJ:  cpu time    0.0066: real time    0.0066
     EDDAV:  cpu time   36.9097: real time   36.9971
    CHARGE:  cpu time    0.9087: real time    0.9109
    MIXING:  cpu time    0.0019: real time    0.0019
    --------------------------------------------
      LOOP:  cpu time   37.8701: real time   37.9598

 eigenvalue-minimisations  : 23648
 total energy-change (2. order) : 0.1066519E+01  (-0.6876579E+00)
 number of electron     352.0000001 magnetization 
 augmentation part      115.0135484 magnetization 

 Broyden mixing:
  rms(total) = 0.13576E+01    rms(broyden)= 0.13572E+01
  rms(prec ) = 0.16938E+01
  weight for this iteration     100.00

 eigenvalues of (default mixing * dielectric matrix)
  average eigenvalue GAMMA=   0.6641
  2.0494  0.6870  0.6870  0.4135  0.4135  0.1991  0.1991

 Free energy of the ion-electron system (eV)
  ---------------------------------------------------
  alpha Z        PSCENC =      1313.13231116
  Ewald energy   TEWEN  =    -20474.85800160
  -Hartree energ DENC   =    -11615.75765632
  -exchange      EXHF   =         0.00000000
  -V(xc)+E(xc)   XCENC  =      1439.09328605
  PAW double counting   =     44326.66048765   -45582.55366873
  entropy T*S    EENTRO =        -0.00079742
  eigenvalues    EBANDS =      -653.66703048
  atomic energy  EATOM  =     31013.67235384
  Solvation  Ediel_sol  =         0.00000000
  ---------------------------------------------------
  free energy    TOTEN  =      -234.27871584 eV

  energy without entropy =     -234.27791843  energy(sigma->0) =     -234.27831714


--------------------------------------------------------------------------------------------------------




--------------------------------------- Iteration      1(  13)  ---------------------------------------


    POTLOK:  cpu time    0.0427: real time    0.0428
    SETDIJ:  cpu time    0.0067: real time    0.0067
     EDDAV:  cpu time   36.5682: real time   36.6549
    CHARGE:  cpu time    0.9088: real time    0.9109
    MIXING:  cpu time    0.0019: real time    0.0019
    --------------------------------------------
      LOOP:  cpu time   37.5283: real time   37.6173

 eigenvalue-minimisations  : 22624
 total energy-change (2. order) : 0.2111599E+00  (-0.2226319E+00)
 number of electron     352.0000004 magnetization 
 augmentation part      115.2735274 magnetization 

 Broyden mixing:
  rms(total) = 0.10178E+01    rms(broyden)= 0.10176E+01
  rms(prec ) = 0.13119E+01
  weight for this iteration     100.00

 eigenvalues of (default mixing * dielectric matrix)
  average eigenvalue GAMMA=   0.6880
  2.1855  0.8495  0.8495  0.4807  0.4807  0.2500  0.2040  0.2040

 Free energy of the ion-electron system (eV)
  ---------------------------------------------------
  alpha Z        PSCENC =      1313.13231116
  Ewald energy   TEWEN  =    -20474.85800160
  -Hartree energ DENC   =    -11615.44525078
  -exchange      EXHF   =         0.00000000
  -V(xc)+E(xc)   XCENC  =      1439.09396426
  PAW double counting   =     44674.01335414   -45929.42917612
  entropy T*S    EENTRO =        -0.00007952
  eigenvalues    EBANDS =      -654.24703129
  atomic energy  EATOM  =     31013.67235384
  Solvation  Ediel_sol  =         0.00000000
  ---------------------------------------------------
  free energy    TOTEN  =      -234.06755591 eV

  energy without entropy =     -234.06747640  energy(sigma->0) =     -234.06751615


--------------------------------------------------------------------------------------------------------




--------------------------------------- Iteration      1(  14)  ---------------------------------------


    POTLOK:  cpu time    0.0441: real time    0.0442
    SETDIJ:  cpu time    0.0070: real time    0.0070
     EDDAV:  cpu time   34.8371: real time   34.9197
    CHARGE:  cpu time    0.9062: real time    0.9084
    MIXING:  cpu time    0.0024: real time    0.0024
    --------------------------------------------
      LOOP:  cpu time   35.7968: real time   35.8816

 eigenvalue-minimisations  : 20912
 total energy-change (2. order) : 0.1655244E+00  (-0.1191037E+00)
 number of electron     352.0000003 magnetization 
 augmentation part      115.5625836 magnetization 

 Broyden mixing:
  rms(total) = 0.87289E+00    rms(broyden)= 0.87271E+00
  rms(prec ) = 0.10988E+01
  weight for this iteration     100.00

 eigenvalues of (default mixing * dielectric matrix)
  average eigenvalue GAMMA=   0.7187
  2.4588  0.9717  0.9717  0.6181  0.4655  0.3048  0.2874  0.1951  0.1951

 Free energy of the ion-electron system (eV)
  ---------------------------------------------------
  alpha Z        PSCENC =      1313.13231116
  Ewald energy   TEWEN  =    -20474.85800160
  -Hartree energ DENC   =    -11612.38741675
  -exchange      EXHF   =         0.00000000
  -V(xc)+E(xc)   XCENC  =      1439.00982421
  PAW double counting   =     45085.10033289   -46339.93024838
  entropy T*S    EENTRO =        -0.00028689
  eigenvalues    EBANDS =      -657.64089994
  atomic energy  EATOM  =     31013.67235384
  Solvation  Ediel_sol  =         0.00000000
  ---------------------------------------------------
  free energy    TOTEN  =      -233.90203147 eV

  energy without entropy =     -233.90174458  energy(sigma->0) =     -233.90188802


--------------------------------------------------------------------------------------------------------




--------------------------------------- Iteration      1(  15)  ---------------------------------------


    POTLOK:  cpu time    0.0434: real time    0.0435
    SETDIJ:  cpu time    0.0070: real time    0.0070
     EDDAV:  cpu time   31.5459: real time   31.6206
    CHARGE:  cpu time    0.8994: real time    0.9015
    MIXING:  cpu time    0.0022: real time    0.0022
    --------------------------------------------
      LOOP:  cpu time   32.4978: real time   32.5748

 eigenvalue-minimisations  : 19552
 total energy-change (2. order) : 0.1507959E+00  (-0.4550515E-01)
 number of electron     352.0000003 magnetization 
 augmentation part      115.6185423 magnetization 

 Broyden mixing:
  rms(total) = 0.53815E+00    rms(broyden)= 0.53799E+00
  rms(prec ) = 0.66710E+00
  weight for this iteration     100.00

 eigenvalues of (default mixing * dielectric matrix)
  average eigenvalue GAMMA=   0.7346
  2.6375  1.4138  0.7401  0.7401  0.4928  0.3544  0.3544  0.2233  0.1947  0.1947

 Free energy of the ion-electron system (eV)
  ---------------------------------------------------
  alpha Z        PSCENC =      1313.13231116
  Ewald energy   TEWEN  =    -20474.85800160
  -Hartree energ DENC   =    -11612.99466164
  -exchange      EXHF   =         0.00000000
  -V(xc)+E(xc)   XCENC  =      1438.93990267
  PAW double counting   =     45439.27200745   -46694.40225666
  entropy T*S    EENTRO =        -0.00013325
  eigenvalues    EBANDS =      -656.51275757
  atomic energy  EATOM  =     31013.67235384
  Solvation  Ediel_sol  =         0.00000000
  ---------------------------------------------------
  free energy    TOTEN  =      -233.75123559 eV

  energy without entropy =     -233.75110234  energy(sigma->0) =     -233.75116897


--------------------------------------------------------------------------------------------------------




--------------------------------------- Iteration      1(  16)  ---------------------------------------


    POTLOK:  cpu time    0.0439: real time    0.0440
    SETDIJ:  cpu time    0.0070: real time    0.0070
     EDDAV:  cpu time   33.2908: real time   33.3696
    CHARGE:  cpu time    0.8920: real time    0.8942
    MIXING:  cpu time    0.0029: real time    0.0103
    --------------------------------------------
      LOOP:  cpu time   34.2366: real time   34.3251

 eigenvalue-minimisations  : 20720
 total energy-change (2. order) : 0.5038896E-01  (-0.2616018E-01)
 number of electron     352.0000003 magnetization 
 augmentation part      115.6423867 magnetization 

 Broyden mixing:
  rms(total) = 0.33196E+00    rms(broyden)= 0.33183E+00
  rms(prec ) = 0.41499E+00
  weight for this iteration     100.00

 eigenvalues of (default mixing * dielectric matrix)
  average eigenvalue GAMMA=   0.7663
  2.7477  1.8893  0.7229  0.7229  0.6079  0.4172  0.4172  0.2827  0.1954  0.1954
  0.2307

 Free energy of the ion-electron system (eV)
  ---------------------------------------------------
  alpha Z        PSCENC =      1313.13231116
  Ewald energy   TEWEN  =    -20474.85800160
  -Hartree energ DENC   =    -11614.42672858
  -exchange      EXHF   =         0.00000000
  -V(xc)+E(xc)   XCENC  =      1438.88541418
  PAW double counting   =     45611.37224887   -46865.74544618
  entropy T*S    EENTRO =        -0.00011589
  eigenvalues    EBANDS =      -655.73288244
  atomic energy  EATOM  =     31013.67235384
  Solvation  Ediel_sol  =         0.00000000
  ---------------------------------------------------
  free energy    TOTEN  =      -233.70084664 eV

  energy without entropy =     -233.70073074  energy(sigma->0) =     -233.70078869


--------------------------------------------------------------------------------------------------------




--------------------------------------- Iteration      1(  17)  ---------------------------------------


    POTLOK:  cpu time    0.0457: real time    0.0458
    SETDIJ:  cpu time    0.0065: real time    0.0066
     EDDAV:  cpu time   37.5572: real time   37.6463
    CHARGE:  cpu time    0.8520: real time    0.8540
    MIXING:  cpu time    0.0028: real time    0.0028
    --------------------------------------------
      LOOP:  cpu time   38.4642: real time   38.5554

 eigenvalue-minimisations  : 22224
 total energy-change (2. order) : 0.1964305E-01  (-0.1327254E-01)
 number of electron     352.0000003 magnetization 
 augmentation part      115.6367126 magnetization 

 Broyden mixing:
  rms(total) = 0.21556E+00    rms(broyden)= 0.21548E+00
  rms(prec ) = 0.27604E+00
  weight for this iteration     100.00

 eigenvalues of (default mixing * dielectric matrix)
  average eigenvalue GAMMA=   0.7557
  2.5881  2.1584  0.7155  0.7155  0.7217  0.4769  0.4769  0.3368  0.2727  0.1948
  0.1948  0.2168

 Free energy of the ion-electron system (eV)
  ---------------------------------------------------
  alpha Z        PSCENC =      1313.13231116
  Ewald energy   TEWEN  =    -20474.85800160
  -Hartree energ DENC   =    -11616.16654641
  -exchange      EXHF   =         0.00000000
  -V(xc)+E(xc)   XCENC  =      1438.84168108
  PAW double counting   =     45651.37412765   -46904.12731618
  entropy T*S    EENTRO =        -0.00023436
  eigenvalues    EBANDS =      -655.54957877
  atomic energy  EATOM  =     31013.67235384
  Solvation  Ediel_sol  =         0.00000000
  ---------------------------------------------------
  free energy    TOTEN  =      -233.68120358 eV

  energy without entropy =     -233.68096923  energy(sigma->0) =     -233.68108641


--------------------------------------------------------------------------------------------------------




--------------------------------------- Iteration      1(  18)  ---------------------------------------


    POTLOK:  cpu time    0.0448: real time    0.0449
    SETDIJ:  cpu time    0.0075: real time    0.0075
     EDDAV:  cpu time   31.2146: real time   31.2885
    CHARGE:  cpu time    0.8448: real time    0.8468
    MIXING:  cpu time    0.0025: real time    0.0025
    --------------------------------------------
      LOOP:  cpu time   32.1142: real time   32.1903

 eigenvalue-minimisations  : 19664
 total energy-change (2. order) : 0.1152517E-01  (-0.4832520E-02)
 number of electron     352.0000003 magnetization 
 augmentation part      115.6536452 magnetization 

 Broyden mixing:
  rms(total) = 0.12342E+00    rms(broyden)= 0.12337E+00
  rms(prec ) = 0.15527E+00
  weight for this iteration     100.00

 eigenvalues of (default mixing * dielectric matrix)
  average eigenvalue GAMMA=   0.7610
  2.3973  2.3973  0.8331  0.8331  0.7736  0.6636  0.4165  0.3834  0.3248  0.2619
  0.1952  0.1952  0.2187

 Free energy of the ion-electron system (eV)
  ---------------------------------------------------
  alpha Z        PSCENC =      1313.13231116
  Ewald energy   TEWEN  =    -20474.85800160
  -Hartree energ DENC   =    -11615.91754726
  -exchange      EXHF   =         0.00000000
  -V(xc)+E(xc)   XCENC  =      1438.82394840
  PAW double counting   =     45606.81974147   -46858.59582409
  entropy T*S    EENTRO =        -0.00026224
  eigenvalues    EBANDS =      -656.74639810
  atomic energy  EATOM  =     31013.67235384
  Solvation  Ediel_sol  =         0.00000000
  ---------------------------------------------------
  free energy    TOTEN  =      -233.66967841 eV

  energy without entropy =     -233.66941617  energy(sigma->0) =     -233.66954729


--------------------------------------------------------------------------------------------------------




--------------------------------------- Iteration      1(  19)  ---------------------------------------


    POTLOK:  cpu time    0.0425: real time    0.0426
    SETDIJ:  cpu time    0.0066: real time    0.0066
     EDDAV:  cpu time   32.4952: real time   32.5721
    CHARGE:  cpu time    0.7822: real time    0.7840
    MIXING:  cpu time    0.0023: real time    0.0023
    --------------------------------------------
      LOOP:  cpu time   33.3288: real time   33.4077

 eigenvalue-minimisations  : 20288
 total energy-change (2. order) : 0.3429636E-02  (-0.1828882E-02)
 number of electron     352.0000003 magnetization 
 augmentation part      115.6825702 magnetization 

 Broyden mixing:
  rms(total) = 0.83678E-01    rms(broyden)= 0.83654E-01
  rms(prec ) = 0.10383E+00
  weight for this iteration     100.00

 eigenvalues of (default mixing * dielectric matrix)
  average eigenvalue GAMMA=   0.7671
  2.4819  2.4819  0.9517  0.9517  0.7452  0.7452  0.4226  0.4226  0.3840  0.2895
  0.2543  0.1950  0.1950  0.2185

 Free energy of the ion-electron system (eV)
  ---------------------------------------------------
  alpha Z        PSCENC =      1313.13231116
  Ewald energy   TEWEN  =    -20474.85800160
  -Hartree energ DENC   =    -11615.12060923
  -exchange      EXHF   =         0.00000000
  -V(xc)+E(xc)   XCENC  =      1438.81113368
  PAW double counting   =     45565.22518245   -46816.38023651
  entropy T*S    EENTRO =        -0.00022751
  eigenvalues    EBANDS =      -658.14815506
  atomic energy  EATOM  =     31013.67235384
  Solvation  Ediel_sol  =         0.00000000
  ---------------------------------------------------
  free energy    TOTEN  =      -233.66624878 eV

  energy without entropy =     -233.66602126  energy(sigma->0) =     -233.66613502


--------------------------------------------------------------------------------------------------------




--------------------------------------- Iteration      1(  20)  ---------------------------------------


    POTLOK:  cpu time    0.0385: real time    0.0386
    SETDIJ:  cpu time    0.0066: real time    0.0066
     EDDAV:  cpu time   32.6593: real time   32.7367
    CHARGE:  cpu time    0.8881: real time    0.8902
    MIXING:  cpu time    0.0026: real time    0.0026
    --------------------------------------------
      LOOP:  cpu time   33.5951: real time   33.6748

 eigenvalue-minimisations  : 18736
 total energy-change (2. order) : 0.1673552E-02  (-0.8426565E-03)
 number of electron     352.0000003 magnetization 
 augmentation part      115.6927239 magnetization 

 Broyden mixing:
  rms(total) = 0.47293E-01    rms(broyden)= 0.47275E-01
  rms(prec ) = 0.61542E-01
  weight for this iteration     100.00

 eigenvalues of (default mixing * dielectric matrix)
  average eigenvalue GAMMA=   0.7772
  2.6739  2.3855  1.1408  1.1408  0.7305  0.7305  0.4906  0.4906  0.3819  0.3478
  0.2818  0.1951  0.1951  0.2551  0.2177

 Free energy of the ion-electron system (eV)
  ---------------------------------------------------
  alpha Z        PSCENC =      1313.13231116
  Ewald energy   TEWEN  =    -20474.85800160
  -Hartree energ DENC   =    -11614.75616181
  -exchange      EXHF   =         0.00000000
  -V(xc)+E(xc)   XCENC  =      1438.80062216
  PAW double counting   =     45550.93453056   -46801.85389517
  entropy T*S    EENTRO =        -0.00023893
  eigenvalues    EBANDS =      -658.73609545
  atomic energy  EATOM  =     31013.67235384
  Solvation  Ediel_sol  =         0.00000000
  ---------------------------------------------------
  free energy    TOTEN  =      -233.66457523 eV

  energy without entropy =     -233.66433630  energy(sigma->0) =     -233.66445576


--------------------------------------------------------------------------------------------------------




--------------------------------------- Iteration      1(  21)  ---------------------------------------


    POTLOK:  cpu time    0.0439: real time    0.0440
    SETDIJ:  cpu time    0.0069: real time    0.0069
     EDDAV:  cpu time   32.5969: real time   32.6740
    CHARGE:  cpu time    0.8573: real time    0.8594
    MIXING:  cpu time    0.0028: real time    0.0028
    --------------------------------------------
      LOOP:  cpu time   33.5077: real time   33.5870

 eigenvalue-minimisations  : 19664
 total energy-change (2. order) : 0.4934746E-03  (-0.2993540E-03)
 number of electron     352.0000003 magnetization 
 augmentation part      115.6905032 magnetization 

 Broyden mixing:
  rms(total) = 0.36879E-01    rms(broyden)= 0.36871E-01
  rms(prec ) = 0.48239E-01
  weight for this iteration     100.00

 eigenvalues of (default mixing * dielectric matrix)
  average eigenvalue GAMMA=   0.7857
  2.7749  2.3256  1.3305  1.3305  0.7416  0.7416  0.5464  0.5464  0.3939  0.3939
  0.3186  0.1951  0.1951  0.2747  0.2178  0.2454

 Free energy of the ion-electron system (eV)
  ---------------------------------------------------
  alpha Z        PSCENC =      1313.13231116
  Ewald energy   TEWEN  =    -20474.85800160
  -Hartree energ DENC   =    -11614.50439213
  -exchange      EXHF   =         0.00000000
  -V(xc)+E(xc)   XCENC  =      1438.79590274
  PAW double counting   =     45543.97671952   -46794.86487486
  entropy T*S    EENTRO =        -0.00024632
  eigenvalues    EBANDS =      -659.01385410
  atomic energy  EATOM  =     31013.67235384
  Solvation  Ediel_sol  =         0.00000000
  ---------------------------------------------------
  free energy    TOTEN  =      -233.66408175 eV

  energy without entropy =     -233.66383543  energy(sigma->0) =     -233.66395859


--------------------------------------------------------------------------------------------------------




--------------------------------------- Iteration      1(  22)  ---------------------------------------


    POTLOK:  cpu time    0.0432: real time    0.0433
    SETDIJ:  cpu time    0.0066: real time    0.0066
     EDDAV:  cpu time   32.4973: real time   32.5743
    CHARGE:  cpu time    0.8689: real time    0.8709
    MIXING:  cpu time    0.0028: real time    0.0028
    --------------------------------------------
      LOOP:  cpu time   33.4188: real time   33.4979

 eigenvalue-minimisations  : 20592
 total energy-change (2. order) : 0.1236901E-03  (-0.1657644E-03)
 number of electron     352.0000003 magnetization 
 augmentation part      115.6883003 magnetization 

 Broyden mixing:
  rms(total) = 0.28087E-01    rms(broyden)= 0.28081E-01
  rms(prec ) = 0.39953E-01
  weight for this iteration     100.00

 eigenvalues of (default mixing * dielectric matrix)
  average eigenvalue GAMMA=   0.7834
  2.9372  2.1997  1.7994  1.1101  0.7594  0.7594  0.6436  0.5488  0.4034  0.4034
  0.3570  0.2938  0.1951  0.1951  0.2175  0.2498  0.2445

 Free energy of the ion-electron system (eV)
  ---------------------------------------------------
  alpha Z        PSCENC =      1313.13231116
  Ewald energy   TEWEN  =    -20474.85800160
  -Hartree energ DENC   =    -11614.33249205
  -exchange      EXHF   =         0.00000000
  -V(xc)+E(xc)   XCENC  =      1438.79358114
  PAW double counting   =     45537.10555938   -46788.03994262
  entropy T*S    EENTRO =        -0.00021933
  eigenvalues    EBANDS =      -659.13710799
  atomic energy  EATOM  =     31013.67235384
  Solvation  Ediel_sol  =         0.00000000
  ---------------------------------------------------
  free energy    TOTEN  =      -233.66395806 eV

  energy without entropy =     -233.66373873  energy(sigma->0) =     -233.66384840


--------------------------------------------------------------------------------------------------------




--------------------------------------- Iteration      1(  23)  ---------------------------------------


    POTLOK:  cpu time    0.0427: real time    0.0428
    SETDIJ:  cpu time    0.0067: real time    0.0067
     EDDAV:  cpu time   31.2326: real time   31.3066
    CHARGE:  cpu time    0.8984: real time    0.9005
    MIXING:  cpu time    0.0030: real time    0.0030
    --------------------------------------------
      LOOP:  cpu time   32.1834: real time   32.2596

 eigenvalue-minimisations  : 18800
 total energy-change (2. order) : 0.3248509E-03  (-0.8437844E-04)
 number of electron     352.0000003 magnetization 
 augmentation part      115.6873809 magnetization 

 Broyden mixing:
  rms(total) = 0.18079E-01    rms(broyden)= 0.18075E-01
  rms(prec ) = 0.23940E-01
  weight for this iteration     100.00

 eigenvalues of (default mixing * dielectric matrix)
  average eigenvalue GAMMA=   0.7950
  3.0041  2.1632  2.1632  0.8625  0.8625  0.8120  0.8120  0.6379  0.4528  0.4528
  0.3856  0.3322  0.1951  0.1951  0.2768  0.2553  0.2180  0.2287

 Free energy of the ion-electron system (eV)
  ---------------------------------------------------
  alpha Z        PSCENC =      1313.13231116
  Ewald energy   TEWEN  =    -20474.85800160
  -Hartree energ DENC   =    -11614.28731889
  -exchange      EXHF   =         0.00000000
  -V(xc)+E(xc)   XCENC  =      1438.79371342
  PAW double counting   =     45533.58614888   -46784.56339443
  entropy T*S    EENTRO =        -0.00024072
  eigenvalues    EBANDS =      -659.13920487
  atomic energy  EATOM  =     31013.67235384
  Solvation  Ediel_sol  =         0.00000000
  ---------------------------------------------------
  free energy    TOTEN  =      -233.66363321 eV

  energy without entropy =     -233.66339249  energy(sigma->0) =     -233.66351285


--------------------------------------------------------------------------------------------------------




--------------------------------------- Iteration      1(  24)  ---------------------------------------


    POTLOK:  cpu time    0.0448: real time    0.0449
    SETDIJ:  cpu time    0.0066: real time    0.0066
     EDDAV:  cpu time   37.6206: real time   37.7098
    CHARGE:  cpu time    0.8808: real time    0.8829
    MIXING:  cpu time    0.0034: real time    0.0034
    --------------------------------------------
      LOOP:  cpu time   38.5562: real time   38.6476

 eigenvalue-minimisations  : 22736
 total energy-change (2. order) : 0.4511604E-04  (-0.2419113E-04)
 number of electron     352.0000003 magnetization 
 augmentation part      115.6873881 magnetization 

 Broyden mixing:
  rms(total) = 0.13557E-01    rms(broyden)= 0.13556E-01
  rms(prec ) = 0.18470E-01
  weight for this iteration     100.00

 eigenvalues of (default mixing * dielectric matrix)
  average eigenvalue GAMMA=   0.7913
  3.0339  2.2279  2.2279  0.9921  0.9921  0.7740  0.7740  0.6592  0.4619  0.4619
  0.3981  0.3310  0.3310  0.2837  0.1951  0.1951  0.2535  0.2175  0.2257

 Free energy of the ion-electron system (eV)
  ---------------------------------------------------
  alpha Z        PSCENC =      1313.13231116
  Ewald energy   TEWEN  =    -20474.85800160
  -Hartree energ DENC   =    -11614.30423054
  -exchange      EXHF   =         0.00000000
  -V(xc)+E(xc)   XCENC  =      1438.79651267
  PAW double counting   =     45530.28258026   -46781.29635400
  entropy T*S    EENTRO =        -0.00022745
  eigenvalues    EBANDS =      -659.08853244
  atomic energy  EATOM  =     31013.67235384
  Solvation  Ediel_sol  =         0.00000000
  ---------------------------------------------------
  free energy    TOTEN  =      -233.66358809 eV

  energy without entropy =     -233.66336064  energy(sigma->0) =     -233.66347437


--------------------------------------------------------------------------------------------------------




--------------------------------------- Iteration      1(  25)  ---------------------------------------


    POTLOK:  cpu time    0.0427: real time    0.0428
    SETDIJ:  cpu time    0.0069: real time    0.0069
     EDDAV:  cpu time   33.1500: real time   33.2286
    CHARGE:  cpu time    0.8897: real time    0.8918
    MIXING:  cpu time    0.0031: real time    0.0031
    --------------------------------------------
      LOOP:  cpu time   34.0924: real time   34.1732

 eigenvalue-minimisations  : 20896
 total energy-change (2. order) : 0.3622846E-04  (-0.1132944E-04)
 number of electron     352.0000003 magnetization 
 augmentation part      115.6871553 magnetization 

 Broyden mixing:
  rms(total) = 0.10534E-01    rms(broyden)= 0.10533E-01
  rms(prec ) = 0.14454E-01
  weight for this iteration     100.00

 eigenvalues of (default mixing * dielectric matrix)
  average eigenvalue GAMMA=   0.8010
  3.0544  2.3008  2.3008  1.1455  1.1455  0.7461  0.7461  0.7220  0.5268  0.5268
  0.4357  0.3642  0.3642  0.2932  0.1951  0.1951  0.2651  0.2509  0.2179  0.2246

 Free energy of the ion-electron system (eV)
  ---------------------------------------------------
[...]
 total augmentation occupancy for first ion, spin component:           1
 10.873   0.681  -0.967   0.287  -0.573  -8.098  -0.744   1.130  -0.366   0.293  -1.060   0.291  -0.001   0.037  -0.003  -0.018
  0.681  10.773   0.376   0.768  -1.034  -0.740  -8.039  -0.416  -0.794   1.133  -0.901   0.256   0.169   0.298   0.044  -0.095
 -0.967   0.376  10.778   1.032  -0.663   1.097  -0.391 -12.278  -1.202   1.249  -1.008   0.255   0.302   1.174   0.034  -0.077
  0.287   0.768   1.032  13.688   1.025  -0.373  -0.792  -1.244 -10.952  -1.263  -1.669   0.484   0.020   0.868   0.623  -0.004
 -0.573  -1.034  -0.663   1.025   9.275   0.293   1.098   1.244  -1.188 -10.200  -1.668   0.443   0.435   0.160   0.249  -0.078
 -8.098  -0.740   1.097  -0.373   0.293   7.340   0.800  -1.247   0.441  -0.058   1.057  -0.293   0.004  -0.037   0.003   0.002
 -0.744  -8.039  -0.391  -0.792   1.098   0.800   7.316   0.436   0.819  -1.186   0.879  -0.247  -0.136  -0.290  -0.043   0.052
  1.130  -0.416 -12.278  -1.244   1.244  -1.247   0.436  15.112   1.396  -1.818   1.087  -0.272  -0.350  -1.226  -0.064   0.083
 -0.366  -0.794  -1.202 -10.952  -1.188   0.441   0.819   1.396  10.222   1.408   1.643  -0.473  -0.024  -0.842  -0.584   0.004
  0.293   1.133   1.249  -1.263 -10.200  -0.058  -1.186  -1.818   1.408  12.470   1.866  -0.492  -0.500  -0.164  -0.250   0.091
 -1.060  -0.901  -1.008  -1.669  -1.668   1.057   0.879   1.087   1.643   1.866   5.050  -1.275   0.154  -0.424  -0.178  -0.031
  0.291   0.256   0.255   0.484   0.443  -0.293  -0.247  -0.272  -0.473  -0.492  -1.275   0.417  -0.035   0.132   0.065   0.008
 -0.001   0.169   0.302   0.020   0.435   0.004  -0.136  -0.350  -0.024  -0.500   0.154  -0.035   0.698   0.064   0.086  -0.128
  0.037   0.298   1.174   0.868   0.160  -0.037  -0.290  -1.226  -0.842  -0.164  -0.424   0.132   0.064   1.076   0.114  -0.015
 -0.003   0.044   0.034   0.623   0.249   0.003  -0.043  -0.064  -0.584  -0.250  -0.178   0.065   0.086   0.114   1.135  -0.019
 -0.018  -0.095  -0.077  -0.004  -0.078   0.002   0.052   0.083   0.004   0.091  -0.031   0.008  -0.128  -0.015  -0.019   0.032
 -0.002  -0.040  -0.175  -0.154  -0.046   0.001   0.040   0.147   0.142   0.045   0.078  -0.037  -0.015  -0.177  -0.027   0.006
  0.022  -0.004  -0.053  -0.176  -0.056  -0.019   0.003   0.056   0.136   0.044   0.041  -0.019  -0.020  -0.028  -0.191   0.007


------------------------ aborting loop because EDIFF is reached ----------------------------------------


    CHARGE:  cpu time    0.8468: real time    0.8489
    FORLOC:  cpu time    0.0205: real time    0.0206
    FORNL :  cpu time    8.7089: real time    8.7295
    STRESS:  cpu time   24.8684: real time   24.9273
    FORCOR:  cpu time    0.0562: real time    0.0564
    FORHAR:  cpu time    0.0285: real time    0.0286
    MIXING:  cpu time    0.0035: real time    0.0035
    OFIELD:  cpu time    0.0001: real time    0.0001

  FORCE on cell =-STRESS in cart. coord.  units (eV):
  Direction    XX          YY          ZZ          XY          YZ          ZX
  --------------------------------------------------------------------------------------
  Alpha Z  1313.13231  1313.13231  1313.13231
  Ewald   -6577.09737 -7179.22867 -6718.65619    69.44603  -209.87677  -141.37589
  Hartree  3948.38473  3624.25437  4042.01147    43.05843   -81.35696   -70.83616
  E(xc)   -1836.13984 -1835.41275 -1834.85539     0.09707     0.23891     0.09463
  Local   -4460.73659 -3566.19408 -4490.12902  -111.25209   266.53020   203.28163
  n-local  -596.73935  -615.85143  -636.33454    -0.61918    -6.03311    -2.62491
  augment  2948.49225  2963.35620  2980.91118    -0.27642     9.14711     3.00747
  Kinetic  5555.75417  5556.25151  5554.87759    -5.25233     6.13383     1.42604
  Fock        0.00000     0.00000     0.00000     0.00000     0.00000     0.00000
  -------------------------------------------------------------------------------------
  Total      295.0503061    260.3074587    210.9574059     -4.7984881    -15.2168014     -7.0271833
  in kB     1132.5602459    999.1986902    809.7668990    -18.4191534    -58.4101895    -26.9740729
  external PRESSURE =     980.5086117 kB  Pullay stress =       0.0000000 kB


 VOLUME and BASIS-vectors are now :
 -----------------------------------------------------------------------------
  energy-cutoff  :      500.00
  volume of cell :      417.39
      direct lattice vectors                 reciprocal lattice vectors
     7.473346400  0.000000000  0.000000000     0.133808865  0.000000000  0.000000000
     0.000000000  7.473346400  0.000000000     0.000000000  0.133808865  0.000000000
     0.000000000  0.000000000  7.473346400     0.000000000  0.000000000  0.133808865

  length of vectors
     7.473346400  7.473346400  7.473346400     0.133808865  0.133808865  0.133808865


 FORCES acting on ions
    electron-ion (+dipol)            ewald-force                    non-local-force                 convergence-correction
 -----------------------------------------------------------------------------------------------
   -.133E+03 0.949E+02 -.206E+03   0.138E+03 -.952E+02 0.220E+03   -.313E+01 -.124E+01 -.398E+01   -.628E-02 -.256E-01 -.512E-02
   -.170E-01 0.249E+03 -.252E+03   -.171E+01 -.273E+03 0.274E+03   0.500E+01 0.400E+01 -.563E+01   0.724E-02 -.140E-02 0.764E-02
   -.576E+02 0.785E+01 0.269E+02   0.568E+02 -.320E+01 -.286E+02   0.589E+00 -.467E+00 0.540E+00   0.723E-02 -.160E-01 0.280E-01
   -.387E+03 0.303E+03 0.414E+02   0.426E+03 -.326E+03 -.473E+02   -.723E+01 0.695E+01 0.118E+01   -.168E-02 0.765E-02 0.238E-01
   -.223E+03 -.168E+03 0.605E+02   0.234E+03 0.170E+03 -.566E+02   -.194E+01 -.383E+01 -.281E+01   0.107E-01 0.171E-01 -.134E-01
   -.334E+02 -.349E+02 0.172E+02   0.345E+02 0.355E+02 -.133E+02   -.615E-02 0.675E+00 0.420E+00   0.662E-02 0.470E-02 0.408E-02
   0.980E+02 -.462E+03 0.303E+03   -.106E+03 0.514E+03 -.322E+03   0.269E+01 -.638E+01 0.696E+01   0.128E-02 0.281E-01 -.275E-01
   -.334E+03 0.681E+02 0.323E+03   0.366E+03 -.751E+02 -.347E+03   -.494E+01 0.249E+01 0.436E+01   0.720E-02 0.824E-02 -.140E-01
   0.522E+02 0.124E+03 0.415E+02   -.519E+02 -.125E+03 -.417E+02   0.912E+00 0.180E+01 -.824E+00   -.114E-01 -.259E-01 -.927E-02
   0.309E+03 0.125E+03 0.116E+02   -.335E+03 -.132E+03 -.403E+01   0.352E+01 0.287E+01 -.343E+01   0.363E-02 -.941E-03 -.147E-01
   0.291E+03 0.461E+02 0.146E+03   -.315E+03 -.410E+02 -.159E+03   0.366E+01 -.413E+01 0.337E+01   0.382E-02 -.225E-01 -.967E-02
   -.245E+02 0.249E+03 0.106E+03   0.302E+02 -.266E+03 -.106E+03   -.248E+01 0.355E+01 0.473E+01   -.131E-02 -.407E-02 -.147E-01
   -.472E+02 -.314E+03 -.235E+03   0.548E+02 0.340E+03 0.248E+03   -.313E+01 -.350E+01 -.535E+01   0.845E-03 0.123E-01 0.771E-02
   0.184E+03 -.392E+02 -.195E+03   -.196E+03 0.381E+02 0.207E+03   0.293E+01 0.327E+01 -.351E+01   0.593E-02 0.103E-01 -.327E-02
   0.359E+03 -.340E+03 0.129E+02   -.403E+03 0.374E+03 -.183E+02   0.655E+01 -.532E+01 0.327E+01   0.663E-02 0.553E-02 0.185E-01
   0.414E+02 -.598E+02 -.747E+02   -.395E+02 0.603E+02 0.763E+02   -.812E-01 0.448E+00 0.374E+00   -.846E-02 0.636E-02 0.270E-01
   -.144E+03 0.116E+03 0.180E+03   0.159E+03 -.132E+03 -.199E+03   -.125E+02 0.137E+02 0.176E+02   -.796E-03 0.571E-02 0.297E-02
   -.232E+03 -.131E+03 -.229E+03   0.247E+03 0.144E+03 0.241E+03   -.162E+02 -.152E+02 -.126E+02   0.374E-02 0.459E-02 0.188E-01
   0.179E+03 -.443E+03 -.353E+03   -.191E+03 0.489E+03 0.381E+03   0.111E+02 -.256E+02 -.211E+02   0.675E-02 0.193E-01 0.561E-02
   -.452E+03 -.416E+03 0.152E+03   0.512E+03 0.452E+03 -.166E+03   -.266E+02 -.235E+02 0.144E+02   0.281E-02 0.703E-02 0.143E-01
   0.182E+03 0.199E+03 0.191E+03   -.199E+03 -.217E+03 -.209E+03   0.143E+02 0.145E+02 0.172E+02   -.743E-03 -.476E-02 0.280E-01
   -.336E+03 0.170E+03 -.409E+03   0.366E+03 -.183E+03 0.451E+03   -.241E+02 0.129E+02 -.245E+02   0.720E-03 0.462E-02 -.594E-02
   0.246E+03 0.118E+03 -.271E+03   -.262E+03 -.132E+03 0.290E+03   0.144E+02 0.141E+02 -.171E+02   -.424E-02 0.357E-02 0.101E-01
   0.221E+03 -.168E+03 0.973E+02   -.252E+03 0.186E+03 -.107E+03   0.214E+02 -.158E+02 0.955E+01   -.110E-01 -.243E-02 0.514E-02
   -.842E+02 0.362E+03 0.277E+03   0.949E+02 -.385E+03 -.297E+03   -.117E+02 0.177E+02 0.164E+02   -.519E-02 -.858E-02 -.596E-02
   -.241E+03 -.201E+03 -.121E+03   0.255E+03 0.213E+03 0.133E+03   -.149E+02 -.129E+02 -.136E+02   0.314E-03 0.742E-02 -.211E-01
   0.159E+03 -.129E+03 -.207E+03   -.174E+03 0.142E+03 0.226E+03   0.155E+02 -.154E+02 -.165E+02   0.727E-02 -.201E-01 0.530E-02
   -.378E+03 -.116E+03 0.345E+03   0.421E+03 0.127E+03 -.377E+03   -.244E+02 -.118E+02 0.219E+02   0.180E-02 -.163E-01 -.690E-02
   0.154E+03 0.438E+03 0.351E+03   -.163E+03 -.506E+03 -.383E+03   0.101E+02 0.266E+02 0.202E+02   -.955E-03 -.600E-03 -.184E-01
   -.446E+03 0.266E+03 -.178E+03   0.495E+03 -.286E+03 0.195E+03   -.251E+02 0.194E+02 -.158E+02   0.192E-03 0.227E-02 -.406E-02
   0.205E+03 0.287E+03 -.218E+03   -.216E+03 -.305E+03 0.240E+03   0.111E+02 0.181E+02 -.203E+02   -.370E-02 -.185E-01 -.163E-01
   0.150E+03 -.272E+03 0.224E+03   -.167E+03 0.295E+03 -.237E+03   0.169E+02 -.189E+02 0.117E+02   0.182E-01 0.262E-02 -.293E-02
   -.217E+03 0.115E+03 0.255E+03   0.233E+03 -.131E+03 -.274E+03   -.161E+02 0.169E+02 0.176E+02   -.104E-02 0.218E-01 -.108E-01
   -.926E+02 -.184E+03 -.217E+03   0.103E+03 0.205E+03 0.236E+03   -.110E+02 -.203E+02 -.171E+02   0.381E-02 -.198E-02 -.919E-02
   0.341E+03 -.393E+03 -.148E+03   -.374E+03 0.423E+03 0.161E+03   0.238E+02 -.213E+02 -.134E+02   0.429E-02 0.597E-02 -.762E-02
   -.218E+03 -.422E+03 0.307E+03   0.237E+03 0.461E+03 -.330E+03   -.176E+02 -.250E+02 0.174E+02   -.134E-02 0.191E-01 -.481E-02
   0.450E+03 0.134E+03 0.331E+03   -.501E+03 -.142E+03 -.361E+03   0.264E+02 0.822E+01 0.225E+02   0.554E-02 0.478E-02 -.614E-02
   -.183E+03 0.172E+03 -.177E+03   0.198E+03 -.188E+03 0.193E+03   -.159E+02 0.157E+02 -.161E+02   -.174E-01 0.731E-02 0.499E-03
   0.104E+03 0.100E+03 -.132E+03   -.116E+03 -.113E+03 0.146E+03   0.142E+02 0.122E+02 -.146E+02   0.460E-03 0.140E-01 -.110E-01
   0.234E+03 -.133E+03 0.333E+03   -.247E+03 0.147E+03 -.363E+03   0.116E+02 -.133E+02 0.213E+02   -.199E-02 -.917E-02 -.177E-01
   -.345E+03 0.274E+03 0.119E+03   0.371E+03 -.290E+03 -.133E+03   -.211E+02 0.155E+02 0.147E+02   0.180E-02 -.186E-01 -.295E-02
   -.167E+03 -.243E+03 -.249E+03   0.184E+03 0.256E+03 0.266E+03   -.157E+02 -.135E+02 -.165E+02   0.231E-02 0.345E-02 0.101E-01
   0.390E+03 -.904E+02 -.376E+03   -.419E+03 0.951E+02 0.411E+03   0.225E+02 -.616E+01 -.222E+02   0.131E-02 -.105E-01 -.597E-03
   -.205E+03 -.155E+03 0.211E+03   0.223E+03 0.169E+03 -.228E+03   -.165E+02 -.139E+02 0.152E+02   0.237E-03 -.627E-02 0.179E-01
   0.431E+03 0.417E+03 0.165E+03   -.484E+03 -.467E+03 -.174E+03   0.251E+02 0.263E+02 0.102E+02   -.892E-03 0.118E-02 0.113E-01
   -.184E+03 0.464E+03 -.301E+03   0.194E+03 -.514E+03 0.321E+03   -.964E+01 0.280E+02 -.172E+02   0.531E-02 0.189E-02 0.104E-01
   0.161E+03 0.268E+03 -.257E+03   -.177E+03 -.285E+03 0.274E+03   0.171E+02 0.175E+02 -.147E+02   -.248E-02 -.969E-02 0.102E-01
   0.230E+03 -.261E+03 0.187E+03   -.245E+03 0.275E+03 -.206E+03   0.145E+02 -.152E+02 0.178E+02   -.306E-02 0.361E-02 -.142E-02
 -----------------------------------------------------------------------------------------------
   0.625E+01 -.109E+02 0.829E+01   0.369E-12 0.171E-12 0.426E-12   -.633E+01 0.109E+02 -.830E+01   0.441E-01 0.165E-01 0.193E-02
 
 
 POSITION                                       TOTAL-FORCE (eV/Angst)
 -----------------------------------------------------------------------------------
      1.12643      4.95160      0.99105         2.270409     -1.551871      9.987014
      2.80093      6.86115      0.95495         3.278491    -19.741682     16.900357
      2.94339      4.86652      2.94650        -0.186441      4.175217     -1.208517
      0.94516      6.77824      3.02077        32.570036    -15.311237     -4.695066
      1.05384      1.12010      4.92068         8.780613     -1.849528      1.000434
      2.91763      2.90638      4.79296         1.166088      1.262269      4.281562
      3.02859      0.89525      6.78854        -5.604868     45.551185    -11.732870
      0.96688      3.06890      6.90228        27.316553     -4.497100    -20.370784
      4.83477      4.85964      4.96669         1.242331      0.671795     -1.076829
      6.87050      6.82184      4.89827       -22.655465     -4.254751      4.092236
      6.94295      5.07476      6.78382       -20.004377      0.903268     -9.444011
      4.86656      6.81904      6.68982         3.264485    -13.466789      4.754457
      4.84277      0.90143      1.07325         4.485573     21.956826      8.218173
      6.87279      2.82014      1.03507        -8.449148      2.177473      9.205696
      6.85484      0.84388      2.90227       -37.222270     28.046088     -2.088723
      4.86959      2.88009      2.95238         1.764376      0.941636      1.997947
      6.59299      1.07241      1.17489         2.537117     -2.040121     -2.352132
      2.90773      6.86150      2.92906        -1.490123     -2.144195     -0.625639
      3.17951      0.78337      0.94050        -1.189091     20.568604      7.309631
      0.72397      0.82461      2.90735        33.922788     12.689026      0.320545
      3.14436      3.16720      3.04471        -2.470469     -3.493625     -1.459334
      1.01481      3.00653      0.88489         6.264638      0.232929     17.214432
      5.03941      1.00870      2.87454        -1.665902      0.375067      1.252064
      1.24895      6.69085      1.16578        -8.764076      1.896339     -0.270370
      6.76049      5.16874      5.06588        -0.992569     -5.775128     -2.750159
      2.89360      2.89096      6.79277        -0.307952     -0.873055     -1.889327
      2.94884      4.91751      4.69652         0.227455     -1.819719      1.914839
      0.89192      4.85530      6.92681        18.457962     -0.878432     -9.204442
      3.07211      7.08727      6.99192         0.745129    -40.981954    -11.749111
      0.80174      6.76058      4.72843        23.347447     -1.063251      0.832512
      4.97989      4.98586      6.69605         0.381837      0.188680      1.629564
      1.12402      2.79353      5.01842        -0.400290      3.489663     -0.807588
      2.89383      1.02540      5.00316         0.033853      0.911814     -1.408019
      6.94550      6.84279      6.66936        -1.097989      0.858413      1.829897
      6.98746      0.91800      4.90485        -8.867367      8.607950     -1.024362
      4.81810      0.83039      6.93540         1.309010     13.919197     -6.269300
      7.04545      3.08555      6.95251       -24.509772      0.472637     -7.760722
      4.79105      3.02721      4.86415        -0.755497     -0.344910     -0.723295
      1.03864      1.13275      6.84097         1.332872     -0.118791     -0.863982
      5.06607      6.70611      5.13477        -1.138940      0.159061     -8.683188
      2.78525      5.06129      1.03357         4.560657     -1.374525      0.833430
      6.63332      2.85757      2.86247         1.521828     -1.005481      0.376916
      6.98765      4.82826      0.82096        -6.916759     -1.398504     12.245983
      4.74718      4.79273      3.21325         0.887202     -0.047614     -2.183176
      7.05903      6.95224      3.10520       -27.461175    -23.824264      2.107715
      4.76791      6.95726      0.94158         0.017012    -22.100751      1.972207
      1.05181      4.89312      2.76699         1.226098      0.360033      1.833900
      5.03425      2.84975      1.19316        -0.761319     -0.457890     -1.470566
 -----------------------------------------------------------------------------------
    total drift:                               -0.035716     -0.002053     -0.000168


--------------------------------------------------------------------------------------------------------



  FREE ENERGIE OF THE ION-ELECTRON SYSTEM (eV)
  ---------------------------------------------------
  free  energy   TOTEN  =      -233.6634857086 eV

  energy  without entropy=     -233.6632575583  energy(sigma->0) =     -233.66337163
 


--------------------------------------------------------------------------------------------------------


    POTLOK:  cpu time    0.0504: real time    0.0505


--------------------------------------------------------------------------------------------------------


     LOOP+:  cpu time  989.8592: real time  992.3739
    4ORBIT:  cpu time    0.0000: real time    0.0000

volume of typ            1:    24.4 %

volume of typ            2:    12.5 %
 
total charge     
 
# of ion       s       p       d       tot
------------------------------------------
    1        0.419   0.709   8.018   9.145
    2        0.499   0.830   8.128   9.457
    3        0.321   0.457   7.848   8.626
    4        0.464   0.769   8.148   9.381
    5        0.364   0.547   7.962   8.874
    6        0.297   0.402   7.827   8.526
    7        0.469   0.771   8.156   9.396
    8        0.476   0.781   8.142   9.399
    9        0.319   0.461   7.846   8.626
   10        0.476   0.823   8.118   9.417
   11        0.453   0.736   8.071   9.260
   12        0.419   0.678   8.041   9.138
   13        0.453   0.750   8.075   9.279
   14        0.375   0.587   7.959   8.921
   15        0.524   0.871   8.234   9.630
   16        0.325   0.471   7.841   8.637
   17        1.283   2.807   0.013   4.103
   18        1.290   2.702   0.005   3.997
   19        1.286   2.990   0.034   4.311
   20        1.302   3.005   0.044   4.351
   21        1.271   2.820   0.014   4.105
   22        1.292   2.908   0.028   4.228
   23        1.278   2.775   0.009   4.062
   24        1.283   2.849   0.017   4.149
   25        1.276   2.832   0.013   4.122
   26        1.284   2.708   0.005   3.997
   27        1.291   2.713   0.008   4.012
   28        1.286   2.976   0.035   4.297
   29        1.304   3.072   0.058   4.434
   30        1.293   2.933   0.030   4.256
   31        1.280   2.775   0.009   4.064
   32        1.276   2.796   0.012   4.084
   33        1.282   2.755   0.009   4.046
   34        1.303   2.733   0.010   4.047
   35        1.288   2.894   0.024   4.206
   36        1.289   2.921   0.028   4.238
   37        1.297   2.954   0.035   4.286
   38        1.285   2.724   0.008   4.017
   39        1.303   2.685   0.006   3.994
   40        1.273   2.857   0.016   4.146
   41        1.278   2.811   0.012   4.101
   42        1.284   2.752   0.008   4.044
   43        1.285   2.894   0.023   4.202
   44        1.283   2.751   0.010   4.044
   45        1.299   3.089   0.056   4.444
   46        1.296   2.911   0.028   4.234
   47        1.282   2.758   0.009   4.048
   48        1.283   2.755   0.009   4.046
--------------------------------------------------
tot          47.84  101.55  129.04  278.43
 

 total amount of memory used by VASP MPI-rank0   160453. kBytes
=======================================================================

   base      :      30000. kBytes
   nonlr-proj:      23611. kBytes
   fftplans  :       3726. kBytes
   grid      :      12054. kBytes
   one-center:        746. kBytes
   wavefun   :      90316. kBytes
 
  
  
 General timing and accounting informations for this job:
 ========================================================
  
                  Total CPU time used (sec):     1012.303
                            User time (sec):     1009.929
                          System time (sec):        2.374
                         Elapsed time (sec):     1018.132
  
                   Maximum memory used (kb):      209332.
                   Average memory used (kb):           0.
  
                          Minor page faults:        35167
                          Major page faults:           51
                 Voluntary context switches:         1202
