 vasp.5.4.4.18Apr17-6-g9f103f2a35 (build May 12 2020 04:58:55) complex          
  
 MD_VERSION_INFO: Compiled 2020-05-12T11:58:55-UTC in devlin.sd.materialsdesign.
 com:/home/medea2/data/build/wwolf/vasp-gpu5.4.4/13047/x86_64/src/src/build/std 
 from svn 13047
 
 This VASP executable licensed from Materials Design, Inc.
 
 executed on                        Lin64 date 2023.04.27  06:04:03
 running on   16 total cores
 distrk:  each k-point on   16 cores,    1 groups
 distr:  one band on NCORES_PER_BAND=   1 cores,   16 groups


--------------------------------------------------------------------------------------------------------


 INCAR:
 POTCAR:    PAW_PBE Ni 02Aug2007                  
 POTCAR:    PAW_PBE O 08Apr2002                   

 ----------------------------------------------------------------------------- 
|                                                                             |
|           W    W    AA    RRRRR   N    N  II  N    N   GGGG   !!!           |
|           W    W   A  A   R    R  NN   N  II  NN   N  G    G  !!!           |
|           W    W  A    A  R    R  N N  N  II  N N  N  G       !!!           |
|           W WW W  AAAAAA  RRRRR   N  N N  II  N  N N  G  GGG   !            |
|           WW  WW  A    A  R   R   N   NN  II  N   NN  G    G                |
|           W    W  A    A  R    R  N    N  II  N    N   GGGG   !!!           |
|                                                                             |
|      For optimal performance we recommend to set                            |
|        NCORE= 4 - approx SQRT( number of cores)                             |
|      NCORE specifies how many cores store one orbital (NPAR=cpu/NCORE).     |
|      This setting can  greatly improve the performance of VASP for DFT.     |
|      The default,   NCORE=1            might be grossly inefficient         |
|      on modern multi-core architectures or massively parallel machines.     |
|      Do your own testing !!!!                                               |
|      Unfortunately you need to use the default for GW and RPA calculations. |
|      (for HF NCORE is supported but not extensively tested yet)             |
|                                                                             |
 ----------------------------------------------------------------------------- 

 POTCAR:    PAW_PBE Ni 02Aug2007                  
  local pseudopotential read in
  partial core-charges read in
  partial kinetic energy density read in
  atomic valenz-charges read in
  non local Contribution for L=           2  read in
    real space projection operators read in
  non local Contribution for L=           2  read in
    real space projection operators read in
  non local Contribution for L=           0  read in
    real space projection operators read in
  non local Contribution for L=           0  read in
    real space projection operators read in
  non local Contribution for L=           1  read in
    real space projection operators read in
  non local Contribution for L=           1  read in
    real space projection operators read in
    PAW grid and wavefunctions read in
 
   number of l-projection  operators is LMAX  =           6
   number of lm-projection operators is LMMAX =          18
 
 POTCAR:    PAW_PBE O 08Apr2002                   
  local pseudopotential read in
  partial core-charges read in
  partial kinetic energy density read in
  kinetic energy density of atom read in
  atomic valenz-charges read in
  non local Contribution for L=           0  read in
    real space projection operators read in
  non local Contribution for L=           0  read in
    real space projection operators read in
  non local Contribution for L=           1  read in
    real space projection operators read in
  non local Contribution for L=           1  read in
    real space projection operators read in
    PAW grid and wavefunctions read in
 
   number of l-projection  operators is LMAX  =           4
   number of lm-projection operators is LMMAX =           8
 
 Optimization of the real space projectors (new method)

 maximal supplied QI-value         = 16.25
 optimisation between [QCUT,QGAM] = [ 11.38, 22.75] = [ 36.24,144.96] Ry 
 Optimized for a Real-space Cutoff    1.47 Angstroem

   l    n(q)    QCUT    max X(q) W(low)/X(q) W(high)/X(q)  e(spline) 
   2      9    11.376    60.317    0.17E-03    0.16E-04    0.16E-06
   2      9    11.376    55.921    0.17E-03    0.16E-04    0.17E-06
   0     10    11.376    51.690    0.45E-04    0.60E-04    0.21E-06
   0     10    11.376    30.015    0.37E-04    0.55E-04    0.19E-06
   1     10    11.376    18.849    0.83E-04    0.11E-03    0.92E-07
   1     10    11.376    14.624    0.69E-04    0.92E-04    0.82E-07
 Optimization of the real space projectors (new method)

 maximal supplied QI-value         = 24.76
 optimisation between [QCUT,QGAM] = [ 11.39, 22.77] = [ 36.31,145.25] Ry 
 Optimized for a Real-space Cutoff    1.10 Angstroem

   l    n(q)    QCUT    max X(q) W(low)/X(q) W(high)/X(q)  e(spline) 
   0      7    11.387    20.381    0.22E-03    0.48E-03    0.18E-06
   0      7    11.387    15.268    0.22E-03    0.52E-03    0.19E-06
   1      7    11.387     5.964    0.22E-03    0.73E-03    0.24E-06
   1      7    11.387     5.382    0.19E-03    0.60E-03    0.21E-06

 ----------------------------------------------------------------------------- 
|                                                                             |
|  ADVICE TO THIS USER RUNNING 'VASP/VAMP'   (HEAR YOUR MASTER'S VOICE ...):  |
|                                                                             |
|      You enforced a specific xc-type in the INCAR file,                     |
|      a different type was found on the POTCAR file                          |
|          I HOPE YOU KNOW, WHAT YOU ARE  DOING                               |
|                                                                             |
 ----------------------------------------------------------------------------- 

  PAW_PBE Ni 02Aug2007                  :
 energy of atom  1       EATOM=-1077.6739
 kinetic energy error for atom=    0.0030 (will be added to EATOM!!)
  PAW_PBE O 08Apr2002                   :
 energy of atom  2       EATOM= -432.3788
 kinetic energy error for atom=    0.0224 (will be added to EATOM!!)
 
 
 POSCAR: NiO2_Fd-3m_scale_0_950_disp_0_02_round_1
  positions in direct lattice
  No initial velocities read in
 exchange correlation table for  LEXCH =       14
   RHO(1)=    0.500       N(1)  =     2000
   RHO(2)=  100.500       N(2)  =     4000
 


--------------------------------------------------------------------------------------------------------


 ion  position               nearest neighbor table
   1  0.136  0.659  0.134-  43 1.51  28 1.52  47 1.81  41 1.83  24 1.87  22 1.87  11 2.27   8 2.53
                            14 2.57   3 2.75   4 2.78   2 2.81
   2  0.401  0.926  0.129-  29 1.43  19 1.44  46 1.83  18 1.86  24 1.91  41 1.93   7 2.21  12 2.44
                            13 2.49   1 2.81   3 2.82   4 2.84
   3  0.397  0.657  0.394-  27 1.84  44 1.85  41 1.85  18 1.86  21 1.86  47 1.87   1 2.75   6 2.76
                            16 2.78   4 2.79   9 2.80   2 2.82
   4  0.133  0.921  0.399-  20 1.45  45 1.49  30 1.85  18 1.87  24 1.89  47 1.89  15 2.28   5 2.50
                            10 2.53   1 2.78   3 2.79   2 2.84
   5  0.134  0.132  0.659-  30 1.50  35 1.51  33 1.85  32 1.87  39 1.87  20 1.88  10 2.22   4 2.50
                            15 2.56   7 2.73   8 2.78   6 2.79
   6  0.396  0.399  0.657-  27 1.83  32 1.85  33 1.86  26 1.86  38 1.87  21 1.87   3 2.76  16 2.76
                             9 2.77   8 2.77   7 2.78   5 2.79
   7  0.396  0.129  0.914-  29 1.43  19 1.52  33 1.81  26 1.86  39 1.87  36 1.90   2 2.21  12 2.48
                            13 2.56   5 2.73   6 2.78   8 2.80
   8  0.133  0.397  0.919-  37 1.45  22 1.48  32 1.83  26 1.84  28 1.85  39 1.86  14 2.23  11 2.52
                             1 2.53   6 2.77   5 2.78   7 2.80
   9  0.664  0.654  0.658-  25 1.84  38 1.85  44 1.85  31 1.87  40 1.90  27 1.91  11 2.74   6 2.77
                            16 2.77  10 2.79  12 2.80   3 2.80
  10  0.921  0.925  0.662-  35 1.46  30 1.47  34 1.81  40 1.86  45 1.90  25 1.92   5 2.22   4 2.53
                            15 2.55  11 2.76  12 2.79   9 2.79
  11  0.921  0.659  0.919-  28 1.48  43 1.50  25 1.83  37 1.85  31 1.87  34 1.89   1 2.27   8 2.52
                            14 2.53   9 2.74  10 2.76  12 2.80
  12  0.653  0.920  0.921-  46 1.46  36 1.46  29 1.80  31 1.83  40 1.85  34 1.91  13 2.24   2 2.44
                             7 2.48  10 2.79   9 2.80  11 2.80
  13  0.661  0.135  0.131-  36 1.48  46 1.48  17 1.80  48 1.84  23 1.85  19 1.89  12 2.24   2 2.49
                             7 2.56  14 2.73  15 2.74  16 2.76
  14  0.920  0.392  0.128-  37 1.41  22 1.44  17 1.85  48 1.85  42 1.89  43 1.92   8 2.23  11 2.53
                             1 2.57  13 2.73  15 2.75  16 2.81
  15  0.916  0.137  0.393-  45 1.51  20 1.52  42 1.81  35 1.85  23 1.86  17 1.87   4 2.28  10 2.55
                             5 2.56  16 2.72  13 2.74  14 2.75
  16  0.657  0.391  0.397-  23 1.83  48 1.87  21 1.87  44 1.87  38 1.88  42 1.90  15 2.72   6 2.76
                            13 2.76   9 2.77   3 2.78  14 2.81
  17  0.902  0.146  0.144-  13 1.80  14 1.85  15 1.87
  18  0.381  0.905  0.377-   3 1.86   2 1.86   4 1.87
  19  0.409  0.118  0.117-   2 1.44   7 1.52  29 1.88  13 1.89
  20  0.118  0.115  0.409-   4 1.45  15 1.52   5 1.88  45 1.92
  21  0.408  0.409  0.407-   3 1.86  16 1.87   6 1.87
  22  0.112  0.410  0.116-  14 1.44   8 1.48  37 1.83   1 1.87
  23  0.668  0.148  0.378-  16 1.83  13 1.85  15 1.86
  24  0.147  0.908  0.147-   1 1.87   4 1.89   2 1.91
  25  0.909  0.669  0.674-  11 1.83   9 1.84  10 1.92
  26  0.378  0.378  0.905-   8 1.84   6 1.86   7 1.86
  27  0.409  0.643  0.640-   6 1.83   3 1.84   9 1.91
  28  0.119  0.644  0.932-  11 1.48   1 1.52   8 1.85  43 1.96
  29  0.414  0.941  0.939-   7 1.43   2 1.43  12 1.80  19 1.88
  30  0.116  0.933  0.646-  10 1.47   5 1.50   4 1.85  35 1.96
  31  0.672  0.676  0.907-  12 1.83   9 1.87  11 1.87
  32  0.149  0.381  0.675-   8 1.83   6 1.85   5 1.87
  33  0.380  0.151  0.673-   7 1.81   5 1.85   6 1.86
  34  0.907  0.911  0.903-  10 1.81  11 1.89  12 1.91
  35  0.932  0.119  0.640-  10 1.46   5 1.51  15 1.85  30 1.96
  36  0.648  0.116  0.934-  12 1.46  13 1.48   7 1.90  46 1.91
  37  0.941  0.413  0.941-  14 1.41   8 1.45  22 1.83  11 1.85
  38  0.646  0.407  0.648-   9 1.85   6 1.87  16 1.88
  39  0.146  0.149  0.909-   8 1.86   5 1.87   7 1.87
  40  0.672  0.908  0.675-  12 1.85  10 1.86   9 1.90
  41  0.381  0.670  0.147-   1 1.83   3 1.85   2 1.93
  42  0.910  0.378  0.380-  15 1.81  14 1.89  16 1.90
  43  0.935  0.648  0.119-  11 1.50   1 1.51  14 1.92  28 1.96
  44  0.644  0.641  0.411-   3 1.85   9 1.85  16 1.87
  45  0.934  0.936  0.408-   4 1.49  15 1.51  10 1.90  20 1.92
  46  0.645  0.937  0.116-  12 1.46  13 1.48   2 1.83  36 1.91
  47  0.147  0.670  0.376-   1 1.81   3 1.87   4 1.89
  48  0.674  0.380  0.148-  13 1.84  14 1.85  16 1.87
 
  LATTYP: Found a simple cubic cell.
 ALAT       =     7.4733464000
  
  Lattice vectors:
  
 A1 = (   7.4733464000,   0.0000000000,   0.0000000000)
 A2 = (   0.0000000000,   7.4733464000,   0.0000000000)
 A3 = (   0.0000000000,   0.0000000000,   7.4733464000)


Analysis of symmetry for initial positions (statically):
=====================================================================
 Subroutine PRICEL returns:
 Original cell was already a primitive cell.
 

 Routine SETGRP: Setting up the symmetry group for a 
 simple cubic supercell.


 Subroutine GETGRP returns: Found  1 space group operations
 (whereof  1 operations were pure point group operations)
 out of a pool of 48 trial point group operations.


The static configuration has the point symmetry C_1 .


Analysis of symmetry for dynamics (positions and initial velocities):
=====================================================================
 Subroutine PRICEL returns:
 Original cell was already a primitive cell.
 

 Routine SETGRP: Setting up the symmetry group for a 
 simple cubic supercell.


 Subroutine GETGRP returns: Found  1 space group operations
 (whereof  1 operations were pure point group operations)
 out of a pool of 48 trial point group operations.


The dynamic configuration has the point symmetry C_1 .


 Subroutine INISYM returns: Found  1 space group operations
 (whereof  1 operations are pure point group operations),
 and found     1 'primitive' translations

 
 
 KPOINTS: Automatic mesh                          

Automatic generation of k-mesh.
Space group operators:
 irot       det(A)        alpha          n_x          n_y          n_z        tau_x        tau_y        tau_z
    1     1.000000     0.000001     1.000000     0.000000     0.000000     0.000000     0.000000     0.000000
 
 Subroutine IBZKPT returns following result:
 ===========================================
 
 Found     36 irreducible k-points:
 
 Following reciprocal coordinates:
            Coordinates               Weight
  0.000000  0.000000  0.000000      1.000000
  0.250000  0.000000  0.000000      2.000000
  0.500000  0.000000  0.000000      1.000000
  0.000000  0.250000  0.000000      2.000000
  0.250000  0.250000  0.000000      2.000000
  0.500000  0.250000  0.000000      2.000000
 -0.250000  0.250000  0.000000      2.000000
  0.000000  0.500000  0.000000      1.000000
  0.250000  0.500000  0.000000      2.000000
  0.500000  0.500000  0.000000      1.000000
  0.000000  0.000000  0.250000      2.000000
  0.250000  0.000000  0.250000      2.000000
  0.500000  0.000000  0.250000      2.000000
 -0.250000  0.000000  0.250000      2.000000
  0.000000  0.250000  0.250000      2.000000
  0.250000  0.250000  0.250000      2.000000
  0.500000  0.250000  0.250000      2.000000
 -0.250000  0.250000  0.250000      2.000000
  0.000000  0.500000  0.250000      2.000000
  0.250000  0.500000  0.250000      2.000000
  0.500000  0.500000  0.250000      2.000000
 -0.250000  0.500000  0.250000      2.000000
  0.000000 -0.250000  0.250000      2.000000
  0.250000 -0.250000  0.250000      2.000000
  0.500000 -0.250000  0.250000      2.000000
 -0.250000 -0.250000  0.250000      2.000000
  0.000000  0.000000  0.500000      1.000000
  0.250000  0.000000  0.500000      2.000000
  0.500000  0.000000  0.500000      1.000000
  0.000000  0.250000  0.500000      2.000000
  0.250000  0.250000  0.500000      2.000000
  0.500000  0.250000  0.500000      2.000000
 -0.250000  0.250000  0.500000      2.000000
  0.000000  0.500000  0.500000      1.000000
  0.250000  0.500000  0.500000      2.000000
  0.500000  0.500000  0.500000      1.000000
 
 Following cartesian coordinates:
            Coordinates               Weight
  0.000000  0.000000  0.000000      1.000000
  0.033452  0.000000  0.000000      2.000000
  0.066904  0.000000  0.000000      1.000000
  0.000000  0.033452  0.000000      2.000000
  0.033452  0.033452  0.000000      2.000000
  0.066904  0.033452  0.000000      2.000000
 -0.033452  0.033452  0.000000      2.000000
  0.000000  0.066904  0.000000      1.000000
  0.033452  0.066904  0.000000      2.000000
  0.066904  0.066904  0.000000      1.000000
  0.000000  0.000000  0.033452      2.000000
  0.033452  0.000000  0.033452      2.000000
  0.066904  0.000000  0.033452      2.000000
 -0.033452  0.000000  0.033452      2.000000
  0.000000  0.033452  0.033452      2.000000
  0.033452  0.033452  0.033452      2.000000
  0.066904  0.033452  0.033452      2.000000
 -0.033452  0.033452  0.033452      2.000000
  0.000000  0.066904  0.033452      2.000000
  0.033452  0.066904  0.033452      2.000000
  0.066904  0.066904  0.033452      2.000000
 -0.033452  0.066904  0.033452      2.000000
  0.000000 -0.033452  0.033452      2.000000
  0.033452 -0.033452  0.033452      2.000000
  0.066904 -0.033452  0.033452      2.000000
 -0.033452 -0.033452  0.033452      2.000000
  0.000000  0.000000  0.066904      1.000000
  0.033452  0.000000  0.066904      2.000000
  0.066904  0.000000  0.066904      1.000000
  0.000000  0.033452  0.066904      2.000000
  0.033452  0.033452  0.066904      2.000000
  0.066904  0.033452  0.066904      2.000000
 -0.033452  0.033452  0.066904      2.000000
  0.000000  0.066904  0.066904      1.000000
  0.033452  0.066904  0.066904      2.000000
  0.066904  0.066904  0.066904      1.000000
 


--------------------------------------------------------------------------------------------------------




 Dimension of arrays:
   k-points           NKPTS =     36   k-points in BZ     NKDIM =     36   number of bands    NBANDS=    224
   number of dos      NEDOS =    301   number of ions     NIONS =     48
   non local maximal  LDIM  =      6   non local SUM 2l+1 LMDIM =     18
   total plane-waves  NPLWV = 175616
   max r-space proj   IRMAX =   5698   max aug-charges    IRDMAX=  13836
   dimension x,y,z NGX =    56 NGY =   56 NGZ =   56
   dimension x,y,z NGXF=   112 NGYF=  112 NGZF=  112
   support grid    NGXF=   112 NGYF=  112 NGZF=  112
   ions per type =              16  32
   NGX,Y,Z   is equivalent  to a cutoff of  12.46, 12.46, 12.46 a.u.
   NGXF,Y,Z  is equivalent  to a cutoff of  24.91, 24.91, 24.91 a.u.

 SYSTEM =  unknown system                          
 POSCAR =  NiO2_Fd-3m_scale_0_950_disp_0_02_round_1

 Startparameter for this run:
   NWRITE =      1    write-flag & timer
   PREC   = accura    normal or accurate (medium, high low for compatibility)
   ISTART =      0    job   : 0-new  1-cont  2-samecut
   ICHARG =      2    charge: 1-file 2-atom 10-const
   ISPIN  =      1    spin polarized calculation?
   LNONCOLLINEAR =      F non collinear calculations
   LSORBIT =      F    spin-orbit coupling
   INIWAV =      1    electr: 0-lowe 1-rand  2-diag
   LASPH  =      F    aspherical Exc in radial PAW
   METAGGA=      F    non-selfconsistent MetaGGA calc.

 Electronic Relaxation 1
   ENCUT  =  500.0 eV  36.75 Ry    6.06 a.u.  13.63 13.63 13.63*2*pi/ulx,y,z
   ENINI  =  500.0     initial cutoff
   ENAUG  =  605.4 eV  augmentation charge cutoff
   NELM   =    120;   NELMIN=  2; NELMDL= -5     # of ELM steps 
   EDIFF  = 0.1E-04   stopping-criterion for ELM
   LREAL  =      T    real-space projection
   NLSPLINE    = F    spline interpolate recip. space projectors
   LCOMPAT=      F    compatible to vasp.4.4
   GGA_COMPAT  = T    GGA compatible to vasp.4.4-vasp.4.6
   LMAXPAW     = -100 max onsite density
   LMAXMIX     =    2 max onsite mixed and CHGCAR
   VOSKOWN=      1    Vosko Wilk Nusair interpolation
   ROPT   =   -0.00025  -0.00025
 Ionic relaxation
   EDIFFG = 0.1E-03   stopping-criterion for IOM
   NSW    =      0    number of steps for IOM
   NBLOCK =      1;   KBLOCK =      1    inner block; outer block 
   IBRION =     -1    ionic relax: 0-MD 1-quasi-New 2-CG
   NFREE  =      0    steps in history (QN), initial steepest desc. (CG)
   ISIF   =      2    stress and relaxation
   IWAVPR =     10    prediction:  0-non 1-charg 2-wave 3-comb
   ISYM   =      2    0-nonsym 1-usesym 2-fastsym
   LCORR  =      T    Harris-Foulkes like correction to forces

   POTIM  = 0.5000    time-step for ionic-motion
   TEIN   =    0.0    initial temperature
   TEBEG  =    0.0;   TEEND  =   0.0 temperature during run
   SMASS  =  -3.00    Nose mass-parameter (am)
   estimated Nose-frequenzy (Omega)   =  0.10E-29 period in steps =****** mass=  -0.128E-26a.u.
   SCALEE = 1.0000    scale energy and forces
   NPACO  =    256;   APACO  = 16.0  distance and # of slots for P.C.
   PSTRESS=    0.0 pullay stress

  Mass of Ions in am
   POMASS =  58.69 16.00
  Ionic Valenz
   ZVAL   =  10.00  6.00
  Atomic Wigner-Seitz radii
   RWIGS  =   1.15  0.73
  virtual crystal weights 
   VCA    =   1.00  1.00
   NELECT =     352.0000    total number of electrons
   NUPDOWN=      -1.0000    fix difference up-down

 DOS related values:
   EMIN   =  10.00;   EMAX   =-10.00  energy-range for DOS
   EFERMI =   0.00
   ISMEAR =     0;   SIGMA  =   0.05  broadening in eV -4-tet -1-fermi 0-gaus

 Electronic relaxation 2 (details)
   IALGO  =     38    algorithm
   LDIAG  =      T    sub-space diagonalisation (order eigenvalues)
   LSUBROT=      F    optimize rotation matrix (better conditioning)
   TURBO    =      0    0=normal 1=particle mesh
   IRESTART =      0    0=no restart 2=restart with 2 vectors
   NREBOOT  =      0    no. of reboots
   NMIN     =      0    reboot dimension
   EREF     =   0.00    reference energy to select bands
   IMIX   =      4    mixing-type and parameters
     AMIX     =   0.40;   BMIX     =  1.00
     AMIX_MAG =   1.60;   BMIX_MAG =  1.00
     AMIN     =   0.10
     WC   =   100.;   INIMIX=   1;  MIXPRE=   1;  MAXMIX= -45

 Intra band minimization:
   WEIMIN = 0.0000     energy-eigenvalue tresh-hold
   EBREAK =  0.11E-07  absolut break condition
   DEPER  =   0.30     relativ break condition  

   TIME   =   0.40     timestep for ELM

  volume/ion in A,a.u.               =       8.70        58.68
  Fermi-wavevector in a.u.,A,eV,Ry     =   1.546704  2.922847 32.549135  2.392294
  Thomas-Fermi vector in A             =   2.651902
 
 Write flags
   LWAVE        =      F    write WAVECAR
   LDOWNSAMPLE  =      F    k-point downsampling of WAVECAR
   LCHARG       =      T    write CHGCAR
   LVTOT        =      F    write LOCPOT, total local potential
   LVHAR        =      F    write LOCPOT, Hartree potential only
   LELF         =      F    write electronic localiz. function (ELF)
   LORBIT       =      0    0 simple, 1 ext, 2 COOP (PROOUT), +10 PAW based schemes


 Dipole corrections
   LMONO  =      F    monopole corrections only (constant potential shift)
   LDIPOL =      F    correct potential (dipole corrections)
   IDIPOL =      0    1-x, 2-y, 3-z, 4-all directions 
   EPSILON=  1.0000000 bulk dielectric constant

 Exchange correlation treatment:
   GGA     =    PS    GGA type
   LEXCH   =    14    internal setting for exchange type
   VOSKOWN=      1    Vosko Wilk Nusair interpolation
   LHFCALC =     F    Hartree Fock is set to
   LHFONE  =     F    Hartree Fock one center treatment
   AEXX    =    0.0000 exact exchange contribution

 Linear response parameters
   LEPSILON=     F    determine dielectric tensor
   LRPA    =     F    only Hartree local field effects (RPA)
   LNABLA  =     F    use nabla operator in PAW spheres
   LVEL    =     F    velocity operator in full k-point grid
   LINTERFAST=   F  fast interpolation
   KINTER  =     0    interpolate to denser k-point grid
   CSHIFT  =0.1000    complex shift for real part using Kramers Kronig
   OMEGAMAX=  -1.0    maximum frequency
   DEG_THRESHOLD= 0.2000000E-02 threshold for treating states as degnerate
   RTIME   =   -0.100 relaxation time in fs
  (WPLASMAI=    0.000 imaginary part of plasma frequency in eV, 0.658/RTIME)
   DFIELD  = 0.0000000 0.0000000 0.0000000 field for delta impulse in time
 
 Orbital magnetization related:
   ORBITALMAG=     F  switch on orbital magnetization
   LCHIMAG   =     F  perturbation theory with respect to B field
   DQ        =  0.001000  dq finite difference perturbation B field
   LLRAUG    =     F  two centre corrections for induced B field



--------------------------------------------------------------------------------------------------------


 Static calculation
 charge density and potential will be updated during run
 non-spin polarized calculation
 Variant of blocked Davidson
 Davidson routine will perform the subspace rotation
 perform sub-space diagonalisation
    after iterative eigenvector-optimisation
 modified Broyden-mixing scheme, WC =      100.0
 initial mixing is a Kerker type mixing with AMIX =  0.4000 and BMIX =      1.0000
 Hartree-type preconditioning will be used
 using additional bands           48
 real space projection scheme for non local part
 use partial core corrections
 calculate Harris-corrections to forces 
   (improved forces if not selfconsistent)
 use gradient corrections 
 use of overlap-Matrix (Vanderbilt PP)
 Gauss-broadening in eV      SIGMA  =   0.05


--------------------------------------------------------------------------------------------------------


  energy-cutoff  :      500.00
  volume of cell :      417.39
      direct lattice vectors                 reciprocal lattice vectors
     7.473346400  0.000000000  0.000000000     0.133808865  0.000000000  0.000000000
     0.000000000  7.473346400  0.000000000     0.000000000  0.133808865  0.000000000
     0.000000000  0.000000000  7.473346400     0.000000000  0.000000000  0.133808865

  length of vectors
     7.473346400  7.473346400  7.473346400     0.133808865  0.133808865  0.133808865


 
 k-points in units of 2pi/SCALE and weight: Automatic mesh                          
   0.00000000  0.00000000  0.00000000       0.016
   0.03345222  0.00000000  0.00000000       0.031
   0.06690443  0.00000000  0.00000000       0.016
   0.00000000  0.03345222  0.00000000       0.031
   0.03345222  0.03345222  0.00000000       0.031
   0.06690443  0.03345222  0.00000000       0.031
  -0.03345222  0.03345222  0.00000000       0.031
   0.00000000  0.06690443  0.00000000       0.016
   0.03345222  0.06690443  0.00000000       0.031
   0.06690443  0.06690443  0.00000000       0.016
   0.00000000  0.00000000  0.03345222       0.031
   0.03345222  0.00000000  0.03345222       0.031
   0.06690443  0.00000000  0.03345222       0.031
  -0.03345222  0.00000000  0.03345222       0.031
   0.00000000  0.03345222  0.03345222       0.031
   0.03345222  0.03345222  0.03345222       0.031
   0.06690443  0.03345222  0.03345222       0.031
  -0.03345222  0.03345222  0.03345222       0.031
   0.00000000  0.06690443  0.03345222       0.031
   0.03345222  0.06690443  0.03345222       0.031
   0.06690443  0.06690443  0.03345222       0.031
  -0.03345222  0.06690443  0.03345222       0.031
   0.00000000 -0.03345222  0.03345222       0.031
   0.03345222 -0.03345222  0.03345222       0.031
   0.06690443 -0.03345222  0.03345222       0.031
  -0.03345222 -0.03345222  0.03345222       0.031
   0.00000000  0.00000000  0.06690443       0.016
   0.03345222  0.00000000  0.06690443       0.031
   0.06690443  0.00000000  0.06690443       0.016
   0.00000000  0.03345222  0.06690443       0.031
   0.03345222  0.03345222  0.06690443       0.031
   0.06690443  0.03345222  0.06690443       0.031
  -0.03345222  0.03345222  0.06690443       0.031
   0.00000000  0.06690443  0.06690443       0.016
   0.03345222  0.06690443  0.06690443       0.031
   0.06690443  0.06690443  0.06690443       0.016
 
 k-points in reciprocal lattice and weights: Automatic mesh                          
   0.00000000  0.00000000  0.00000000       0.016
   0.25000000  0.00000000  0.00000000       0.031
   0.50000000  0.00000000  0.00000000       0.016
   0.00000000  0.25000000  0.00000000       0.031
   0.25000000  0.25000000  0.00000000       0.031
   0.50000000  0.25000000  0.00000000       0.031
  -0.25000000  0.25000000  0.00000000       0.031
   0.00000000  0.50000000  0.00000000       0.016
   0.25000000  0.50000000  0.00000000       0.031
   0.50000000  0.50000000  0.00000000       0.016
   0.00000000  0.00000000  0.25000000       0.031
   0.25000000  0.00000000  0.25000000       0.031
   0.50000000  0.00000000  0.25000000       0.031
  -0.25000000  0.00000000  0.25000000       0.031
   0.00000000  0.25000000  0.25000000       0.031
   0.25000000  0.25000000  0.25000000       0.031
   0.50000000  0.25000000  0.25000000       0.031
  -0.25000000  0.25000000  0.25000000       0.031
   0.00000000  0.50000000  0.25000000       0.031
   0.25000000  0.50000000  0.25000000       0.031
   0.50000000  0.50000000  0.25000000       0.031
  -0.25000000  0.50000000  0.25000000       0.031
   0.00000000 -0.25000000  0.25000000       0.031
   0.25000000 -0.25000000  0.25000000       0.031
   0.50000000 -0.25000000  0.25000000       0.031
  -0.25000000 -0.25000000  0.25000000       0.031
   0.00000000  0.00000000  0.50000000       0.016
   0.25000000  0.00000000  0.50000000       0.031
   0.50000000  0.00000000  0.50000000       0.016
   0.00000000  0.25000000  0.50000000       0.031
   0.25000000  0.25000000  0.50000000       0.031
   0.50000000  0.25000000  0.50000000       0.031
  -0.25000000  0.25000000  0.50000000       0.031
   0.00000000  0.50000000  0.50000000       0.016
   0.25000000  0.50000000  0.50000000       0.031
   0.50000000  0.50000000  0.50000000       0.016
 
 position of ions in fractional coordinates (direct lattice) 
   0.13629986  0.65896563  0.13419822
   0.40073387  0.92605055  0.12896358
   0.39727945  0.65748968  0.39446061
   0.13267778  0.92143812  0.39862874
   0.13361562  0.13190457  0.65908259
   0.39562981  0.39873526  0.65734570
   0.39557467  0.12929324  0.91422038
   0.13332815  0.39705023  0.91906647
   0.66396900  0.65400260  0.65801719
   0.92055169  0.92515462  0.66182700
   0.92146730  0.65890677  0.91867676
   0.65259377  0.92012156  0.92147105
   0.66118721  0.13479673  0.13054239
   0.92024362  0.39193073  0.12777873
   0.91648635  0.13679957  0.39337292
   0.65672237  0.39138414  0.39681754
   0.90194791  0.14579526  0.14396816
   0.38098662  0.90489998  0.37679162
   0.40944706  0.11793960  0.11697132
   0.11760277  0.11509575  0.40855172
   0.40772286  0.40856026  0.40734636
   0.11217347  0.40999731  0.11571807
   0.66831768  0.14760308  0.37752311
   0.14650360  0.90821817  0.14670977
   0.90931623  0.66937577  0.67375712
   0.37811853  0.37762079  0.90471789
   0.40868871  0.64325940  0.63999095
   0.11920408  0.64435529  0.93172701
   0.41350531  0.94091201  0.93899290
   0.11631179  0.93297275  0.64593099
   0.67160141  0.67595186  0.90682437
   0.14897825  0.38090490  0.67457129
   0.37997930  0.15114390  0.67302002
   0.90734278  0.91130663  0.90266015
   0.93243823  0.11938758  0.63996961
   0.64831057  0.11568639  0.93383795
   0.94098441  0.41348460  0.94083619
   0.64553383  0.40721769  0.64822077
   0.14564736  0.14851211  0.90880200
   0.67226554  0.90791037  0.67514837
   0.38095858  0.66973819  0.14716273
   0.90981663  0.37809241  0.37955075
   0.93467373  0.64805805  0.11859249
   0.64419953  0.64104866  0.41096561
   0.93403364  0.93592346  0.40782085
   0.64491935  0.93738133  0.11623586
   0.14742437  0.66975515  0.37596033
   0.67385627  0.38039725  0.14806405
 
 position of ions in cartesian coordinates  (Angst):
   1.01861607  4.92467842  1.00290978
   2.99482302  6.92069654  0.96378951
   2.96900695  4.91364813  2.94794078
   0.99154701  6.88622626  2.97909066
   0.99855581  0.98576854  4.92555250
   2.95667862  2.97988672  4.91257212
   2.95626654  0.96625317  6.83228559
   0.99640745  2.96729391  6.86850209
   4.96207034  4.88758798  4.91759040
   6.87960166  6.91400095  4.94606243
   6.88644433  4.92423854  6.86558966
   4.87705930  6.87638715  6.88647235
   4.94128106  1.00738266  0.97558850
   6.87729934  2.92903411  0.95493471
   6.84921996  1.02235057  2.93981210
   4.90791376  2.92494925  2.96555493
   6.74056917  1.08957848  1.07592393
   2.84724499  6.76263101  2.81589430
   3.05993971  0.88140349  0.87416719
   0.87888624  0.86015041  3.05324853
   3.04705417  3.05331235  3.04424045
   0.83831120  3.06405192  0.86480122
   4.99456953  1.10308895  2.82136098
   1.09487215  6.78742899  1.09641293
   6.79563517  5.00247700  5.03522035
   2.82581075  2.82209097  6.76127019
   3.05427230  4.80730032  4.78287406
   0.89085338  4.81549029  6.96311870
   3.09026842  7.03176138  7.01741921
   0.86923830  6.97242854  4.82726604
   5.01910998  5.05162240  6.77701264
   1.11336607  2.84663426  5.04130492
   2.83971693  1.12955072  5.02971174
   6.78088690  6.81051012  6.74589198
   6.96843389  0.89222474  4.78271458
   4.84504946  0.86456447  6.97889448
   7.03230245  3.09011365  7.03119475
   4.82429792  3.04327886  4.84437836
   1.08847317  1.10988244  6.79179216
   5.02407325  6.78512870  5.04561764
   2.84703543  5.00518549  1.09979806
   6.79937484  2.82561555  2.83651423
   6.98514056  4.84316229  0.88628276
   4.81432624  4.79077870  3.07128836
   6.98035694  6.99448022  3.04778648
   4.81970570  7.00537539  0.86867085
   1.10175338  5.00531224  2.80968178
   5.03596133  2.84284042  1.10653394
 


--------------------------------------------------------------------------------------------------------


 k-point  1 :   0.0000 0.0000 0.0000  plane waves:   10635
 k-point  2 :   0.2500 0.0000 0.0000  plane waves:   10643
 k-point  3 :   0.5000 0.0000 0.0000  plane waves:   10612
 k-point  4 :   0.0000 0.2500 0.0000  plane waves:   10643
 k-point  5 :   0.2500 0.2500 0.0000  plane waves:   10595
 k-point  6 :   0.5000 0.2500 0.0000  plane waves:   10574
 k-point  7 :  -0.2500 0.2500 0.0000  plane waves:   10595
 k-point  8 :   0.0000 0.5000 0.0000  plane waves:   10612
 k-point  9 :   0.2500 0.5000 0.0000  plane waves:   10574
 k-point 10 :   0.5000 0.5000 0.0000  plane waves:   10600
 k-point 11 :   0.0000 0.0000 0.2500  plane waves:   10643
 k-point 12 :   0.2500 0.0000 0.2500  plane waves:   10595
 k-point 13 :   0.5000 0.0000 0.2500  plane waves:   10574
 k-point 14 :  -0.2500 0.0000 0.2500  plane waves:   10595
 k-point 15 :   0.0000 0.2500 0.2500  plane waves:   10595
 k-point 16 :   0.2500 0.2500 0.2500  plane waves:   10585
 k-point 17 :   0.5000 0.2500 0.2500  plane waves:   10618
 k-point 18 :  -0.2500 0.2500 0.2500  plane waves:   10585
 k-point 19 :   0.0000 0.5000 0.2500  plane waves:   10574
 k-point 20 :   0.2500 0.5000 0.2500  plane waves:   10618
 k-point 21 :   0.5000 0.5000 0.2500  plane waves:   10616
 k-point 22 :  -0.2500 0.5000 0.2500  plane waves:   10618
 k-point 23 :   0.0000-0.2500 0.2500  plane waves:   10595
 k-point 24 :   0.2500-0.2500 0.2500  plane waves:   10585
 k-point 25 :   0.5000-0.2500 0.2500  plane waves:   10618
 k-point 26 :  -0.2500-0.2500 0.2500  plane waves:   10585
 k-point 27 :   0.0000 0.0000 0.5000  plane waves:   10612
 k-point 28 :   0.2500 0.0000 0.5000  plane waves:   10574
 k-point 29 :   0.5000 0.0000 0.5000  plane waves:   10600
 k-point 30 :   0.0000 0.2500 0.5000  plane waves:   10574
 k-point 31 :   0.2500 0.2500 0.5000  plane waves:   10618
 k-point 32 :   0.5000 0.2500 0.5000  plane waves:   10616
 k-point 33 :  -0.2500 0.2500 0.5000  plane waves:   10618
 k-point 34 :   0.0000 0.5000 0.5000  plane waves:   10600
 k-point 35 :   0.2500 0.5000 0.5000  plane waves:   10616
 k-point 36 :   0.5000 0.5000 0.5000  plane waves:   10552

 maximum and minimum number of plane-waves per node :     10643    10552

 maximum number of plane-waves:     10643
 maximum index in each direction: 
   IXMAX=   13   IYMAX=   13   IZMAX=   13
   IXMIN=  -14   IYMIN=  -14   IZMIN=  -14

 The following grids will avoid any aliasing or wrap around errors in the Hartre
 e energy
  - symmetry arguments have not been applied
  - exchange correlation energies might require even more grid points
  - we recommend to set PREC=Normal or Accurate and rely on VASP defaults
 NGX is ok and might be reduce to    56
 NGY is ok and might be reduce to    56
 NGZ is ok and might be reduce to    56

 serial   3D FFT for wavefunctions
 parallel 3D FFT for charge:
    minimum data exchange during FFTs selected (reduces bandwidth)


 total amount of memory used by VASP MPI-rank0   160463. kBytes
=======================================================================

   base      :      30000. kBytes
   nonlr-proj:      23621. kBytes
   fftplans  :       3726. kBytes
   grid      :      12054. kBytes
   one-center:        746. kBytes
   wavefun   :      90316. kBytes
 
     INWAV:  cpu time    0.0000: real time    0.0000
 Broyden mixing: mesh for mixing (old mesh)
   NGX = 27   NGY = 27   NGZ = 27
  (NGX  =112   NGY  =112   NGZ  =112)
  gives a total of  19683 points

 initial charge density was supplied:
 charge density of overlapping atoms calculated
 number of electron     352.0000000 magnetization 
 keeping initial charge density in first step


--------------------------------------------------------------------------------------------------------


 Maximum index for non-local projection operator         5508
 Maximum index for augmentation-charges          945 (set IRDMAX)


--------------------------------------------------------------------------------------------------------


 First call to EWALD:  gamma=   0.237
 Maximum number of real-space cells 3x 3x 3
 Maximum number of reciprocal cells 3x 3x 3

    FEWALD:  cpu time    0.0024: real time    0.0024


--------------------------------------- Iteration      1(   1)  ---------------------------------------


    POTLOK:  cpu time    0.0562: real time    0.0587
    SETDIJ:  cpu time    0.0067: real time    0.0068
     EDDAV:  cpu time   29.2662: real time   29.3521
    --------------------------------------------
      LOOP:  cpu time   29.3311: real time   29.4195

 eigenvalue-minimisations  : 16128
 total energy-change (2. order) : 0.4966171E+04  (-0.1562541E+05)
 number of electron     352.0000000 magnetization 
 augmentation part      352.0000000 magnetization 

 Free energy of the ion-electron system (eV)
  ---------------------------------------------------
  alpha Z        PSCENC =      1313.13231116
  Ewald energy   TEWEN  =    -20443.98817555
  -Hartree energ DENC   =    -11979.83590122
  -exchange      EXHF   =         0.00000000
  -V(xc)+E(xc)   XCENC  =      1438.16062128
  PAW double counting   =     26475.20327555   -27591.76617206
  entropy T*S    EENTRO =        -0.00705023
  eigenvalues    EBANDS =      4741.59949509
  atomic energy  EATOM  =     31013.67235384
  Solvation  Ediel_sol  =         0.00000000
  ---------------------------------------------------
  free energy    TOTEN  =      4966.17075787 eV

  energy without entropy =     4966.17780809  energy(sigma->0) =     4966.17428298


--------------------------------------------------------------------------------------------------------




--------------------------------------- Iteration      1(   2)  ---------------------------------------


     EDDAV:  cpu time   29.9975: real time   30.0686
    --------------------------------------------
      LOOP:  cpu time   29.9974: real time   30.0685

 eigenvalue-minimisations  : 16624
 total energy-change (2. order) :-0.4268638E+04  (-0.3876481E+04)
 number of electron     352.0000000 magnetization 
 augmentation part      352.0000000 magnetization 

 Free energy of the ion-electron system (eV)
  ---------------------------------------------------
  alpha Z        PSCENC =      1313.13231116
  Ewald energy   TEWEN  =    -20443.98817555
  -Hartree energ DENC   =    -11979.83590122
  -exchange      EXHF   =         0.00000000
  -V(xc)+E(xc)   XCENC  =      1438.16062128
  PAW double counting   =     26475.20327555   -27591.76617206
  entropy T*S    EENTRO =        -0.02023975
  eigenvalues    EBANDS =       472.97485052
  atomic energy  EATOM  =     31013.67235384
  Solvation  Ediel_sol  =         0.00000000
  ---------------------------------------------------
  free energy    TOTEN  =       697.53292377 eV

  energy without entropy =      697.55316352  energy(sigma->0) =      697.54304365


--------------------------------------------------------------------------------------------------------




--------------------------------------- Iteration      1(   3)  ---------------------------------------


     EDDAV:  cpu time   30.4851: real time   30.5575
    --------------------------------------------
      LOOP:  cpu time   30.4846: real time   30.5570

 eigenvalue-minimisations  : 17008
 total energy-change (2. order) :-0.9685060E+03  (-0.8586582E+03)
 number of electron     352.0000000 magnetization 
 augmentation part      352.0000000 magnetization 

 Free energy of the ion-electron system (eV)
  ---------------------------------------------------
  alpha Z        PSCENC =      1313.13231116
  Ewald energy   TEWEN  =    -20443.98817555
  -Hartree energ DENC   =    -11979.83590122
  -exchange      EXHF   =         0.00000000
  -V(xc)+E(xc)   XCENC  =      1438.16062128
  PAW double counting   =     26475.20327555   -27591.76617206
  entropy T*S    EENTRO =        -0.00000003
  eigenvalues    EBANDS =      -495.55134444
  atomic energy  EATOM  =     31013.67235384
  Solvation  Ediel_sol  =         0.00000000
  ---------------------------------------------------
  free energy    TOTEN  =      -270.97303147 eV

  energy without entropy =     -270.97303144  energy(sigma->0) =     -270.97303145


--------------------------------------------------------------------------------------------------------




--------------------------------------- Iteration      1(   4)  ---------------------------------------


     EDDAV:  cpu time   29.7046: real time   29.7750
    --------------------------------------------
      LOOP:  cpu time   29.7044: real time   29.7749

 eigenvalue-minimisations  : 17280
 total energy-change (2. order) :-0.8649570E+02  (-0.8504932E+02)
 number of electron     352.0000000 magnetization 
 augmentation part      352.0000000 magnetization 

 Free energy of the ion-electron system (eV)
  ---------------------------------------------------
  alpha Z        PSCENC =      1313.13231116
  Ewald energy   TEWEN  =    -20443.98817555
  -Hartree energ DENC   =    -11979.83590122
  -exchange      EXHF   =         0.00000000
  -V(xc)+E(xc)   XCENC  =      1438.16062128
  PAW double counting   =     26475.20327555   -27591.76617206
  entropy T*S    EENTRO =        -0.00000000
  eigenvalues    EBANDS =      -582.04704400
  atomic energy  EATOM  =     31013.67235384
  Solvation  Ediel_sol  =         0.00000000
  ---------------------------------------------------
  free energy    TOTEN  =      -357.46873100 eV

  energy without entropy =     -357.46873100  energy(sigma->0) =     -357.46873100


--------------------------------------------------------------------------------------------------------




--------------------------------------- Iteration      1(   5)  ---------------------------------------


     EDDAV:  cpu time   27.9122: real time   27.9784
    CHARGE:  cpu time    0.8406: real time    0.8426
    MIXING:  cpu time    0.0036: real time    0.0071
    --------------------------------------------
      LOOP:  cpu time   28.7553: real time   28.8269

 eigenvalue-minimisations  : 17344
 total energy-change (2. order) :-0.2054152E+01  (-0.2046555E+01)
 number of electron     352.0000061 magnetization 
 augmentation part      103.5515950 magnetization 

 Broyden mixing:
  rms(total) = 0.18219E+02    rms(broyden)= 0.18215E+02
  rms(prec ) = 0.20491E+02
  weight for this iteration     100.00

 Free energy of the ion-electron system (eV)
  ---------------------------------------------------
  alpha Z        PSCENC =      1313.13231116
  Ewald energy   TEWEN  =    -20443.98817555
  -Hartree energ DENC   =    -11979.83590122
  -exchange      EXHF   =         0.00000000
  -V(xc)+E(xc)   XCENC  =      1438.16062128
  PAW double counting   =     26475.20327555   -27591.76617206
  entropy T*S    EENTRO =        -0.00000000
  eigenvalues    EBANDS =      -584.10119586
  atomic energy  EATOM  =     31013.67235384
  Solvation  Ediel_sol  =         0.00000000
  ---------------------------------------------------
  free energy    TOTEN  =      -359.52288286 eV

  energy without entropy =     -359.52288286  energy(sigma->0) =     -359.52288286


--------------------------------------------------------------------------------------------------------




--------------------------------------- Iteration      1(   6)  ---------------------------------------


    POTLOK:  cpu time    0.0419: real time    0.0420
    SETDIJ:  cpu time    0.0066: real time    0.0066
     EDDAV:  cpu time   39.4258: real time   39.5191
    CHARGE:  cpu time    0.8896: real time    0.8917
    MIXING:  cpu time    0.0018: real time    0.0019
    --------------------------------------------
      LOOP:  cpu time   40.3657: real time   40.4613

 eigenvalue-minimisations  : 24688
 total energy-change (2. order) :-0.1495996E+02  (-0.7200012E+02)
 number of electron     352.0000021 magnetization 
 augmentation part      134.9936687 magnetization 

 Broyden mixing:
  rms(total) = 0.19474E+02    rms(broyden)= 0.19471E+02
  rms(prec ) = 0.22171E+02
  weight for this iteration     100.00

 eigenvalues of (default mixing * dielectric matrix)
  average eigenvalue GAMMA=   0.4201
  0.4201

 Free energy of the ion-electron system (eV)
  ---------------------------------------------------
  alpha Z        PSCENC =      1313.13231116
  Ewald energy   TEWEN  =    -20443.98817555
  -Hartree energ DENC   =    -11465.77077585
  -exchange      EXHF   =         0.00000000
  -V(xc)+E(xc)   XCENC  =      1438.99279552
  PAW double counting   =     32755.52108667   -33735.29521901
  entropy T*S    EENTRO =        -0.01918205
  eigenvalues    EBANDS =     -1250.72804015
  atomic energy  EATOM  =     31013.67235384
  Solvation  Ediel_sol  =         0.00000000
  ---------------------------------------------------
  free energy    TOTEN  =      -374.48284542 eV

  energy without entropy =     -374.46366337  energy(sigma->0) =     -374.47325440


--------------------------------------------------------------------------------------------------------




--------------------------------------- Iteration      1(   7)  ---------------------------------------


    POTLOK:  cpu time    0.0434: real time    0.0435
    SETDIJ:  cpu time    0.0067: real time    0.0067
     EDDAV:  cpu time   36.0762: real time   36.1617
    CHARGE:  cpu time    0.8165: real time    0.8185
    MIXING:  cpu time    0.0017: real time    0.0017
    --------------------------------------------
      LOOP:  cpu time   36.9445: real time   37.0321

 eigenvalue-minimisations  : 23008
 total energy-change (2. order) : 0.1239707E+03  (-0.2852481E+02)
 number of electron     352.0000040 magnetization 
 augmentation part      115.2665277 magnetization 

 Broyden mixing:
  rms(total) = 0.51469E+01    rms(broyden)= 0.51439E+01
  rms(prec ) = 0.62118E+01
  weight for this iteration     100.00

 eigenvalues of (default mixing * dielectric matrix)
  average eigenvalue GAMMA=   0.8864
  1.3482  0.4245

 Free energy of the ion-electron system (eV)
  ---------------------------------------------------
  alpha Z        PSCENC =      1313.13231116
  Ewald energy   TEWEN  =    -20443.98817555
  -Hartree energ DENC   =    -11825.61001668
  -exchange      EXHF   =         0.00000000
  -V(xc)+E(xc)   XCENC  =      1444.68916186
  PAW double counting   =     35454.66980298   -36611.56116904
  entropy T*S    EENTRO =        -0.00000000
  eigenvalues    EBANDS =      -595.51646360
  atomic energy  EATOM  =     31013.67235384
  Solvation  Ediel_sol  =         0.00000000
  ---------------------------------------------------
  free energy    TOTEN  =      -250.51219503 eV

  energy without entropy =     -250.51219503  energy(sigma->0) =     -250.51219503


--------------------------------------------------------------------------------------------------------




--------------------------------------- Iteration      1(   8)  ---------------------------------------


    POTLOK:  cpu time    0.0395: real time    0.0396
    SETDIJ:  cpu time    0.0069: real time    0.0069
     EDDAV:  cpu time   41.4265: real time   41.5246
    CHARGE:  cpu time    0.8704: real time    0.8725
    MIXING:  cpu time    0.0018: real time    0.0018
    --------------------------------------------
      LOOP:  cpu time   42.3451: real time   42.4454

 eigenvalue-minimisations  : 26208
 total energy-change (2. order) :-0.4816279E+01  (-0.7981029E+01)
 number of electron     352.0000029 magnetization 
 augmentation part      115.5423217 magnetization 

 Broyden mixing:
  rms(total) = 0.59282E+01    rms(broyden)= 0.59273E+01
  rms(prec ) = 0.73834E+01
  weight for this iteration     100.00

 eigenvalues of (default mixing * dielectric matrix)
  average eigenvalue GAMMA=   0.8411
  1.6927  0.4153  0.4153

 Free energy of the ion-electron system (eV)
  ---------------------------------------------------
  alpha Z        PSCENC =      1313.13231116
  Ewald energy   TEWEN  =    -20443.98817555
  -Hartree energ DENC   =    -11694.56166397
  -exchange      EXHF   =         0.00000000
  -V(xc)+E(xc)   XCENC  =      1440.74096500
  PAW double counting   =     39709.61109430   -40934.28907792
  entropy T*S    EENTRO =        -0.00000607
  eigenvalues    EBANDS =      -659.64627520
  atomic energy  EATOM  =     31013.67235384
  Solvation  Ediel_sol  =         0.00000000
  ---------------------------------------------------
  free energy    TOTEN  =      -255.32847442 eV

  energy without entropy =     -255.32846834  energy(sigma->0) =     -255.32847138


--------------------------------------------------------------------------------------------------------




--------------------------------------- Iteration      1(   9)  ---------------------------------------


    POTLOK:  cpu time    0.0440: real time    0.0441
    SETDIJ:  cpu time    0.0067: real time    0.0067
     EDDAV:  cpu time   35.4876: real time   35.5716
    CHARGE:  cpu time    0.8690: real time    0.8711
    MIXING:  cpu time    0.0017: real time    0.0017
    --------------------------------------------
      LOOP:  cpu time   36.4089: real time   36.4952

 eigenvalue-minimisations  : 20624
 total energy-change (2. order) : 0.8378204E+01  (-0.3562212E+01)
 number of electron     352.0000055 magnetization 
 augmentation part      114.0626508 magnetization 

 Broyden mixing:
  rms(total) = 0.26212E+01    rms(broyden)= 0.26200E+01
  rms(prec ) = 0.37360E+01
  weight for this iteration     100.00

 eigenvalues of (default mixing * dielectric matrix)
  average eigenvalue GAMMA=   0.8239
  1.9209  0.5105  0.5105  0.3538

 Free energy of the ion-electron system (eV)
  ---------------------------------------------------
  alpha Z        PSCENC =      1313.13231116
  Ewald energy   TEWEN  =    -20443.98817555
  -Hartree energ DENC   =    -11682.58915156
  -exchange      EXHF   =         0.00000000
  -V(xc)+E(xc)   XCENC  =      1438.89607441
  PAW double counting   =     42366.78505477   -43614.51967286
  entropy T*S    EENTRO =        -0.00000000
  eigenvalues    EBANDS =      -638.33906447
  atomic energy  EATOM  =     31013.67235384
  Solvation  Ediel_sol  =         0.00000000
  ---------------------------------------------------
  free energy    TOTEN  =      -246.95027028 eV

  energy without entropy =     -246.95027028  energy(sigma->0) =     -246.95027028


--------------------------------------------------------------------------------------------------------




--------------------------------------- Iteration      1(  10)  ---------------------------------------


    POTLOK:  cpu time    0.0430: real time    0.0431
    SETDIJ:  cpu time    0.0067: real time    0.0067
     EDDAV:  cpu time   36.7971: real time   36.8843
    CHARGE:  cpu time    0.8648: real time    0.8668
    MIXING:  cpu time    0.0023: real time    0.0023
    --------------------------------------------
      LOOP:  cpu time   37.7138: real time   37.8032

 eigenvalue-minimisations  : 21616
 total energy-change (2. order) : 0.5055701E+01  (-0.1377176E+01)
 number of electron     352.0000037 magnetization 
 augmentation part      114.4402997 magnetization 

 Broyden mixing:
  rms(total) = 0.14388E+01    rms(broyden)= 0.14378E+01
  rms(prec ) = 0.20367E+01
  weight for this iteration     100.00

 eigenvalues of (default mixing * dielectric matrix)
  average eigenvalue GAMMA=   0.8476
  2.1277  0.7219  0.7219  0.3751  0.2910

 Free energy of the ion-electron system (eV)
  ---------------------------------------------------
  alpha Z        PSCENC =      1313.13231116
  Ewald energy   TEWEN  =    -20443.98817555
  -Hartree energ DENC   =    -11654.88552554
  -exchange      EXHF   =         0.00000000
  -V(xc)+E(xc)   XCENC  =      1438.34442710
  PAW double counting   =     43518.58779341   -44766.74350304
  entropy T*S    EENTRO =        -0.00227707
  eigenvalues    EBANDS =      -660.01197385
  atomic energy  EATOM  =     31013.67235384
  Solvation  Ediel_sol  =         0.00000000
  ---------------------------------------------------
  free energy    TOTEN  =      -241.89456954 eV

  energy without entropy =     -241.89229247  energy(sigma->0) =     -241.89343101


--------------------------------------------------------------------------------------------------------




--------------------------------------- Iteration      1(  11)  ---------------------------------------


    POTLOK:  cpu time    0.0454: real time    0.0456
    SETDIJ:  cpu time    0.0065: real time    0.0065
     EDDAV:  cpu time   37.7475: real time   37.8369
    CHARGE:  cpu time    0.8548: real time    0.8569
    MIXING:  cpu time    0.0019: real time    0.0019
    --------------------------------------------
      LOOP:  cpu time   38.6561: real time   38.7477

 eigenvalue-minimisations  : 24288
 total energy-change (2. order) : 0.9433319E+00  (-0.5169502E+00)
 number of electron     352.0000039 magnetization 
 augmentation part      115.4895211 magnetization 

 Broyden mixing:
  rms(total) = 0.72733E+00    rms(broyden)= 0.72687E+00
  rms(prec ) = 0.97944E+00
  weight for this iteration     100.00

 eigenvalues of (default mixing * dielectric matrix)
  average eigenvalue GAMMA=   0.7961
  2.1562  0.8515  0.7245  0.3867  0.3829  0.2745

 Free energy of the ion-electron system (eV)
  ---------------------------------------------------
  alpha Z        PSCENC =      1313.13231116
  Ewald energy   TEWEN  =    -20443.98817555
  -Hartree energ DENC   =    -11648.28421254
  -exchange      EXHF   =         0.00000000
  -V(xc)+E(xc)   XCENC  =      1438.26365624
  PAW double counting   =     44397.05537828   -45646.55062947
  entropy T*S    EENTRO =        -0.00000191
  eigenvalues    EBANDS =      -664.25191765
  atomic energy  EATOM  =     31013.67235384
  Solvation  Ediel_sol  =         0.00000000
  ---------------------------------------------------
  free energy    TOTEN  =      -240.95123761 eV

  energy without entropy =     -240.95123570  energy(sigma->0) =     -240.95123665


--------------------------------------------------------------------------------------------------------




--------------------------------------- Iteration      1(  12)  ---------------------------------------


    POTLOK:  cpu time    0.0431: real time    0.0432
    SETDIJ:  cpu time    0.0068: real time    0.0068
     EDDAV:  cpu time   35.3249: real time   35.4086
    CHARGE:  cpu time    0.8292: real time    0.8312
    MIXING:  cpu time    0.0019: real time    0.0019
    --------------------------------------------
      LOOP:  cpu time   36.2058: real time   36.2916

 eigenvalue-minimisations  : 22768
 total energy-change (2. order) :-0.7001220E-01  (-0.2225151E+00)
 number of electron     352.0000040 magnetization 
 augmentation part      115.6481240 magnetization 

 Broyden mixing:
  rms(total) = 0.58651E+00    rms(broyden)= 0.58628E+00
  rms(prec ) = 0.83909E+00
  weight for this iteration     100.00

 eigenvalues of (default mixing * dielectric matrix)
  average eigenvalue GAMMA=   0.7752
  2.1767  1.1941  0.5585  0.5585  0.3786  0.3041  0.2556

 Free energy of the ion-electron system (eV)
  ---------------------------------------------------
  alpha Z        PSCENC =      1313.13231116
  Ewald energy   TEWEN  =    -20443.98817555
  -Hartree energ DENC   =    -11648.99357022
  -exchange      EXHF   =         0.00000000
  -V(xc)+E(xc)   XCENC  =      1438.35207946
  PAW double counting   =     44693.83963663   -45943.21931735
  entropy T*S    EENTRO =        -0.00000045
  eigenvalues    EBANDS =      -663.81656731
  atomic energy  EATOM  =     31013.67235384
  Solvation  Ediel_sol  =         0.00000000
  ---------------------------------------------------
  free energy    TOTEN  =      -241.02124980 eV

  energy without entropy =     -241.02124935  energy(sigma->0) =     -241.02124958


--------------------------------------------------------------------------------------------------------




--------------------------------------- Iteration      1(  13)  ---------------------------------------


    POTLOK:  cpu time    0.0425: real time    0.0426
    SETDIJ:  cpu time    0.0067: real time    0.0068
     EDDAV:  cpu time   34.0149: real time   34.0955
    CHARGE:  cpu time    0.8543: real time    0.8563
    MIXING:  cpu time    0.0020: real time    0.0020
    --------------------------------------------
      LOOP:  cpu time   34.9204: real time   35.0032

 eigenvalue-minimisations  : 21104
 total energy-change (2. order) : 0.1641226E+00  (-0.6861592E-01)
 number of electron     352.0000038 magnetization 
 augmentation part      115.6747068 magnetization 

 Broyden mixing:
  rms(total) = 0.32920E+00    rms(broyden)= 0.32912E+00
  rms(prec ) = 0.38669E+00
  weight for this iteration     100.00

 eigenvalues of (default mixing * dielectric matrix)
  average eigenvalue GAMMA=   0.8145
  2.3704  1.4024  0.6125  0.6125  0.6193  0.3729  0.2933  0.2328

 Free energy of the ion-electron system (eV)
  ---------------------------------------------------
  alpha Z        PSCENC =      1313.13231116
  Ewald energy   TEWEN  =    -20443.98817555
  -Hartree energ DENC   =    -11648.25118119
  -exchange      EXHF   =         0.00000000
  -V(xc)+E(xc)   XCENC  =      1438.33269563
  PAW double counting   =     44935.66227843   -46185.05174653
  entropy T*S    EENTRO =        -0.00000023
  eigenvalues    EBANDS =      -664.36566276
  atomic energy  EATOM  =     31013.67235384
  Solvation  Ediel_sol  =         0.00000000
  ---------------------------------------------------
  free energy    TOTEN  =      -240.85712719 eV

  energy without entropy =     -240.85712696  energy(sigma->0) =     -240.85712708


--------------------------------------------------------------------------------------------------------




--------------------------------------- Iteration      1(  14)  ---------------------------------------


    POTLOK:  cpu time    0.0427: real time    0.0428
    SETDIJ:  cpu time    0.0065: real time    0.0065
     EDDAV:  cpu time   32.2166: real time   32.2930
    CHARGE:  cpu time    0.8638: real time    0.8659
    MIXING:  cpu time    0.0022: real time    0.0022
    --------------------------------------------
      LOOP:  cpu time   33.1319: real time   33.2104

 eigenvalue-minimisations  : 20176
 total energy-change (2. order) : 0.9321393E-02  (-0.1581823E-01)
 number of electron     352.0000039 magnetization 
 augmentation part      115.6867689 magnetization 

 Broyden mixing:
  rms(total) = 0.24775E+00    rms(broyden)= 0.24771E+00
  rms(prec ) = 0.29735E+00
  weight for this iteration     100.00

 eigenvalues of (default mixing * dielectric matrix)
  average eigenvalue GAMMA=   0.8105
  2.5347  1.5291  0.6836  0.6836  0.6232  0.3751  0.3089  0.3089  0.2475

 Free energy of the ion-electron system (eV)
  ---------------------------------------------------
  alpha Z        PSCENC =      1313.13231116
  Ewald energy   TEWEN  =    -20443.98817555
  -Hartree energ DENC   =    -11646.73653653
  -exchange      EXHF   =         0.00000000
  -V(xc)+E(xc)   XCENC  =      1438.15806792
  PAW double counting   =     45176.05153912   -46425.77872053
  entropy T*S    EENTRO =        -0.00000050
  eigenvalues    EBANDS =      -665.35864472
  atomic energy  EATOM  =     31013.67235384
  Solvation  Ediel_sol  =         0.00000000
  ---------------------------------------------------
  free energy    TOTEN  =      -240.84780580 eV

  energy without entropy =     -240.84780530  energy(sigma->0) =     -240.84780555


--------------------------------------------------------------------------------------------------------




--------------------------------------- Iteration      1(  15)  ---------------------------------------


    POTLOK:  cpu time    0.0444: real time    0.0445
    SETDIJ:  cpu time    0.0067: real time    0.0067
     EDDAV:  cpu time   34.4390: real time   34.5205
    CHARGE:  cpu time    0.8653: real time    0.8673
    MIXING:  cpu time    0.0021: real time    0.0021
    --------------------------------------------
      LOOP:  cpu time   35.3574: real time   35.4411

 eigenvalue-minimisations  : 19888
 total energy-change (2. order) : 0.1079678E-01  (-0.8831088E-02)
 number of electron     352.0000039 magnetization 
 augmentation part      115.6695028 magnetization 

 Broyden mixing:
  rms(total) = 0.16725E+00    rms(broyden)= 0.16724E+00
  rms(prec ) = 0.20760E+00
  weight for this iteration     100.00

 eigenvalues of (default mixing * dielectric matrix)
  average eigenvalue GAMMA=   0.8509
  2.7064  1.7793  0.8067  0.8067  0.5916  0.5916  0.3746  0.3260  0.2899  0.2358

 Free energy of the ion-electron system (eV)
  ---------------------------------------------------
  alpha Z        PSCENC =      1313.13231116
  Ewald energy   TEWEN  =    -20443.98817555
  -Hartree energ DENC   =    -11645.76111673
  -exchange      EXHF   =         0.00000000
  -V(xc)+E(xc)   XCENC  =      1437.98935357
  PAW double counting   =     45319.14472251   -46568.80989050
  entropy T*S    EENTRO =        -0.00000036
  eigenvalues    EBANDS =      -666.21656694
  atomic energy  EATOM  =     31013.67235384
  Solvation  Ediel_sol  =         0.00000000
  ---------------------------------------------------
  free energy    TOTEN  =      -240.83700902 eV

  energy without entropy =     -240.83700865  energy(sigma->0) =     -240.83700884


--------------------------------------------------------------------------------------------------------




--------------------------------------- Iteration      1(  16)  ---------------------------------------


    POTLOK:  cpu time    0.0420: real time    0.0421
    SETDIJ:  cpu time    0.0066: real time    0.0066
     EDDAV:  cpu time   41.1561: real time   41.2536
    CHARGE:  cpu time    0.8809: real time    0.8830
    MIXING:  cpu time    0.0028: real time    0.0111
    --------------------------------------------
      LOOP:  cpu time   42.0885: real time   42.1965

 eigenvalue-minimisations  : 24800
 total energy-change (2. order) : 0.3729608E-02  (-0.3915447E-02)
 number of electron     352.0000039 magnetization 
 augmentation part      115.6371983 magnetization 

 Broyden mixing:
  rms(total) = 0.11399E+00    rms(broyden)= 0.11397E+00
  rms(prec ) = 0.14677E+00
  weight for this iteration     100.00

 eigenvalues of (default mixing * dielectric matrix)
  average eigenvalue GAMMA=   0.8492
  2.5161  2.0919  0.9154  0.9154  0.6468  0.6468  0.4417  0.3681  0.2969  0.2372
  0.2646

 Free energy of the ion-electron system (eV)
  ---------------------------------------------------
  alpha Z        PSCENC =      1313.13231116
  Ewald energy   TEWEN  =    -20443.98817555
  -Hartree energ DENC   =    -11645.52824491
  -exchange      EXHF   =         0.00000000
  -V(xc)+E(xc)   XCENC  =      1437.86360644
  PAW double counting   =     45359.54978564   -46608.61642717
  entropy T*S    EENTRO =        -0.00000019
  eigenvalues    EBANDS =      -666.91848867
  atomic energy  EATOM  =     31013.67235384
  Solvation  Ediel_sol  =         0.00000000
  ---------------------------------------------------
  free energy    TOTEN  =      -240.83327941 eV

  energy without entropy =     -240.83327922  energy(sigma->0) =     -240.83327931


--------------------------------------------------------------------------------------------------------




--------------------------------------- Iteration      1(  17)  ---------------------------------------


    POTLOK:  cpu time    0.0451: real time    0.0452
    SETDIJ:  cpu time    0.0071: real time    0.0071
     EDDAV:  cpu time   39.3246: real time   39.4178
    CHARGE:  cpu time    0.8455: real time    0.8476
    MIXING:  cpu time    0.0027: real time    0.0027
    --------------------------------------------
      LOOP:  cpu time   40.2250: real time   40.3203

 eigenvalue-minimisations  : 23840
 total energy-change (2. order) : 0.4609846E-02  (-0.1898312E-02)
 number of electron     352.0000039 magnetization 
 augmentation part      115.6324419 magnetization 

 Broyden mixing:
  rms(total) = 0.51325E-01    rms(broyden)= 0.51304E-01
  rms(prec ) = 0.65410E-01
  weight for this iteration     100.00

 eigenvalues of (default mixing * dielectric matrix)
  average eigenvalue GAMMA=   0.8266
  2.3068  2.3068  0.9805  0.9805  0.6430  0.6430  0.5133  0.3752  0.3752  0.2938
  0.2367  0.2640

 Free energy of the ion-electron system (eV)
  ---------------------------------------------------
  alpha Z        PSCENC =      1313.13231116
  Ewald energy   TEWEN  =    -20443.98817555
  -Hartree energ DENC   =    -11646.23265139
  -exchange      EXHF   =         0.00000000
  -V(xc)+E(xc)   XCENC  =      1437.85960104
  PAW double counting   =     45287.45098541   -46535.68044868
  entropy T*S    EENTRO =        -0.00000021
  eigenvalues    EBANDS =      -667.04264518
  atomic energy  EATOM  =     31013.67235384
  Solvation  Ediel_sol  =         0.00000000
  ---------------------------------------------------
  free energy    TOTEN  =      -240.82866956 eV

  energy without entropy =     -240.82866935  energy(sigma->0) =     -240.82866946


--------------------------------------------------------------------------------------------------------




--------------------------------------- Iteration      1(  18)  ---------------------------------------


    POTLOK:  cpu time    0.0442: real time    0.0443
    SETDIJ:  cpu time    0.0071: real time    0.0071
     EDDAV:  cpu time   31.7905: real time   31.8656
    CHARGE:  cpu time    0.8377: real time    0.8396
    MIXING:  cpu time    0.0026: real time    0.0026
    --------------------------------------------
      LOOP:  cpu time   32.6821: real time   32.7593

 eigenvalue-minimisations  : 20288
 total energy-change (2. order) : 0.6563879E-03  (-0.4822225E-03)
 number of electron     352.0000039 magnetization 
 augmentation part      115.6390925 magnetization 

 Broyden mixing:
  rms(total) = 0.34555E-01    rms(broyden)= 0.34546E-01
  rms(prec ) = 0.42439E-01
  weight for this iteration     100.00

 eigenvalues of (default mixing * dielectric matrix)
  average eigenvalue GAMMA=   0.8503
  2.4764  2.4764  1.3543  0.7634  0.7634  0.6510  0.6510  0.4637  0.3753  0.2979
  0.2952  0.2370  0.2492

 Free energy of the ion-electron system (eV)
  ---------------------------------------------------
  alpha Z        PSCENC =      1313.13231116
  Ewald energy   TEWEN  =    -20443.98817555
  -Hartree energ DENC   =    -11646.49581675
  -exchange      EXHF   =         0.00000000
  -V(xc)+E(xc)   XCENC  =      1437.87740697
  PAW double counting   =     45264.13988010   -46512.12867248
  entropy T*S    EENTRO =        -0.00000016
  eigenvalues    EBANDS =      -667.03730029
  atomic energy  EATOM  =     31013.67235384
  Solvation  Ediel_sol  =         0.00000000
  ---------------------------------------------------
  free energy    TOTEN  =      -240.82801318 eV

  energy without entropy =     -240.82801301  energy(sigma->0) =     -240.82801309


--------------------------------------------------------------------------------------------------------




--------------------------------------- Iteration      1(  19)  ---------------------------------------


    POTLOK:  cpu time    0.0422: real time    0.0423
    SETDIJ:  cpu time    0.0068: real time    0.0068
     EDDAV:  cpu time   34.8947: real time   34.9772
    CHARGE:  cpu time    0.8441: real time    0.8461
    MIXING:  cpu time    0.0027: real time    0.0027
    --------------------------------------------
      LOOP:  cpu time   35.7905: real time   35.8752

 eigenvalue-minimisations  : 21648
 total energy-change (2. order) : 0.1332244E-03  (-0.1984524E-03)
 number of electron     352.0000039 magnetization 
 augmentation part      115.6395386 magnetization 

 Broyden mixing:
  rms(total) = 0.17755E-01    rms(broyden)= 0.17751E-01
  rms(prec ) = 0.23657E-01
  weight for this iteration     100.00

 eigenvalues of (default mixing * dielectric matrix)
  average eigenvalue GAMMA=   0.8638
  2.6320  2.6320  1.4964  0.8409  0.8409  0.6307  0.6307  0.5470  0.4104  0.3722
  0.2963  0.2750  0.2362  0.2524

 Free energy of the ion-electron system (eV)
  ---------------------------------------------------
  alpha Z        PSCENC =      1313.13231116
  Ewald energy   TEWEN  =    -20443.98817555
  -Hartree energ DENC   =    -11646.87266197
  -exchange      EXHF   =         0.00000000
  -V(xc)+E(xc)   XCENC  =      1437.89826751
  PAW double counting   =     45253.62540340   -46501.37020660
  entropy T*S    EENTRO =        -0.00000017
  eigenvalues    EBANDS =      -666.92517157
  atomic energy  EATOM  =     31013.67235384
  Solvation  Ediel_sol  =         0.00000000
  ---------------------------------------------------
  free energy    TOTEN  =      -240.82787995 eV

  energy without entropy =     -240.82787979  energy(sigma->0) =     -240.82787987


--------------------------------------------------------------------------------------------------------




--------------------------------------- Iteration      1(  20)  ---------------------------------------


    POTLOK:  cpu time    0.0426: real time    0.0427
    SETDIJ:  cpu time    0.0065: real time    0.0065
     EDDAV:  cpu time   34.2474: real time   34.3285
    CHARGE:  cpu time    0.8400: real time    0.8420
    MIXING:  cpu time    0.0030: real time    0.0031
    --------------------------------------------
      LOOP:  cpu time   35.1396: real time   35.2228

 eigenvalue-minimisations  : 22128
 total energy-change (2. order) : 0.1026629E-03  (-0.7957448E-04)
 number of electron     352.0000039 magnetization 
 augmentation part      115.6391369 magnetization 

 Broyden mixing:
  rms(total) = 0.83106E-02    rms(broyden)= 0.83053E-02
  rms(prec ) = 0.11500E-01
  weight for this iteration     100.00

 eigenvalues of (default mixing * dielectric matrix)
  average eigenvalue GAMMA=   0.8684
  2.6428  2.6428  1.5288  0.9618  0.9618  0.6850  0.6850  0.6733  0.4603  0.3742
  0.3576  0.2967  0.2741  0.2365  0.2462

 Free energy of the ion-electron system (eV)
  ---------------------------------------------------
  alpha Z        PSCENC =      1313.13231116
  Ewald energy   TEWEN  =    -20443.98817555
  -Hartree energ DENC   =    -11647.14374328
  -exchange      EXHF   =         0.00000000
  -V(xc)+E(xc)   XCENC  =      1437.91534854
  PAW double counting   =     45252.45895963   -46500.10159531
  entropy T*S    EENTRO =        -0.00000018
  eigenvalues    EBANDS =      -666.77323613
  atomic energy  EATOM  =     31013.67235384
  Solvation  Ediel_sol  =         0.00000000
  ---------------------------------------------------
  free energy    TOTEN  =      -240.82777729 eV

  energy without entropy =     -240.82777711  energy(sigma->0) =     -240.82777720


--------------------------------------------------------------------------------------------------------




--------------------------------------- Iteration      1(  21)  ---------------------------------------


    POTLOK:  cpu time    0.0416: real time    0.0417
    SETDIJ:  cpu time    0.0067: real time    0.0067
     EDDAV:  cpu time   36.4238: real time   36.5100
    CHARGE:  cpu time    0.8644: real time    0.8664
    MIXING:  cpu time    0.0028: real time    0.0028
    --------------------------------------------
      LOOP:  cpu time   37.3393: real time   37.4276

 eigenvalue-minimisations  : 22544
 total energy-change (2. order) : 0.6411708E-05  (-0.2684253E-04)
 number of electron     352.0000039 magnetization 
 augmentation part      115.6399086 magnetization 

 Broyden mixing:
  rms(total) = 0.56079E-02    rms(broyden)= 0.56052E-02
  rms(prec ) = 0.81681E-02
  weight for this iteration     100.00

 eigenvalues of (default mixing * dielectric matrix)
  average eigenvalue GAMMA=   0.8506
  2.6146  2.6146  1.3616  1.3616  0.8002  0.8002  0.7024  0.7024  0.4493  0.4493
  0.3707  0.3313  0.2935  0.2737  0.2362  0.2476

 Free energy of the ion-electron system (eV)
  ---------------------------------------------------
  alpha Z        PSCENC =      1313.13231116
  Ewald energy   TEWEN  =    -20443.98817555
  -Hartree energ DENC   =    -11647.32585420
  -exchange      EXHF   =         0.00000000
  -V(xc)+E(xc)   XCENC  =      1437.92993043
  PAW double counting   =     45257.48734498   -46505.15646901
  entropy T*S    EENTRO =        -0.00000018
  eigenvalues    EBANDS =      -666.57921235
  atomic energy  EATOM  =     31013.67235384
  Solvation  Ediel_sol  =         0.00000000
  ---------------------------------------------------
  free energy    TOTEN  =      -240.82777088 eV

  energy without entropy =     -240.82777070  energy(sigma->0) =     -240.82777079


--------------------------------------------------------------------------------------------------------




--------------------------------------- Iteration      1(  22)  ---------------------------------------


    POTLOK:  cpu time    0.0423: real time    0.0424
    SETDIJ:  cpu time    0.0066: real time    0.0066
     EDDAV:  cpu time   32.7355: real time   32.8129
    CHARGE:  cpu time    0.8654: real time    0.8675
    MIXING:  cpu time    0.0028: real time    0.0028
    --------------------------------------------
      LOOP:  cpu time   33.6526: real time   33.7322

 eigenvalue-minimisations  : 18720
 total energy-change (2. order) : 0.1369037E-04  (-0.1246488E-04)
 number of electron     352.0000039 magnetization 
 augmentation part      115.6396230 magnetization 

 Broyden mixing:
  rms(total) = 0.40538E-02    rms(broyden)= 0.40519E-02
  rms(prec ) = 0.53696E-02
  weight for this iteration     100.00

 eigenvalues of (default mixing * dielectric matrix)
  average eigenvalue GAMMA=   0.8607
  2.6552  2.5566  1.6428  1.6428  0.7865  0.7865  0.6875  0.6875  0.6421  0.4837
  0.3709  0.3709  0.2947  0.2799  0.2639  0.2367  0.2434

 Free energy of the ion-electron system (eV)
  ---------------------------------------------------
  alpha Z        PSCENC =      1313.13231116
  Ewald energy   TEWEN  =    -20443.98817555
  -Hartree energ DENC   =    -11647.39530296
  -exchange      EXHF   =         0.00000000
  -V(xc)+E(xc)   XCENC  =      1437.93581155
  PAW double counting   =     45259.61117989   -46507.30961429
  entropy T*S    EENTRO =        -0.00000018
  eigenvalues    EBANDS =      -666.48632064
  atomic energy  EATOM  =     31013.67235384
  Solvation  Ediel_sol  =         0.00000000
  ---------------------------------------------------
  free energy    TOTEN  =      -240.82775719 eV

  energy without entropy =     -240.82775701  energy(sigma->0) =     -240.82775710


--------------------------------------------------------------------------------------------------------




--------------------------------------- Iteration      1(  23)  ---------------------------------------


    POTLOK:  cpu time    0.0448: real time    0.0449
    SETDIJ:  cpu time    0.0066: real time    0.0066
     EDDAV:  cpu time   29.8039: real time   29.8744
    --------------------------------------------
      LOOP:  cpu time   29.8569: real time   29.9275

 eigenvalue-minimisations  : 16576
 total energy-change (2. order) : 0.8434243E-05  (-0.4286652E-05)
 number of electron     352.0000039 magnetization 
 augmentation part      115.6396230 magnetization 

 Free energy of the ion-electron system (eV)
  ---------------------------------------------------
  alpha Z        PSCENC =      1313.13231116
  Ewald energy   TEWEN  =    -20443.98817555
  -Hartree energ DENC   =    -11647.46961488
  -exchange      EXHF   =         0.00000000
  -V(xc)+E(xc)   XCENC  =      1437.94243580
  PAW double counting   =     45259.96474547   -46507.68709190
  entropy T*S    EENTRO =        -0.00000018
  eigenvalues    EBANDS =      -666.39471251
  atomic energy  EATOM  =     31013.67235384
  Solvation  Ediel_sol  =         0.00000000
  ---------------------------------------------------
  free energy    TOTEN  =      -240.82774875 eV

  energy without entropy =     -240.82774857  energy(sigma->0) =     -240.82774866


--------------------------------------------------------------------------------------------------------




 average (electrostatic) potential at core
  the test charge radii are     0.9791  0.7215
  (the norm of the test charge is              1.0000)
       1 -88.0825       2 -88.5871       3 -86.8648       4 -88.3105       5 -88.2207
       6 -86.9179       7 -88.4159       8 -88.4150       9 -86.8479      10 -88.4267
      11 -88.1817      12 -88.4145      13 -88.4051      14 -88.5945      15 -88.1556
      16 -86.8851      17 -70.5617      18 -69.4759      19 -72.3098      20 -72.3121
      21 -69.8957      22 -72.4211      23 -69.6752      24 -70.3112      25 -69.5979
      26 -69.5704      27 -69.8781      28 -72.0219      29 -73.0265      30 -72.3079
      31 -69.4921      32 -69.6494      33 -69.7184      34 -70.3457      35 -72.2874
      36 -72.3187      37 -72.8417      38 -69.9080      39 -70.4268      40 -69.5140
      41 -69.4824      42 -69.5350      43 -71.9366      44 -69.8853      45 -71.9540
      46 -72.4630      47 -69.5405      48 -69.6280
 
 
 
 E-fermi :   5.2312     XC(G=0): -12.0120     alpha+bet :-12.6071


 k-point     1 :       0.0000    0.0000    0.0000
  band No.  band energies     occupation 
      1     -19.2539      2.00000
      2     -19.0845      2.00000
      3     -18.6478      2.00000
      4     -17.2777      2.00000
      5     -16.8418      2.00000
      6     -16.7573      2.00000
      7     -16.0602      2.00000
      8     -15.9041      2.00000
      9     -15.8581      2.00000
     10     -15.8118      2.00000
     11     -15.4639      2.00000
     12     -15.3967      2.00000
     13     -14.2302      2.00000
     14     -14.0052      2.00000
     15     -13.8631      2.00000
     16     -13.7721      2.00000
     17     -13.6968      2.00000
     18     -12.9052      2.00000
     19     -12.8528      2.00000
     20     -12.7085      2.00000
     21     -12.6511      2.00000
     22     -12.5083      2.00000
     23     -12.4591      2.00000
     24     -12.4164      2.00000
     25     -12.3442      2.00000
     26     -12.3229      2.00000
     27     -12.3220      2.00000
     28     -12.3162      2.00000
     29     -12.2926      2.00000
     30     -12.1981      2.00000
     31     -12.1721      2.00000
     32     -12.1207      2.00000
     33      -5.9296      2.00000
     34      -5.6306      2.00000
     35      -5.2632      2.00000
     36      -5.0204      2.00000
     37      -4.9746      2.00000
     38      -4.8428      2.00000
     39      -4.7576      2.00000
     40      -4.4159      2.00000
     41      -4.3446      2.00000
     42      -4.3014      2.00000
     43      -4.2465      2.00000
     44      -4.0980      2.00000
     45      -4.0037      2.00000
     46      -3.8478      2.00000
     47      -3.7284      2.00000
     48      -3.6462      2.00000
     49      -3.6022      2.00000
     50      -3.5675      2.00000
     51      -3.3523      2.00000
     52      -3.2975      2.00000
     53      -3.2401      2.00000
     54      -3.1003      2.00000
     55      -2.9586      2.00000
     56      -2.8862      2.00000
     57      -2.5354      2.00000
     58      -2.4184      2.00000
     59      -2.3478      2.00000
     60      -2.2434      2.00000
     61      -2.1003      2.00000
     62      -2.0588      2.00000
     63      -1.5322      2.00000
     64      -1.5291      2.00000
     65      -1.4540      2.00000
     66      -1.2160      2.00000
     67      -1.0902      2.00000
     68      -1.0763      2.00000
     69      -1.0567      2.00000
     70      -1.0006      2.00000
     71      -0.9660      2.00000
[...]
 total augmentation occupancy for first ion, spin component:           1
 10.618   0.610  -0.752   0.271  -0.352  -7.916  -0.675   0.902  -0.355   0.149  -0.866   0.232   0.507   0.034   0.241  -0.157
  0.610  10.730   0.128   0.355  -0.904  -0.675  -7.999  -0.455  -0.421   0.925  -0.978   0.261   0.456   0.311   0.035  -0.152
 -0.752   0.128  11.684   0.838  -1.492   0.869  -0.432 -13.349  -0.935   2.226  -1.274   0.342  -0.002   1.522  -0.713   0.015
  0.271   0.355   0.838  14.209   1.388  -0.361  -0.427  -0.977 -11.495  -1.621  -1.683   0.526   0.025   0.785   0.734   0.000
 -0.352  -0.904  -1.492   1.388  10.165   0.151   0.890   2.229  -1.550 -10.990  -2.247   0.586  -0.041   0.109   1.472   0.032
 -7.916  -0.675   0.869  -0.361   0.151   7.215   0.737  -1.008   0.434   0.022   0.861  -0.231  -0.464  -0.033  -0.227   0.106
 -0.675  -7.999  -0.432  -0.427   0.890   0.737   7.277   0.717   0.485  -0.919   0.972  -0.259  -0.413  -0.298  -0.033   0.099
  0.902  -0.455 -13.349  -0.977   2.229  -1.008   0.717  16.361   1.065  -2.945   1.386  -0.364  -0.024  -1.599   0.764  -0.005
 -0.355  -0.421  -0.935 -11.495  -1.550   0.434   0.485   1.065  10.782   1.767   1.649  -0.509  -0.027  -0.732  -0.682  -0.000
  0.149   0.925   2.226  -1.621 -10.990   0.022  -0.919  -2.945   1.767  13.190   2.433  -0.618   0.001  -0.103  -1.544  -0.016
 -0.866  -0.978  -1.274  -1.683  -2.247   0.861   0.972   1.386   1.649   2.433   4.988  -1.253  -0.072  -0.576  -0.624   0.020
  0.232   0.261   0.342   0.526   0.586  -0.231  -0.259  -0.364  -0.509  -0.618  -1.253   0.417   0.038   0.178   0.190  -0.013
  0.507   0.456  -0.002   0.025  -0.041  -0.464  -0.413  -0.024  -0.027   0.001  -0.072   0.038   0.653   0.075   0.067  -0.119
  0.034   0.311   1.522   0.785   0.109  -0.033  -0.298  -1.599  -0.732  -0.103  -0.576   0.178   0.075   1.076   0.110  -0.015
  0.241   0.035  -0.713   0.734   1.472  -0.227  -0.033   0.764  -0.682  -1.544  -0.624   0.190   0.067   0.110   1.060  -0.014
 -0.157  -0.152   0.015   0.000   0.032   0.106   0.099  -0.005  -0.000  -0.016   0.020  -0.013  -0.119  -0.015  -0.014   0.031
  0.001  -0.065  -0.206  -0.221  -0.046  -0.001   0.045   0.162   0.165   0.038   0.103  -0.052  -0.016  -0.170  -0.027   0.007
 -0.059  -0.000   0.068  -0.212  -0.214   0.038  -0.001  -0.052   0.156   0.169   0.111  -0.056  -0.015  -0.028  -0.165   0.006


------------------------ aborting loop because EDIFF is reached ----------------------------------------


    CHARGE:  cpu time    0.8701: real time    0.8722
    FORLOC:  cpu time    0.0185: real time    0.0185
    FORNL :  cpu time    9.0286: real time    9.0499
    STRESS:  cpu time   26.9344: real time   26.9983
    FORCOR:  cpu time    0.0614: real time    0.0615
    FORHAR:  cpu time    0.0299: real time    0.0300
    MIXING:  cpu time    0.0029: real time    0.0029
    OFIELD:  cpu time    0.0001: real time    0.0001

  FORCE on cell =-STRESS in cart. coord.  units (eV):
  Direction    XX          YY          ZZ          XY          YZ          ZX
  --------------------------------------------------------------------------------------
  Alpha Z  1313.13231  1313.13231  1313.13231
  Ewald   -6824.44622 -6845.72863 -6773.93566   -46.80477   -52.09172   -72.11797
  Hartree  3901.91028  3852.74357  3892.69886   -27.34965   -21.07419   -38.62468
  E(xc)   -1834.30780 -1834.54486 -1834.52542     0.00542     0.06680     0.04300
  Local   -4215.22667 -4131.48905 -4245.71944    70.62906    67.17436   105.04616
  n-local  -627.79572  -620.27773  -621.41537    -0.79474    -1.63363    -1.72648
  augment  2969.27592  2963.39334  2964.65746     1.97486     2.29470     2.11860
  Kinetic  5550.06855  5551.18252  5550.66498     1.98416     1.52965     2.39907
  Fock        0.00000     0.00000     0.00000     0.00000     0.00000     0.00000
  -------------------------------------------------------------------------------------
  Total      232.6106467    248.4114702    245.5577284     -0.3556581     -3.7340250     -2.8622991
  in kB      892.8835718    953.5355495    942.5813682     -1.3652053    -14.3331771    -10.9870286
  external PRESSURE =     929.6668298 kB  Pullay stress =       0.0000000 kB


 VOLUME and BASIS-vectors are now :
 -----------------------------------------------------------------------------
  energy-cutoff  :      500.00
  volume of cell :      417.39
      direct lattice vectors                 reciprocal lattice vectors
     7.473346400  0.000000000  0.000000000     0.133808865  0.000000000  0.000000000
     0.000000000  7.473346400  0.000000000     0.000000000  0.133808865  0.000000000
     0.000000000  0.000000000  7.473346400     0.000000000  0.000000000  0.133808865

  length of vectors
     7.473346400  7.473346400  7.473346400     0.133808865  0.133808865  0.133808865


 FORCES acting on ions
    electron-ion (+dipol)            ewald-force                    non-local-force                 convergence-correction
 -----------------------------------------------------------------------------------------------
   -.289E+03 -.311E+02 -.277E+03   0.308E+03 0.373E+02 0.296E+03   -.520E+01 -.341E+01 -.514E+01   0.143E-01 -.105E-01 0.700E-02
   0.808E+02 0.358E+03 -.365E+03   -.901E+02 -.387E+03 0.396E+03   0.390E+01 0.555E+01 -.695E+01   -.126E-02 0.943E-04 0.115E-02
   -.661E+02 0.478E+02 -.596E+02   0.658E+02 -.473E+02 0.590E+02   -.157E+00 -.260E+00 0.735E-01   0.203E-02 0.447E-02 -.414E-02
   -.312E+03 0.329E+03 0.317E+02   0.334E+03 -.356E+03 -.390E+02   -.530E+01 0.563E+01 0.329E+01   0.111E-01 -.293E-02 0.487E-02
   -.296E+03 -.290E+03 -.202E+02   0.317E+03 0.313E+03 0.266E+02   -.533E+01 -.499E+01 -.358E+01   0.738E-02 0.575E-02 0.196E-02
   -.649E+02 -.730E+02 0.665E+02   0.647E+02 0.728E+02 -.662E+02   0.309E-01 -.568E+00 -.322E-01   0.785E-03 -.651E-02 0.769E-02
   0.409E+02 -.315E+03 0.317E+03   -.485E+02 0.345E+03 -.339E+03   0.379E+01 -.565E+01 0.649E+01   -.161E-02 0.486E-02 -.338E-02
   -.329E+03 0.299E+02 0.309E+03   0.356E+03 -.369E+02 -.333E+03   -.652E+01 0.324E+01 0.614E+01   0.707E-02 -.375E-02 -.193E-03
   0.665E+02 0.572E+02 0.732E+02   -.668E+02 -.565E+02 -.729E+02   -.638E+00 0.321E+00 0.872E-01   0.468E-02 0.124E-02 0.904E-03
   0.314E+03 0.310E+03 -.183E+02   -.339E+03 -.335E+03 0.253E+02   0.555E+01 0.467E+01 -.401E+01   -.680E-02 -.503E-02 -.375E-02
   0.304E+03 -.476E+02 0.283E+03   -.326E+03 0.552E+02 -.304E+03   0.504E+01 -.387E+01 0.520E+01   -.922E-02 -.119E-01 -.150E-01
   -.488E+02 0.353E+03 0.326E+03   0.573E+02 -.379E+03 -.352E+03   -.356E+01 0.640E+01 0.591E+01   -.122E-01 -.543E-02 -.100E-01
   -.155E+02 -.314E+03 -.294E+03   0.215E+02 0.337E+03 0.317E+03   -.359E+01 -.583E+01 -.512E+01   -.116E-01 0.110E-01 0.562E-02
   0.332E+03 0.281E+02 -.329E+03   -.360E+03 -.358E+02 0.360E+03   0.628E+01 0.387E+01 -.585E+01   -.553E-02 0.150E-02 0.110E-01
   0.273E+03 -.272E+03 0.177E+02   -.293E+03 0.291E+03 -.237E+02   0.527E+01 -.536E+01 0.314E+01   -.754E-02 0.166E-01 0.801E-02
   0.619E+02 -.791E+02 -.740E+02   -.616E+02 0.796E+02 0.738E+02   0.241E+00 0.174E+00 -.122E+00   0.858E-02 -.126E-02 -.227E-02
   -.151E+03 0.138E+03 0.118E+03   0.169E+03 -.155E+03 -.133E+03   -.167E+02 0.164E+02 0.145E+02   0.668E-03 0.148E-01 0.280E-02
   -.245E+03 -.128E+03 -.254E+03   0.260E+03 0.143E+03 0.269E+03   -.152E+02 -.151E+02 -.147E+02   0.326E-02 -.638E-02 -.102E-02
   0.170E+03 -.437E+03 -.401E+03   -.182E+03 0.484E+03 0.437E+03   0.131E+02 -.268E+02 -.242E+02   -.254E-02 0.253E-02 -.689E-02
   -.392E+03 -.404E+03 0.160E+03   0.428E+03 0.447E+03 -.173E+03   -.237E+02 -.247E+02 0.132E+02   0.116E-02 0.705E-02 0.454E-02
   0.168E+03 0.165E+03 0.166E+03   -.184E+03 -.180E+03 -.182E+03   0.161E+02 0.154E+02 0.157E+02   0.541E-02 0.437E-02 0.111E-02
   -.419E+03 0.150E+03 -.417E+03   0.463E+03 -.160E+03 0.458E+03   -.247E+02 0.117E+02 -.251E+02   -.480E-02 -.397E-02 -.461E-02
   0.256E+03 0.147E+03 -.261E+03   -.272E+03 -.164E+03 0.278E+03   0.164E+02 0.169E+02 -.155E+02   -.733E-03 0.797E-02 0.339E-02
   0.121E+03 -.124E+03 0.120E+03   -.135E+03 0.139E+03 -.134E+03   0.147E+02 -.149E+02 0.143E+02   0.988E-02 -.267E-03 0.203E-03
   -.137E+03 0.236E+03 0.269E+03   0.154E+03 -.251E+03 -.286E+03   -.167E+02 0.144E+02 0.167E+02   -.814E-02 0.305E-03 -.344E-02
   -.261E+03 -.256E+03 -.142E+03   0.278E+03 0.271E+03 0.158E+03   -.157E+02 -.146E+02 -.162E+02   -.469E-02 -.528E-02 -.199E-02
   0.153E+03 -.180E+03 -.169E+03   -.167E+03 0.197E+03 0.185E+03   0.145E+02 -.165E+02 -.155E+02   0.528E-02 -.159E-02 -.448E-02
   -.406E+03 -.171E+03 0.384E+03   0.446E+03 0.184E+03 -.420E+03   -.243E+02 -.132E+02 0.237E+02   0.899E-02 -.894E-02 -.280E-02
   0.180E+03 0.430E+03 0.414E+03   -.193E+03 -.476E+03 -.458E+03   0.137E+02 0.256E+02 0.239E+02   -.237E-02 0.791E-02 -.356E-02
   -.408E+03 0.408E+03 -.149E+03   0.448E+03 -.447E+03 0.161E+03   -.244E+02 0.255E+02 -.129E+02   -.483E-03 0.366E-02 0.258E-02
   0.250E+03 0.262E+03 -.133E+03   -.265E+03 -.279E+03 0.148E+03   0.154E+02 0.159E+02 -.155E+02   -.375E-02 -.231E-02 -.772E-02
   0.138E+03 -.247E+03 0.266E+03   -.153E+03 0.263E+03 -.283E+03   0.156E+02 -.154E+02 0.162E+02   0.260E-02 -.317E-02 0.603E-02
   -.250E+03 0.135E+03 0.271E+03   0.266E+03 -.149E+03 -.290E+03   -.159E+02 0.140E+02 0.173E+02   -.128E-02 0.268E-02 0.616E-02
   -.125E+03 -.113E+03 -.144E+03   0.139E+03 0.127E+03 0.162E+03   -.136E+02 -.145E+02 -.170E+02   -.204E-02 0.491E-03 -.107E-01
   0.389E+03 -.414E+03 -.143E+03   -.425E+03 0.456E+03 0.153E+03   0.241E+02 -.257E+02 -.114E+02   0.114E-02 0.141E-03 -.169E-03
   -.163E+03 -.417E+03 0.410E+03   0.176E+03 0.458E+03 -.451E+03   -.137E+02 -.242E+02 0.251E+02   -.916E-02 0.443E-02 -.532E-02
   0.410E+03 0.143E+03 0.423E+03   -.452E+03 -.152E+03 -.471E+03   0.239E+02 0.109E+02 0.254E+02   0.483E-02 -.632E-02 0.590E-02
   -.162E+03 0.163E+03 -.161E+03   0.177E+03 -.179E+03 0.176E+03   -.151E+02 0.162E+02 -.157E+02   -.547E-03 0.355E-02 -.363E-02
   0.127E+03 0.132E+03 -.131E+03   -.142E+03 -.147E+03 0.147E+03   0.150E+02 0.147E+02 -.159E+02   0.963E-02 0.891E-02 -.430E-02
   0.254E+03 -.115E+03 0.270E+03   -.270E+03 0.129E+03 -.287E+03   0.158E+02 -.144E+02 0.162E+02   0.936E-03 -.527E-02 -.149E-02
   -.257E+03 0.238E+03 0.136E+03   0.274E+03 -.253E+03 -.152E+03   -.160E+02 0.149E+02 0.154E+02   0.717E-03 0.123E-03 0.649E-02
   -.134E+03 -.275E+03 -.249E+03   0.149E+03 0.294E+03 0.264E+03   -.158E+02 -.176E+02 -.145E+02   -.621E-02 0.839E-03 -.522E-02
   0.395E+03 -.163E+03 -.404E+03   -.432E+03 0.175E+03 0.443E+03   0.241E+02 -.124E+02 -.247E+02   -.209E-02 -.128E-01 0.732E-02
   -.169E+03 -.169E+03 0.167E+03   0.185E+03 0.184E+03 -.183E+03   -.156E+02 -.154E+02 0.158E+02   -.455E-02 -.516E-02 0.473E-02
   0.399E+03 0.403E+03 0.157E+03   -.438E+03 -.440E+03 -.168E+03   0.242E+02 0.243E+02 0.124E+02   -.527E-02 0.718E-03 0.780E-02
   -.174E+03 0.412E+03 -.425E+03   0.188E+03 -.451E+03 0.468E+03   -.144E+02 0.247E+02 -.253E+02   -.805E-02 -.284E-02 0.190E-02
   0.135E+03 0.239E+03 -.265E+03   -.150E+03 -.255E+03 0.282E+03   0.155E+02 0.155E+02 -.162E+02   0.766E-02 -.338E-02 -.310E-03
   0.260E+03 -.272E+03 0.130E+03   -.276E+03 0.289E+03 -.145E+03   0.159E+02 -.169E+02 0.146E+02   0.537E-02 0.259E-02 0.554E-02
 -----------------------------------------------------------------------------------------------
   0.371E+01 0.550E+01 0.764E-01   -.114E-12 -.171E-12 0.114E-12   -.369E+01 -.550E+01 -.988E-01   0.991E-03 0.362E-02 0.836E-02
 
 
 POSITION                                       TOTAL-FORCE (eV/Angst)
 -----------------------------------------------------------------------------------
      1.01862      4.92468      1.00291        14.421427      2.836029     13.820729
      2.99482      6.92070      0.96379        -5.385571    -23.973401     24.494677
      2.96901      4.91365      2.94794        -0.528092      0.210104     -0.504505
      0.99155      6.88623      2.97909        17.274892    -20.534922     -4.047579
      0.99856      0.98577      4.92555        15.417594     17.364674      2.889337
      2.95668      2.97989      4.91257        -0.195734     -0.826538      0.247212
      2.95627      0.96625      6.83229        -3.818485     24.033556    -15.365816
      0.99641      2.96729      6.86850        20.893699     -3.784534    -18.243028
      4.96207      4.88759      4.91759        -0.970971      1.035808      0.301393
      6.87960      6.91400      4.94606       -19.472327    -20.032652      2.928998
      6.88644      4.92424      6.86559       -17.290010      3.758030    -15.473753
      4.87706      6.87639      6.88647         4.943181    -19.808415    -20.211479
      4.94128      1.00738      0.97559         2.360694     17.832457     17.845264
      6.87730      2.92903      0.95493       -22.177118     -3.832651     25.166497
      6.84922      1.02235      2.93981       -14.211204     14.256766     -2.857716
      4.90791      2.92495      2.96555         0.510544      0.654630     -0.351158
      6.74057      1.08958      1.07592         1.187577     -0.562396     -0.308084
      2.84724      6.76263      2.81589         0.423699     -0.147392      0.705889
      3.05994      0.88140      0.87417         0.958322     20.182209     12.200875
      0.87889      0.86015      3.05325        12.416751     17.694673      1.039466
      3.04705      3.05331      3.04424         0.227385      0.023970      0.288228
      0.83831      3.06405      0.86480        19.368980      1.352039     15.970589
      4.99457      1.10309      2.82136        -0.102027      0.062470      0.576719
      1.09487      6.78743      1.09641         0.094519      0.254136     -0.190824
      6.79564      5.00248      5.03522        -0.230610      0.202464     -0.537339
      2.82581      2.82209      6.76127         0.778515      0.543976     -0.294550
      3.05427      4.80730      4.78287         0.521747      0.235490      0.366327
      0.89085      4.81549      6.96312        14.953839     -0.543620    -11.882667
      3.09027      7.03176      7.01742         0.970896    -20.594356    -19.662338
      0.86924      6.97243      4.82727        16.004206    -13.953970     -0.958819
      5.01911      5.05162      6.77701        -0.154010     -1.001704     -0.377362
      1.11337      2.84663      5.04130        -0.032982      0.289496     -0.844849
      2.83972      1.12955      5.02971         0.446860     -0.284889     -0.974098
      6.78089      6.81051      6.74589         0.056365     -0.067296      1.045983
      6.96843      0.89222      4.78271       -12.363257     16.895019     -1.214997
      4.84505      0.86456      6.97889        -0.787117     16.835684    -15.521509
      7.03230      3.09011      7.03119       -17.848227      2.053795    -22.237859
      4.82430      3.04328      4.84438        -0.172264     -0.020921     -0.409091
      1.08847      1.10988      6.79179        -0.325940     -0.662201      0.079669
      5.02407      6.78513      5.04562        -0.348685     -0.701998     -0.674652
      2.84704      5.00519      1.09980         0.735351      0.204151      0.042157
      6.79937      2.82562      2.83651        -0.932928      0.797561      0.224778
      6.98514      4.84316      0.88628       -12.575334     -0.665813     13.571083
      4.81433      4.79078      3.07129         0.276222     -0.186164     -0.073121
      6.98036      6.99448      3.04779       -14.732024    -13.177840      0.914699
      4.81971      7.00538      0.86867        -0.428401    -14.713822     17.272041
      1.10175      5.00531      2.80968         0.475211      0.041406      1.102536
      5.03596      2.84284      1.10653        -0.635157      0.426903      0.122048
 -----------------------------------------------------------------------------------
    total drift:                                0.023606      0.003278     -0.014066


--------------------------------------------------------------------------------------------------------



  FREE ENERGIE OF THE ION-ELECTRON SYSTEM (eV)
  ---------------------------------------------------
  free  energy   TOTEN  =      -240.8277487519 eV

  energy  without entropy=     -240.8277485708  energy(sigma->0) =     -240.82774866
 


--------------------------------------------------------------------------------------------------------


    POTLOK:  cpu time    0.0498: real time    0.0500


--------------------------------------------------------------------------------------------------------


     LOOP+:  cpu time  845.4011: real time  847.6239
    4ORBIT:  cpu time    0.0000: real time    0.0000

volume of typ            1:    24.4 %

volume of typ            2:    12.5 %
 
total charge     
 
# of ion       s       p       d       tot
------------------------------------------
    1        0.423   0.708   8.035   9.167
    2        0.469   0.782   8.139   9.390
    3        0.309   0.432   7.815   8.556
    4        0.444   0.733   8.080   9.257
    5        0.426   0.702   8.056   9.184
    6        0.308   0.432   7.818   8.558
    7        0.447   0.751   8.096   9.294
    8        0.452   0.767   8.097   9.315
    9        0.302   0.415   7.813   8.530
   10        0.454   0.749   8.088   9.290
   11        0.435   0.721   8.065   9.221
   12        0.457   0.775   8.109   9.341
   13        0.447   0.750   8.081   9.278
   14        0.473   0.792   8.135   9.400
   15        0.424   0.709   8.045   9.179
   16        0.303   0.419   7.815   8.537
   17        1.294   2.748   0.010   4.051
   18        1.276   2.764   0.008   4.048
   19        1.294   2.977   0.036   4.307
   20        1.292   2.967   0.035   4.295
   21        1.283   2.729   0.008   4.020
   22        1.293   2.998   0.039   4.330
   23        1.279   2.767   0.009   4.054
   24        1.296   2.722   0.008   4.025
   25        1.279   2.757   0.008   4.045
   26        1.278   2.768   0.008   4.053
   27        1.282   2.736   0.008   4.026
   28        1.289   2.959   0.033   4.281
   29        1.296   3.039   0.046   4.381
   30        1.291   2.975   0.036   4.302
   31        1.276   2.766   0.008   4.051
   32        1.278   2.765   0.008   4.051
   33        1.276   2.773   0.009   4.058
   34        1.295   2.735   0.009   4.039
   35        1.291   2.970   0.035   4.296
   36        1.294   2.981   0.037   4.311
   37        1.295   3.028   0.045   4.368
   38        1.282   2.730   0.008   4.020
   39        1.295   2.733   0.008   4.036
   40        1.278   2.757   0.008   4.043
   41        1.278   2.757   0.008   4.043
   42        1.279   2.761   0.008   4.048
   43        1.292   2.943   0.031   4.267
   44        1.282   2.735   0.008   4.025
   45        1.291   2.957   0.032   4.280
   46        1.293   2.989   0.038   4.319
   47        1.279   2.761   0.008   4.048
   48        1.278   2.766   0.008   4.052
--------------------------------------------------
tot          47.73  101.45  128.89  278.07
 

 total amount of memory used by VASP MPI-rank0   160463. kBytes
=======================================================================

   base      :      30000. kBytes
   nonlr-proj:      23621. kBytes
   fftplans  :       3726. kBytes
   grid      :      12054. kBytes
   one-center:        746. kBytes
   wavefun   :      90316. kBytes
 
  
  
 General timing and accounting informations for this job:
 ========================================================
  
                  Total CPU time used (sec):      869.045
                            User time (sec):      866.771
                          System time (sec):        2.275
                         Elapsed time (sec):      874.591
  
                   Maximum memory used (kb):      207008.
                   Average memory used (kb):           0.
  
                          Minor page faults:        35110
                          Major page faults:           49
                 Voluntary context switches:         1211
