 vasp.5.4.4.18Apr17-6-g9f103f2a35 (build May 12 2020 04:58:55) complex          
  
 MD_VERSION_INFO: Compiled 2020-05-12T11:58:55-UTC in devlin.sd.materialsdesign.
 com:/home/medea2/data/build/wwolf/vasp-gpu5.4.4/13047/x86_64/src/src/build/std 
 from svn 13047
 
 This VASP executable licensed from Materials Design, Inc.
 
 executed on                        Lin64 date 2023.04.27  07:57:03
 running on   16 total cores
 distrk:  each k-point on   16 cores,    1 groups
 distr:  one band on NCORES_PER_BAND=   1 cores,   16 groups


--------------------------------------------------------------------------------------------------------


 INCAR:
 POTCAR:    PAW_PBE Ni 02Aug2007                  
 POTCAR:    PAW_PBE O 08Apr2002                   

 ----------------------------------------------------------------------------- 
|                                                                             |
|           W    W    AA    RRRRR   N    N  II  N    N   GGGG   !!!           |
|           W    W   A  A   R    R  NN   N  II  NN   N  G    G  !!!           |
|           W    W  A    A  R    R  N N  N  II  N N  N  G       !!!           |
|           W WW W  AAAAAA  RRRRR   N  N N  II  N  N N  G  GGG   !            |
|           WW  WW  A    A  R   R   N   NN  II  N   NN  G    G                |
|           W    W  A    A  R    R  N    N  II  N    N   GGGG   !!!           |
|                                                                             |
|      For optimal performance we recommend to set                            |
|        NCORE= 4 - approx SQRT( number of cores)                             |
|      NCORE specifies how many cores store one orbital (NPAR=cpu/NCORE).     |
|      This setting can  greatly improve the performance of VASP for DFT.     |
|      The default,   NCORE=1            might be grossly inefficient         |
|      on modern multi-core architectures or massively parallel machines.     |
|      Do your own testing !!!!                                               |
|      Unfortunately you need to use the default for GW and RPA calculations. |
|      (for HF NCORE is supported but not extensively tested yet)             |
|                                                                             |
 ----------------------------------------------------------------------------- 

 POTCAR:    PAW_PBE Ni 02Aug2007                  
  local pseudopotential read in
  partial core-charges read in
  partial kinetic energy density read in
  atomic valenz-charges read in
  non local Contribution for L=           2  read in
    real space projection operators read in
  non local Contribution for L=           2  read in
    real space projection operators read in
  non local Contribution for L=           0  read in
    real space projection operators read in
  non local Contribution for L=           0  read in
    real space projection operators read in
  non local Contribution for L=           1  read in
    real space projection operators read in
  non local Contribution for L=           1  read in
    real space projection operators read in
    PAW grid and wavefunctions read in
 
   number of l-projection  operators is LMAX  =           6
   number of lm-projection operators is LMMAX =          18
 
 POTCAR:    PAW_PBE O 08Apr2002                   
  local pseudopotential read in
  partial core-charges read in
  partial kinetic energy density read in
  kinetic energy density of atom read in
  atomic valenz-charges read in
  non local Contribution for L=           0  read in
    real space projection operators read in
  non local Contribution for L=           0  read in
    real space projection operators read in
  non local Contribution for L=           1  read in
    real space projection operators read in
  non local Contribution for L=           1  read in
    real space projection operators read in
    PAW grid and wavefunctions read in
 
   number of l-projection  operators is LMAX  =           4
   number of lm-projection operators is LMMAX =           8
 
 Optimization of the real space projectors (new method)

 maximal supplied QI-value         = 16.25
 optimisation between [QCUT,QGAM] = [ 11.38, 22.75] = [ 36.24,144.96] Ry 
 Optimized for a Real-space Cutoff    1.47 Angstroem

   l    n(q)    QCUT    max X(q) W(low)/X(q) W(high)/X(q)  e(spline) 
   2      9    11.376    60.317    0.17E-03    0.16E-04    0.16E-06
   2      9    11.376    55.921    0.17E-03    0.16E-04    0.17E-06
   0     10    11.376    51.690    0.45E-04    0.60E-04    0.21E-06
   0     10    11.376    30.015    0.37E-04    0.55E-04    0.19E-06
   1     10    11.376    18.849    0.83E-04    0.11E-03    0.92E-07
   1     10    11.376    14.624    0.69E-04    0.92E-04    0.82E-07
 Optimization of the real space projectors (new method)

 maximal supplied QI-value         = 24.76
 optimisation between [QCUT,QGAM] = [ 11.39, 22.77] = [ 36.31,145.25] Ry 
 Optimized for a Real-space Cutoff    1.10 Angstroem

   l    n(q)    QCUT    max X(q) W(low)/X(q) W(high)/X(q)  e(spline) 
   0      7    11.387    20.381    0.22E-03    0.48E-03    0.18E-06
   0      7    11.387    15.268    0.22E-03    0.52E-03    0.19E-06
   1      7    11.387     5.964    0.22E-03    0.73E-03    0.24E-06
   1      7    11.387     5.382    0.19E-03    0.60E-03    0.21E-06

 ----------------------------------------------------------------------------- 
|                                                                             |
|  ADVICE TO THIS USER RUNNING 'VASP/VAMP'   (HEAR YOUR MASTER'S VOICE ...):  |
|                                                                             |
|      You enforced a specific xc-type in the INCAR file,                     |
|      a different type was found on the POTCAR file                          |
|          I HOPE YOU KNOW, WHAT YOU ARE  DOING                               |
|                                                                             |
 ----------------------------------------------------------------------------- 

  PAW_PBE Ni 02Aug2007                  :
 energy of atom  1       EATOM=-1077.6739
 kinetic energy error for atom=    0.0030 (will be added to EATOM!!)
  PAW_PBE O 08Apr2002                   :
 energy of atom  2       EATOM= -432.3788
 kinetic energy error for atom=    0.0224 (will be added to EATOM!!)
 
 
 POSCAR: NiO2_C2_m_scale_1_025_disp_0_12_round_1 
  positions in direct lattice
  No initial velocities read in
 exchange correlation table for  LEXCH =       14
   RHO(1)=    0.500       N(1)  =     2000
   RHO(2)=  100.500       N(2)  =     4000
 


--------------------------------------------------------------------------------------------------------


 ion  position               nearest neighbor table
   1  0.997  0.002  0.003-  19 1.84  22 1.86  51 2.00  27 2.01  46 2.15  54 2.30   9 2.69   3 2.86
                             5 2.99   7 3.01  13 3.05
   2  0.992  0.009  0.475-  20 1.65  44 1.80  21 1.82  29 1.92  52 1.98  53 1.99   4 2.67   8 2.74
                            10 2.87  14 3.00  18 3.05
   3  0.004  0.338  0.984-  23 1.85  19 1.96  50 1.99  46 2.06  26 2.08  43 2.29   5 2.74  11 2.80
                             1 2.86   9 2.97  15 3.05
   4  0.982  0.316  0.475-  44 1.58  24 2.09  48 2.10  25 2.11  45 2.12  21 2.32   2 2.67   6 2.68
                            14 2.83  10 2.86  16 2.90  12 3.08
   5  0.989  0.650  0.987-  30 1.94  50 2.00  54 2.01  27 2.01  47 2.07  23 2.22   3 2.74  15 2.95
                             1 2.99  11 3.00  17 3.03
   6  0.011  0.641  0.506-  25 1.71  29 1.96  48 1.98  49 1.99  28 2.13  52 2.37   4 2.68  12 2.75
                            16 2.76   8 2.83
   7  0.352  0.011  0.976-  34 1.57  31 1.93  39 2.06  22 2.14  30 2.22  27 2.34  15 2.55   9 2.56
                            13 2.57   1 3.01  11 3.02
   8  0.303  0.995  0.469-  20 1.71  29 1.78  33 1.83  32 1.95  41 2.01  28 2.03   2 2.74   6 2.83
                            14 2.84  10 2.89  12 2.97
   9  0.327  0.296  0.003-  31 1.76  19 1.78  35 1.94  22 2.02  38 2.06  26 2.38   7 2.56  15 2.60
                             1 2.69  17 2.76   3 2.97  11 3.02
  10  0.328  0.343  0.470-  24 1.64  36 1.74  37 1.97  21 2.06  33 2.14  20 2.14  18 2.67  12 2.74
                             4 2.86  16 2.86   2 2.87   8 2.89
  11  0.341  0.654  0.992-  35 1.74  39 1.84  42 1.85  23 1.99  30 2.17  26 2.21  17 2.55  13 2.56
                             3 2.80   5 3.00   9 3.02   7 3.02
  12  0.345  0.671  0.476-  28 1.60  40 1.76  24 1.82  41 1.87  37 1.95  25 2.02  18 2.60  14 2.69
                            10 2.74   6 2.75   8 2.97   4 3.08
  13  0.625  0.966  0.990-  39 1.75  42 1.77  34 1.88  51 2.10  46 2.16  43 2.25  11 2.56   7 2.57
                            17 2.86  15 2.93   1 3.05
  14  0.638  0.002  0.489-  32 1.57  41 1.64  45 1.95  44 2.01  53 2.18  40 2.27  12 2.69   4 2.83
                             8 2.84  16 2.89  18 2.99   2 3.00
  15  0.638  0.314  0.012-  31 1.51  47 1.98  43 1.98  34 2.10  38 2.21  50 2.30   7 2.55   9 2.60
                            17 2.80  13 2.93   5 2.95   3 3.05
  16  0.664  0.351  0.499-  49 1.75  48 1.75  36 1.85  45 1.88  33 1.89  32 2.10  18 2.70   6 2.76
                            10 2.86  14 2.89   4 2.90
  17  0.629  0.635  0.006-  35 1.72  51 1.96  38 1.99  42 2.00  47 2.01  54 2.15  11 2.55   9 2.76
                            15 2.80  13 2.86   5 3.03
  18  0.639  0.653  0.493-  37 1.65  53 1.82  36 1.83  40 1.89  52 1.97  49 2.03  12 2.60  10 2.67
                            16 2.70  14 2.99   2 3.05
  19  0.118  0.224  0.089-   9 1.78   1 1.84   3 1.96
  20  0.181  0.076  0.386-   2 1.65   8 1.71  10 2.14
  21  0.118  0.185  0.604-   2 1.82  10 2.06   4 2.32
  22  0.181  0.088  0.871-   1 1.86   9 2.02   7 2.14
  23  0.120  0.527  0.110-   3 1.85  11 1.99   5 2.22
  24  0.242  0.452  0.390-  10 1.64  12 1.82   4 2.09
  25  0.121  0.552  0.598-   6 1.71  12 2.02   4 2.11
  26  0.215  0.428  0.841-   3 2.08  11 2.21   9 2.38
  27  0.091  0.866  0.114-   5 2.01   1 2.01   7 2.34
  28  0.251  0.756  0.383-  12 1.60   8 2.03   6 2.13
  29  0.100  0.889  0.569-   8 1.78   2 1.92   6 1.96
  30  0.197  0.751  0.864-   5 1.94  11 2.17   7 2.22
  31  0.463  0.226  0.092-  15 1.51   9 1.76   7 1.93
  32  0.551  0.096  0.404-  14 1.57   8 1.95  16 2.10
  33  0.434  0.196  0.576-   8 1.83  16 1.89  10 2.14
  34  0.527  0.082  0.885-   7 1.57  13 1.88  15 2.10
  35  0.420  0.533  0.086-  17 1.72  11 1.74   9 1.94
  36  0.542  0.440  0.396-  10 1.74  18 1.83  16 1.85
  37  0.453  0.561  0.589-  18 1.65  12 1.95  10 1.97
  38  0.534  0.439  0.863-  17 1.99   9 2.06  15 2.21
  39  0.432  0.862  0.095-  13 1.75  11 1.84   7 2.06
  40  0.532  0.742  0.365-  12 1.76  18 1.89  14 2.27
  41  0.441  0.894  0.567-  14 1.64  12 1.87   8 2.01
  42  0.548  0.771  0.883-  13 1.77  11 1.85  17 2.00
  43  0.757  0.211  0.128-  15 1.98  13 2.25   3 2.29
  44  0.885  0.126  0.401-   4 1.58   2 1.80  14 2.01
  45  0.749  0.222  0.603-  16 1.88  14 1.95   4 2.12
  46  0.870  0.105  0.867-   3 2.06   1 2.15  13 2.16
  47  0.765  0.543  0.117-  15 1.98  17 2.01   5 2.07
  48  0.848  0.438  0.382-  16 1.75   6 1.98   4 2.10
  49  0.772  0.549  0.597-  16 1.75   6 1.99  18 2.03
  50  0.882  0.433  0.862-   3 1.99   5 2.00  15 2.30
  51  0.763  0.865  0.106-  17 1.96   1 2.00  13 2.10
  52  0.863  0.770  0.383-  18 1.97   2 1.98   6 2.37
  53  0.767  0.866  0.586-  18 1.82   2 1.99  14 2.18
  54  0.860  0.744  0.869-   5 2.01  17 2.15   1 2.30
 
  LATTYP: Found a hexagonal cell.
 ALAT       =     8.5719417516
 C/A-ratio  =     1.1065328049
  
  Lattice vectors:
  
 A1 = (   8.5719417500,   0.0000000000,   0.0000000000)
 A2 = (  -4.2859708800,   7.4235193200,   0.0000000000)
 A3 = (   0.0000000000,   0.0000000000,   9.4851347500)


Analysis of symmetry for initial positions (statically):
=====================================================================
 Subroutine PRICEL returns:
 Original cell was already a primitive cell.
 

 Routine SETGRP: Setting up the symmetry group for a 
 hexagonal supercell.


 Subroutine GETGRP returns: Found  1 space group operations
 (whereof  1 operations were pure point group operations)
 out of a pool of 24 trial point group operations.


The static configuration has the point symmetry C_1 .


Analysis of symmetry for dynamics (positions and initial velocities):
=====================================================================
 Subroutine PRICEL returns:
 Original cell was already a primitive cell.
 

 Routine SETGRP: Setting up the symmetry group for a 
 hexagonal supercell.


 Subroutine GETGRP returns: Found  1 space group operations
 (whereof  1 operations were pure point group operations)
 out of a pool of 24 trial point group operations.


The dynamic configuration has the point symmetry C_1 .


 Subroutine INISYM returns: Found  1 space group operations
 (whereof  1 operations are pure point group operations),
 and found     1 'primitive' translations

 
 
 KPOINTS: Automatic mesh                          

Automatic generation of k-mesh.
Space group operators:
 irot       det(A)        alpha          n_x          n_y          n_z        tau_x        tau_y        tau_z
    1     1.000000     0.000000     1.000000     0.000000     0.000000     0.000000     0.000000     0.000000
 
 Subroutine IBZKPT returns following result:
 ===========================================
 
 Found     26 irreducible k-points:
 
 Following reciprocal coordinates:
            Coordinates               Weight
  0.000000  0.000000  0.000000      1.000000
  0.250000  0.000000  0.000000      2.000000
  0.500000  0.000000  0.000000      1.000000
  0.000000  0.250000  0.000000      2.000000
  0.250000  0.250000  0.000000      2.000000
  0.500000  0.250000  0.000000      2.000000
 -0.250000  0.250000  0.000000      2.000000
  0.000000  0.500000  0.000000      1.000000
  0.250000  0.500000  0.000000      2.000000
  0.500000  0.500000  0.000000      1.000000
  0.000000  0.000000  0.333333      2.000000
  0.250000  0.000000  0.333333      2.000000
  0.500000  0.000000  0.333333      2.000000
 -0.250000  0.000000  0.333333      2.000000
  0.000000  0.250000  0.333333      2.000000
  0.250000  0.250000  0.333333      2.000000
  0.500000  0.250000  0.333333      2.000000
 -0.250000  0.250000  0.333333      2.000000
  0.000000  0.500000  0.333333      2.000000
  0.250000  0.500000  0.333333      2.000000
  0.500000  0.500000  0.333333      2.000000
 -0.250000  0.500000  0.333333      2.000000
  0.000000 -0.250000  0.333333      2.000000
  0.250000 -0.250000  0.333333      2.000000
  0.500000 -0.250000  0.333333      2.000000
 -0.250000 -0.250000  0.333333      2.000000
 
 Following cartesian coordinates:
            Coordinates               Weight
  0.000000  0.000000  0.000000      1.000000
  0.029165  0.016838  0.000000      2.000000
  0.058330  0.033677  0.000000      1.000000
  0.000000  0.033677  0.000000      2.000000
  0.029165  0.050515  0.000000      2.000000
  0.058330  0.067353  0.000000      2.000000
 -0.029165  0.016838  0.000000      2.000000
  0.000000  0.067353  0.000000      1.000000
  0.029165  0.084192  0.000000      2.000000
  0.058330  0.101030  0.000000      1.000000
  0.000000  0.000000  0.035143      2.000000
  0.029165  0.016838  0.035143      2.000000
  0.058330  0.033677  0.035143      2.000000
 -0.029165 -0.016838  0.035143      2.000000
  0.000000  0.033677  0.035143      2.000000
  0.029165  0.050515  0.035143      2.000000
  0.058330  0.067353  0.035143      2.000000
 -0.029165  0.016838  0.035143      2.000000
  0.000000  0.067353  0.035143      2.000000
  0.029165  0.084192  0.035143      2.000000
  0.058330  0.101030  0.035143      2.000000
 -0.029165  0.050515  0.035143      2.000000
  0.000000 -0.033677  0.035143      2.000000
  0.029165 -0.016838  0.035143      2.000000
  0.058330  0.000000  0.035143      2.000000
 -0.029165 -0.050515  0.035143      2.000000
 


--------------------------------------------------------------------------------------------------------




 Dimension of arrays:
   k-points           NKPTS =     26   k-points in BZ     NKDIM =     26   number of bands    NBANDS=    240
   number of dos      NEDOS =    301   number of ions     NIONS =     54
   non local maximal  LDIM  =      6   non local SUM 2l+1 LMDIM =     18
   total plane-waves  NPLWV = 286720
   max r-space proj   IRMAX =   6427   max aug-charges    IRDMAX=  15596
   dimension x,y,z NGX =    64 NGY =   64 NGZ =   70
   dimension x,y,z NGXF=   128 NGYF=  128 NGZF=  140
   support grid    NGXF=   128 NGYF=  128 NGZF=  140
   ions per type =              18  36
   NGX,Y,Z   is equivalent  to a cutoff of  12.41, 12.41, 12.27 a.u.
   NGXF,Y,Z  is equivalent  to a cutoff of  24.82, 24.82, 24.54 a.u.

 SYSTEM =  unknown system                          
 POSCAR =  NiO2_C2_m_scale_1_025_disp_0_12_round_1 

 Startparameter for this run:
   NWRITE =      1    write-flag & timer
   PREC   = accura    normal or accurate (medium, high low for compatibility)
   ISTART =      0    job   : 0-new  1-cont  2-samecut
   ICHARG =      2    charge: 1-file 2-atom 10-const
   ISPIN  =      1    spin polarized calculation?
   LNONCOLLINEAR =      F non collinear calculations
   LSORBIT =      F    spin-orbit coupling
   INIWAV =      1    electr: 0-lowe 1-rand  2-diag
   LASPH  =      F    aspherical Exc in radial PAW
   METAGGA=      F    non-selfconsistent MetaGGA calc.

 Electronic Relaxation 1
   ENCUT  =  500.0 eV  36.75 Ry    6.06 a.u.  15.63 15.63 17.29*2*pi/ulx,y,z
   ENINI  =  500.0     initial cutoff
   ENAUG  =  605.4 eV  augmentation charge cutoff
   NELM   =    120;   NELMIN=  2; NELMDL= -5     # of ELM steps 
   EDIFF  = 0.1E-04   stopping-criterion for ELM
   LREAL  =      T    real-space projection
   NLSPLINE    = F    spline interpolate recip. space projectors
   LCOMPAT=      F    compatible to vasp.4.4
   GGA_COMPAT  = T    GGA compatible to vasp.4.4-vasp.4.6
   LMAXPAW     = -100 max onsite density
   LMAXMIX     =    2 max onsite mixed and CHGCAR
   VOSKOWN=      1    Vosko Wilk Nusair interpolation
   ROPT   =   -0.00025  -0.00025
 Ionic relaxation
   EDIFFG = 0.1E-03   stopping-criterion for IOM
   NSW    =      0    number of steps for IOM
   NBLOCK =      1;   KBLOCK =      1    inner block; outer block 
   IBRION =     -1    ionic relax: 0-MD 1-quasi-New 2-CG
   NFREE  =      0    steps in history (QN), initial steepest desc. (CG)
   ISIF   =      2    stress and relaxation
   IWAVPR =     10    prediction:  0-non 1-charg 2-wave 3-comb
   ISYM   =      2    0-nonsym 1-usesym 2-fastsym
   LCORR  =      T    Harris-Foulkes like correction to forces

   POTIM  = 0.5000    time-step for ionic-motion
   TEIN   =    0.0    initial temperature
   TEBEG  =    0.0;   TEEND  =   0.0 temperature during run
   SMASS  =  -3.00    Nose mass-parameter (am)
   estimated Nose-frequenzy (Omega)   =  0.10E-29 period in steps =****** mass=  -0.168E-26a.u.
   SCALEE = 1.0000    scale energy and forces
   NPACO  =    256;   APACO  = 16.0  distance and # of slots for P.C.
   PSTRESS=    0.0 pullay stress

  Mass of Ions in am
   POMASS =  58.69 16.00
  Ionic Valenz
   ZVAL   =  10.00  6.00
  Atomic Wigner-Seitz radii
   RWIGS  =   1.15  0.73
  virtual crystal weights 
   VCA    =   1.00  1.00
   NELECT =     396.0000    total number of electrons
   NUPDOWN=      -1.0000    fix difference up-down

 DOS related values:
   EMIN   =  10.00;   EMAX   =-10.00  energy-range for DOS
   EFERMI =   0.00
   ISMEAR =     0;   SIGMA  =   0.05  broadening in eV -4-tet -1-fermi 0-gaus

 Electronic relaxation 2 (details)
   IALGO  =     38    algorithm
   LDIAG  =      T    sub-space diagonalisation (order eigenvalues)
   LSUBROT=      F    optimize rotation matrix (better conditioning)
   TURBO    =      0    0=normal 1=particle mesh
   IRESTART =      0    0=no restart 2=restart with 2 vectors
   NREBOOT  =      0    no. of reboots
   NMIN     =      0    reboot dimension
   EREF     =   0.00    reference energy to select bands
   IMIX   =      4    mixing-type and parameters
     AMIX     =   0.40;   BMIX     =  1.00
     AMIX_MAG =   1.60;   BMIX_MAG =  1.00
     AMIN     =   0.10
     WC   =   100.;   INIMIX=   1;  MIXPRE=   1;  MAXMIX= -45

 Intra band minimization:
   WEIMIN = 0.0000     energy-eigenvalue tresh-hold
   EBREAK =  0.10E-07  absolut break condition
   DEPER  =   0.30     relativ break condition  

   TIME   =   0.40     timestep for ELM

  volume/ion in A,a.u.               =      11.18        75.43
  Fermi-wavevector in a.u.,A,eV,Ry     =   1.422533  2.688198 27.532754  2.023600
  Thomas-Fermi vector in A             =   2.543227
 
 Write flags
   LWAVE        =      F    write WAVECAR
   LDOWNSAMPLE  =      F    k-point downsampling of WAVECAR
   LCHARG       =      T    write CHGCAR
   LVTOT        =      F    write LOCPOT, total local potential
   LVHAR        =      F    write LOCPOT, Hartree potential only
   LELF         =      F    write electronic localiz. function (ELF)
   LORBIT       =      0    0 simple, 1 ext, 2 COOP (PROOUT), +10 PAW based schemes


 Dipole corrections
   LMONO  =      F    monopole corrections only (constant potential shift)
   LDIPOL =      F    correct potential (dipole corrections)
   IDIPOL =      0    1-x, 2-y, 3-z, 4-all directions 
   EPSILON=  1.0000000 bulk dielectric constant

 Exchange correlation treatment:
   GGA     =    PS    GGA type
   LEXCH   =    14    internal setting for exchange type
   VOSKOWN=      1    Vosko Wilk Nusair interpolation
   LHFCALC =     F    Hartree Fock is set to
   LHFONE  =     F    Hartree Fock one center treatment
   AEXX    =    0.0000 exact exchange contribution

 Linear response parameters
   LEPSILON=     F    determine dielectric tensor
   LRPA    =     F    only Hartree local field effects (RPA)
   LNABLA  =     F    use nabla operator in PAW spheres
   LVEL    =     F    velocity operator in full k-point grid
   LINTERFAST=   F  fast interpolation
   KINTER  =     0    interpolate to denser k-point grid
   CSHIFT  =0.1000    complex shift for real part using Kramers Kronig
   OMEGAMAX=  -1.0    maximum frequency
   DEG_THRESHOLD= 0.2000000E-02 threshold for treating states as degnerate
   RTIME   =   -0.100 relaxation time in fs
  (WPLASMAI=    0.000 imaginary part of plasma frequency in eV, 0.658/RTIME)
   DFIELD  = 0.0000000 0.0000000 0.0000000 field for delta impulse in time
 
 Orbital magnetization related:
   ORBITALMAG=     F  switch on orbital magnetization
   LCHIMAG   =     F  perturbation theory with respect to B field
   DQ        =  0.001000  dq finite difference perturbation B field
   LLRAUG    =     F  two centre corrections for induced B field



--------------------------------------------------------------------------------------------------------


 Static calculation
 charge density and potential will be updated during run
 non-spin polarized calculation
 Variant of blocked Davidson
 Davidson routine will perform the subspace rotation
 perform sub-space diagonalisation
    after iterative eigenvector-optimisation
 modified Broyden-mixing scheme, WC =      100.0
 initial mixing is a Kerker type mixing with AMIX =  0.4000 and BMIX =      1.0000
 Hartree-type preconditioning will be used
 using additional bands           42
 real space projection scheme for non local part
 use partial core corrections
 calculate Harris-corrections to forces 
   (improved forces if not selfconsistent)
 use gradient corrections 
 use of overlap-Matrix (Vanderbilt PP)
 Gauss-broadening in eV      SIGMA  =   0.05


--------------------------------------------------------------------------------------------------------


  energy-cutoff  :      500.00
  volume of cell :      603.58
      direct lattice vectors                 reciprocal lattice vectors
     8.571941750  0.000000000  0.000000000     0.116659682  0.067353499  0.000000000
    -4.285970880  7.423519320  0.000000000     0.000000000  0.134706998  0.000000000
     0.000000000  0.000000000  9.485134750     0.000000000  0.000000000  0.105428128

  length of vectors
     8.571941750  8.571941757  9.485134750     0.134706998  0.134706998  0.105428128


 
 k-points in units of 2pi/SCALE and weight: Automatic mesh                          
   0.00000000  0.00000000  0.00000000       0.021
   0.02916492  0.01683837  0.00000000       0.042
   0.05832984  0.03367675  0.00000000       0.021
   0.00000000  0.03367675  0.00000000       0.042
   0.02916492  0.05051512  0.00000000       0.042
   0.05832984  0.06735350  0.00000000       0.042
  -0.02916492  0.01683837  0.00000000       0.042
   0.00000000  0.06735350  0.00000000       0.021
   0.02916492  0.08419187  0.00000000       0.042
   0.05832984  0.10103025  0.00000000       0.021
   0.00000000  0.00000000  0.03514271       0.042
   0.02916492  0.01683837  0.03514271       0.042
   0.05832984  0.03367675  0.03514271       0.042
  -0.02916492 -0.01683837  0.03514271       0.042
   0.00000000  0.03367675  0.03514271       0.042
   0.02916492  0.05051512  0.03514271       0.042
   0.05832984  0.06735350  0.03514271       0.042
  -0.02916492  0.01683837  0.03514271       0.042
   0.00000000  0.06735350  0.03514271       0.042
   0.02916492  0.08419187  0.03514271       0.042
   0.05832984  0.10103025  0.03514271       0.042
  -0.02916492  0.05051512  0.03514271       0.042
   0.00000000 -0.03367675  0.03514271       0.042
   0.02916492 -0.01683837  0.03514271       0.042
   0.05832984  0.00000000  0.03514271       0.042
  -0.02916492 -0.05051512  0.03514271       0.042
 
 k-points in reciprocal lattice and weights: Automatic mesh                          
   0.00000000  0.00000000  0.00000000       0.021
   0.25000000  0.00000000  0.00000000       0.042
   0.50000000  0.00000000  0.00000000       0.021
   0.00000000  0.25000000  0.00000000       0.042
   0.25000000  0.25000000  0.00000000       0.042
   0.50000000  0.25000000  0.00000000       0.042
  -0.25000000  0.25000000  0.00000000       0.042
   0.00000000  0.50000000  0.00000000       0.021
   0.25000000  0.50000000  0.00000000       0.042
   0.50000000  0.50000000  0.00000000       0.021
   0.00000000  0.00000000  0.33333333       0.042
   0.25000000  0.00000000  0.33333333       0.042
   0.50000000  0.00000000  0.33333333       0.042
  -0.25000000  0.00000000  0.33333333       0.042
   0.00000000  0.25000000  0.33333333       0.042
   0.25000000  0.25000000  0.33333333       0.042
   0.50000000  0.25000000  0.33333333       0.042
  -0.25000000  0.25000000  0.33333333       0.042
   0.00000000  0.50000000  0.33333333       0.042
   0.25000000  0.50000000  0.33333333       0.042
   0.50000000  0.50000000  0.33333333       0.042
  -0.25000000  0.50000000  0.33333333       0.042
   0.00000000 -0.25000000  0.33333333       0.042
   0.25000000 -0.25000000  0.33333333       0.042
   0.50000000 -0.25000000  0.33333333       0.042
  -0.25000000 -0.25000000  0.33333333       0.042
 
 position of ions in fractional coordinates (direct lattice) 
   0.99705768  0.00169485  0.00316952
   0.99163187  0.00916779  0.47464517
   0.00423258  0.33796783  0.98448668
   0.98212451  0.31599164  0.47544258
   0.98893933  0.64986482  0.98693291
   0.01106454  0.64055279  0.50639502
   0.35181154  0.01143057  0.97648754
   0.30334436  0.99466388  0.46863438
   0.32726866  0.29573765  0.00340808
   0.32795678  0.34321270  0.47033583
   0.34122621  0.65403199  0.99184554
   0.34491117  0.67131033  0.47647795
   0.62538690  0.96586603  0.98964728
   0.63794347  0.00201255  0.48917766
   0.63849261  0.31366541  0.01181867
   0.66424127  0.35122077  0.49868388
   0.62887180  0.63491789  0.00568184
   0.63850044  0.65297850  0.49271457
   0.11790267  0.22356061  0.08930271
   0.18056590  0.07592132  0.38628569
   0.11790385  0.18530005  0.60367593
   0.18080590  0.08845338  0.87062245
   0.12049288  0.52679707  0.10961689
   0.24211443  0.45244795  0.38986166
   0.12065525  0.55221461  0.59760138
   0.21494356  0.42827297  0.84121421
   0.09140195  0.86632318  0.11435922
   0.25055788  0.75604013  0.38344400
   0.10032748  0.88854836  0.56854078
   0.19749063  0.75094150  0.86438025
   0.46292486  0.22578414  0.09162389
   0.55104759  0.09623703  0.40389937
   0.43390580  0.19638845  0.57636728
   0.52653030  0.08222290  0.88517740
   0.42018462  0.53293348  0.08559104
   0.54164829  0.44000412  0.39577590
   0.45340595  0.56058120  0.58938960
   0.53400482  0.43862183  0.86336512
   0.43173108  0.86245004  0.09513896
   0.53197615  0.74235037  0.36497408
   0.44146480  0.89366118  0.56734845
   0.54799444  0.77109856  0.88330150
   0.75735930  0.21139085  0.12843007
   0.88470356  0.12630135  0.40099409
   0.74863504  0.22159961  0.60278488
   0.86962182  0.10529927  0.86706951
   0.76533176  0.54296504  0.11717423
   0.84765549  0.43800697  0.38208235
   0.77238970  0.54943861  0.59744680
   0.88164539  0.43319708  0.86221361
   0.76344323  0.86485684  0.10642483
   0.86321171  0.76964236  0.38296971
   0.76742539  0.86569054  0.58589046
   0.85992816  0.74388664  0.86854522
 
 position of ions in cartesian coordinates  (Angst):
   8.53945628  0.01258175  0.03006332
   8.46091775  0.06805727  4.50207340
  -1.41223885  2.50891072  9.33798882
   7.06438312  2.34577004  4.50963694
   5.69182864  4.82428405  9.36119164
  -2.65054601  4.75515601  4.80322500
   2.96671694  0.08485506  9.26211590
  -1.66285024  7.38390653  4.44506024
   1.53780493  2.19541416  0.03232610
   1.34022678  2.54784611  4.46119873
   0.12180913  4.85521911  9.40778860
   0.07934193  4.98348520  4.51945756
   1.22110640  7.17012513  9.38693781
   5.45978853  0.01494020  4.63991602
   4.12876065  2.32850123  0.11210168
   4.18851548  2.60729417  4.73008380
   2.66941285  4.71332522  0.05389302
   2.67454174  4.84739851  4.67346409
   0.05248056  1.65960651  0.84704824
   1.22240381  0.56360339  3.66397182
   0.21647432  1.37557850  5.72594754
   1.17074903  0.65663538  8.25797125
  -1.22497895  3.91068823  1.03973097
   0.13621205  3.35875610  3.69789038
  -1.33252596  4.09937583  5.66832962
   0.00691820  3.17929267  7.97903014
  -2.92954373  6.43116686  1.08471261
  -1.09259843  5.61247851  3.63701801
  -2.94829108  6.59615592  5.39268591
  -1.52563523  5.57462873  8.19876315
   3.00046069  1.67611293  0.86906494
   4.31107873  0.71441745  3.83103995
   2.87770006  1.45789345  5.46692132
   4.16098211  0.61038329  8.39602692
   1.31766071  3.95624199  0.81184255
   2.75713275  3.26637909  3.75398774
   1.48393469  4.16148537  5.59043978
   2.69753782  3.25611763  8.18913450
   0.00433791  6.40241453  0.90240586
   1.37837650  5.51085231  3.46182833
  -0.04599524  6.63411104  5.38137650
   1.39247045  5.72426506  8.37823375
   5.58602478  1.56926406  1.21817652
   7.04230347  0.93760051  3.80348298
   5.46748648  1.64504899  5.71749581
   7.00303798  0.78169117  8.22427114
   4.23324692  4.03071146  1.11141336
   5.38876837  3.25155320  3.62410258
   4.26600163  4.07876814  5.66686340
   5.70074286  3.21584689  8.17821227
   2.83743967  6.42028146  1.00945385
   4.10073575  5.71345493  3.63251930
   2.86800130  6.42647045  5.55724996
   4.18297762  5.52225684  8.23826845
 


--------------------------------------------------------------------------------------------------------


 k-point  1 :   0.0000 0.0000 0.0000  plane waves:   15335
 k-point  2 :   0.2500 0.0000 0.0000  plane waves:   15345
 k-point  3 :   0.5000 0.0000 0.0000  plane waves:   15328
 k-point  4 :   0.0000 0.2500 0.0000  plane waves:   15345
 k-point  5 :   0.2500 0.2500 0.0000  plane waves:   15308
 k-point  6 :   0.5000 0.2500 0.0000  plane waves:   15308
 k-point  7 :  -0.2500 0.2500 0.0000  plane waves:   15345
 k-point  8 :   0.0000 0.5000 0.0000  plane waves:   15328
 k-point  9 :   0.2500 0.5000 0.0000  plane waves:   15308
 k-point 10 :   0.5000 0.5000 0.0000  plane waves:   15328
 k-point 11 :   0.0000 0.0000 0.3333  plane waves:   15364
 k-point 12 :   0.2500 0.0000 0.3333  plane waves:   15329
 k-point 13 :   0.5000 0.0000 0.3333  plane waves:   15304
 k-point 14 :  -0.2500 0.0000 0.3333  plane waves:   15329
 k-point 15 :   0.0000 0.2500 0.3333  plane waves:   15329
 k-point 16 :   0.2500 0.2500 0.3333  plane waves:   15318
 k-point 17 :   0.5000 0.2500 0.3333  plane waves:   15318
 k-point 18 :  -0.2500 0.2500 0.3333  plane waves:   15329
 k-point 19 :   0.0000 0.5000 0.3333  plane waves:   15304
 k-point 20 :   0.2500 0.5000 0.3333  plane waves:   15318
 k-point 21 :   0.5000 0.5000 0.3333  plane waves:   15304
 k-point 22 :  -0.2500 0.5000 0.3333  plane waves:   15318
 k-point 23 :   0.0000-0.2500 0.3333  plane waves:   15329
 k-point 24 :   0.2500-0.2500 0.3333  plane waves:   15329
 k-point 25 :   0.5000-0.2500 0.3333  plane waves:   15318
 k-point 26 :  -0.2500-0.2500 0.3333  plane waves:   15318

 maximum and minimum number of plane-waves per node :     15364    15304

 maximum number of plane-waves:     15364
 maximum index in each direction: 
   IXMAX=   15   IYMAX=   15   IZMAX=   17
   IXMIN=  -16   IYMIN=  -16   IZMIN=  -17

 The following grids will avoid any aliasing or wrap around errors in the Hartre
 e energy
  - symmetry arguments have not been applied
  - exchange correlation energies might require even more grid points
  - we recommend to set PREC=Normal or Accurate and rely on VASP defaults
 NGX is ok and might be reduce to    64
 NGY is ok and might be reduce to    64
 NGZ is ok and might be reduce to    70

 serial   3D FFT for wavefunctions
 parallel 3D FFT for charge:
    minimum data exchange during FFTs selected (reduces bandwidth)


 total amount of memory used by VASP MPI-rank0   186398. kBytes
=======================================================================

   base      :      30000. kBytes
   nonlr-proj:      30017. kBytes
   fftplans  :       6058. kBytes
   grid      :      19644. kBytes
   one-center:        839. kBytes
   wavefun   :      99840. kBytes
 
     INWAV:  cpu time    0.0001: real time    0.0001
 Broyden mixing: mesh for mixing (old mesh)
   NGX = 31   NGY = 31   NGZ = 35
  (NGX  =128   NGY  =128   NGZ  =140)
  gives a total of  33635 points

 initial charge density was supplied:
 charge density of overlapping atoms calculated
 number of electron     396.0000000 magnetization 
 keeping initial charge density in first step


--------------------------------------------------------------------------------------------------------


 Maximum index for non-local projection operator         6224
 Maximum index for augmentation-charges         1027 (set IRDMAX)


--------------------------------------------------------------------------------------------------------


 First call to EWALD:  gamma=   0.210
 Maximum number of real-space cells 3x 3x 3
 Maximum number of reciprocal cells 3x 3x 3

    FEWALD:  cpu time    0.0026: real time    0.0026


--------------------------------------- Iteration      1(   1)  ---------------------------------------


    POTLOK:  cpu time    0.0971: real time    0.1081
    SETDIJ:  cpu time    0.0085: real time    0.0085
     EDDAV:  cpu time   35.0215: real time   35.1196
    --------------------------------------------
      LOOP:  cpu time   35.1288: real time   35.2380

 eigenvalue-minimisations  : 12480
 total energy-change (2. order) : 0.5152942E+04  (-0.1763586E+05)
 number of electron     396.0000000 magnetization 
 augmentation part      396.0000000 magnetization 

 Free energy of the ion-electron system (eV)
  ---------------------------------------------------
  alpha Z        PSCENC =      1149.28122492
  Ewald energy   TEWEN  =    -22472.82826801
  -Hartree energ DENC   =    -13147.54249823
  -exchange      EXHF   =         0.00000000
  -V(xc)+E(xc)   XCENC  =      1577.72154988
  PAW double counting   =     29784.60368500   -31040.73694357
  entropy T*S    EENTRO =        -0.00846853
  eigenvalues    EBANDS =      4412.07069139
  atomic energy  EATOM  =     34890.38139807
  Solvation  Ediel_sol  =         0.00000000
  ---------------------------------------------------
  free energy    TOTEN  =      5152.94237091 eV

  energy without entropy =     5152.95083944  energy(sigma->0) =     5152.94660518


--------------------------------------------------------------------------------------------------------




--------------------------------------- Iteration      1(   2)  ---------------------------------------


     EDDAV:  cpu time   33.3172: real time   33.3963
    --------------------------------------------
      LOOP:  cpu time   33.3170: real time   33.3961

 eigenvalue-minimisations  : 12896
 total energy-change (2. order) :-0.4460262E+04  (-0.4166822E+04)
 number of electron     396.0000000 magnetization 
 augmentation part      396.0000000 magnetization 

 Free energy of the ion-electron system (eV)
  ---------------------------------------------------
  alpha Z        PSCENC =      1149.28122492
  Ewald energy   TEWEN  =    -22472.82826801
  -Hartree energ DENC   =    -13147.54249823
  -exchange      EXHF   =         0.00000000
  -V(xc)+E(xc)   XCENC  =      1577.72154988
  PAW double counting   =     29784.60368500   -31040.73694357
  entropy T*S    EENTRO =        -0.02650929
  eigenvalues    EBANDS =       -48.17339208
  atomic energy  EATOM  =     34890.38139807
  Solvation  Ediel_sol  =         0.00000000
  ---------------------------------------------------
  free energy    TOTEN  =       692.68024668 eV

  energy without entropy =      692.70675597  energy(sigma->0) =      692.69350133


--------------------------------------------------------------------------------------------------------




--------------------------------------- Iteration      1(   3)  ---------------------------------------


     EDDAV:  cpu time   34.4031: real time   34.4846
    --------------------------------------------
      LOOP:  cpu time   34.4032: real time   34.4846

 eigenvalue-minimisations  : 13392
 total energy-change (2. order) :-0.1030106E+04  (-0.9039338E+03)
 number of electron     396.0000000 magnetization 
 augmentation part      396.0000000 magnetization 

 Free energy of the ion-electron system (eV)
  ---------------------------------------------------
  alpha Z        PSCENC =      1149.28122492
  Ewald energy   TEWEN  =    -22472.82826801
  -Hartree energ DENC   =    -13147.54249823
  -exchange      EXHF   =         0.00000000
  -V(xc)+E(xc)   XCENC  =      1577.72154988
  PAW double counting   =     29784.60368500   -31040.73694357
  entropy T*S    EENTRO =        -0.02803572
  eigenvalues    EBANDS =     -1078.27768985
  atomic energy  EATOM  =     34890.38139807
  Solvation  Ediel_sol  =         0.00000000
  ---------------------------------------------------
  free energy    TOTEN  =      -337.42557752 eV

  energy without entropy =     -337.39754180  energy(sigma->0) =     -337.41155966


--------------------------------------------------------------------------------------------------------




--------------------------------------- Iteration      1(   4)  ---------------------------------------


     EDDAV:  cpu time   37.2870: real time   37.3755
    --------------------------------------------
      LOOP:  cpu time   37.2870: real time   37.3755

 eigenvalue-minimisations  : 13328
 total energy-change (2. order) :-0.1121878E+03  (-0.1093354E+03)
 number of electron     396.0000000 magnetization 
 augmentation part      396.0000000 magnetization 

 Free energy of the ion-electron system (eV)
  ---------------------------------------------------
  alpha Z        PSCENC =      1149.28122492
  Ewald energy   TEWEN  =    -22472.82826801
  -Hartree energ DENC   =    -13147.54249823
  -exchange      EXHF   =         0.00000000
  -V(xc)+E(xc)   XCENC  =      1577.72154988
  PAW double counting   =     29784.60368500   -31040.73694357
  entropy T*S    EENTRO =        -0.01899997
  eigenvalues    EBANDS =     -1190.47450751
  atomic energy  EATOM  =     34890.38139807
  Solvation  Ediel_sol  =         0.00000000
  ---------------------------------------------------
  free energy    TOTEN  =      -449.61335943 eV

  energy without entropy =     -449.59435946  energy(sigma->0) =     -449.60385944


--------------------------------------------------------------------------------------------------------




--------------------------------------- Iteration      1(   5)  ---------------------------------------


     EDDAV:  cpu time   38.6521: real time   38.7439
    CHARGE:  cpu time    1.4402: real time    1.4436
    MIXING:  cpu time    0.0043: real time    0.0069
    --------------------------------------------
      LOOP:  cpu time   40.0950: real time   40.1928

 eigenvalue-minimisations  : 15184
 total energy-change (2. order) :-0.3984750E+01  (-0.3973381E+01)
 number of electron     396.0000028 magnetization 
 augmentation part      112.0159997 magnetization 

 Broyden mixing:
  rms(total) = 0.12015E+02    rms(broyden)= 0.12012E+02
  rms(prec ) = 0.15120E+02
  weight for this iteration     100.00

 Free energy of the ion-electron system (eV)
  ---------------------------------------------------
  alpha Z        PSCENC =      1149.28122492
  Ewald energy   TEWEN  =    -22472.82826801
  -Hartree energ DENC   =    -13147.54249823
  -exchange      EXHF   =         0.00000000
  -V(xc)+E(xc)   XCENC  =      1577.72154988
  PAW double counting   =     29784.60368500   -31040.73694357
  entropy T*S    EENTRO =        -0.01811092
  eigenvalues    EBANDS =     -1194.46014657
  atomic energy  EATOM  =     34890.38139807
  Solvation  Ediel_sol  =         0.00000000
  ---------------------------------------------------
  free energy    TOTEN  =      -453.59810944 eV

  energy without entropy =     -453.57999852  energy(sigma->0) =     -453.58905398


--------------------------------------------------------------------------------------------------------




--------------------------------------- Iteration      1(   6)  ---------------------------------------


    POTLOK:  cpu time    0.0657: real time    0.0659
    SETDIJ:  cpu time    0.0089: real time    0.0089
     EDDAV:  cpu time   47.7238: real time   47.8368
    CHARGE:  cpu time    1.8747: real time    1.8791
    MIXING:  cpu time    0.0032: real time    0.0032
    --------------------------------------------
      LOOP:  cpu time   49.6763: real time   49.7939

 eigenvalue-minimisations  : 19728
 total energy-change (2. order) :-0.1831090E+03  (-0.1321056E+03)
 number of electron     396.0000012 magnetization 
 augmentation part      157.0156029 magnetization 

 Broyden mixing:
  rms(total) = 0.23414E+02    rms(broyden)= 0.23412E+02
  rms(prec ) = 0.26569E+02
  weight for this iteration     100.00

 eigenvalues of (default mixing * dielectric matrix)
  average eigenvalue GAMMA=   0.1650
  0.1650

 Free energy of the ion-electron system (eV)
  ---------------------------------------------------
  alpha Z        PSCENC =      1149.28122492
  Ewald energy   TEWEN  =    -22472.82826801
  -Hartree energ DENC   =    -12388.53585917
  -exchange      EXHF   =         0.00000000
  -V(xc)+E(xc)   XCENC  =      1572.51388886
  PAW double counting   =     32373.62836338   -33404.83622466
  entropy T*S    EENTRO =        -0.04758809
  eigenvalues    EBANDS =     -2356.26405299
  atomic energy  EATOM  =     34890.38139807
  Solvation  Ediel_sol  =         0.00000000
  ---------------------------------------------------
  free energy    TOTEN  =      -636.70711769 eV

  energy without entropy =     -636.65952960  energy(sigma->0) =     -636.68332365


--------------------------------------------------------------------------------------------------------




--------------------------------------- Iteration      1(   7)  ---------------------------------------


    POTLOK:  cpu time    0.0758: real time    0.0760
    SETDIJ:  cpu time    0.0088: real time    0.0088
     EDDAV:  cpu time   43.8891: real time   43.9930
    CHARGE:  cpu time    1.7734: real time    1.7776
    MIXING:  cpu time    0.0025: real time    0.0026
    --------------------------------------------
      LOOP:  cpu time   45.7496: real time   45.8580

 eigenvalue-minimisations  : 16656
 total energy-change (2. order) : 0.2545867E+03  (-0.3605707E+02)
 number of electron     396.0000011 magnetization 
 augmentation part      144.3470812 magnetization 

 Broyden mixing:
  rms(total) = 0.10000E+02    rms(broyden)= 0.99991E+01
  rms(prec ) = 0.12699E+02
  weight for this iteration     100.00

 eigenvalues of (default mixing * dielectric matrix)
  average eigenvalue GAMMA=   0.5029
  0.5029  0.5029

 Free energy of the ion-electron system (eV)
  ---------------------------------------------------
  alpha Z        PSCENC =      1149.28122492
  Ewald energy   TEWEN  =    -22472.82826801
  -Hartree energ DENC   =    -12680.71384427
  -exchange      EXHF   =         0.00000000
  -V(xc)+E(xc)   XCENC  =      1576.71704714
  PAW double counting   =     33734.51453723   -34905.52970318
  entropy T*S    EENTRO =        -0.05386387
  eigenvalues    EBANDS =     -1673.88899129
  atomic energy  EATOM  =     34890.38139807
  Solvation  Ediel_sol  =         0.00000000
  ---------------------------------------------------
  free energy    TOTEN  =      -382.12046326 eV

  energy without entropy =     -382.06659939  energy(sigma->0) =     -382.09353133


--------------------------------------------------------------------------------------------------------




--------------------------------------- Iteration      1(   8)  ---------------------------------------


    POTLOK:  cpu time    0.0754: real time    0.0756
    SETDIJ:  cpu time    0.0091: real time    0.0091
     EDDAV:  cpu time   47.9299: real time   48.0434
    CHARGE:  cpu time    1.8558: real time    1.8602
    MIXING:  cpu time    0.0025: real time    0.0025
    --------------------------------------------
      LOOP:  cpu time   49.8726: real time   49.9907

 eigenvalue-minimisations  : 20048
 total energy-change (2. order) :-0.3325103E+01  (-0.3193365E+02)
 number of electron     396.0000019 magnetization 
 augmentation part      136.4488966 magnetization 

 Broyden mixing:
  rms(total) = 0.11929E+02    rms(broyden)= 0.11927E+02
  rms(prec ) = 0.17850E+02
  weight for this iteration     100.00

 eigenvalues of (default mixing * dielectric matrix)
  average eigenvalue GAMMA=   0.4541
  0.5894  0.5894  0.1836

 Free energy of the ion-electron system (eV)
  ---------------------------------------------------
  alpha Z        PSCENC =      1149.28122492
  Ewald energy   TEWEN  =    -22472.82826801
  -Hartree energ DENC   =    -12734.14966798
  -exchange      EXHF   =         0.00000000
  -V(xc)+E(xc)   XCENC  =      1572.87219680
  PAW double counting   =     34642.43810412   -35901.68434993
  entropy T*S    EENTRO =        -0.06634382
  eigenvalues    EBANDS =     -1531.68986040
  atomic energy  EATOM  =     34890.38139807
  Solvation  Ediel_sol  =         0.00000000
  ---------------------------------------------------
  free energy    TOTEN  =      -385.44556623 eV

  energy without entropy =     -385.37922241  energy(sigma->0) =     -385.41239432


--------------------------------------------------------------------------------------------------------




--------------------------------------- Iteration      1(   9)  ---------------------------------------


    POTLOK:  cpu time    0.0683: real time    0.0685
    SETDIJ:  cpu time    0.0092: real time    0.0092
     EDDAV:  cpu time   40.4734: real time   40.5693
    CHARGE:  cpu time    1.8614: real time    1.8658
    MIXING:  cpu time    0.0029: real time    0.0029
    --------------------------------------------
      LOOP:  cpu time   42.4151: real time   42.5157

 eigenvalue-minimisations  : 15680
 total energy-change (2. order) : 0.4046948E+01  (-0.4586655E+02)
 number of electron     396.0000023 magnetization 
 augmentation part      122.2543300 magnetization 

 Broyden mixing:
  rms(total) = 0.10147E+02    rms(broyden)= 0.10146E+02
  rms(prec ) = 0.14529E+02
  weight for this iteration     100.00

 eigenvalues of (default mixing * dielectric matrix)
  average eigenvalue GAMMA=   0.4275
  0.8259  0.4644  0.2696  0.1502

 Free energy of the ion-electron system (eV)
  ---------------------------------------------------
  alpha Z        PSCENC =      1149.28122492
  Ewald energy   TEWEN  =    -22472.82826801
  -Hartree energ DENC   =    -12792.43253595
  -exchange      EXHF   =         0.00000000
  -V(xc)+E(xc)   XCENC  =      1570.94136385
  PAW double counting   =     35519.56473433   -36814.08903320
  entropy T*S    EENTRO =        -0.04915286
  eigenvalues    EBANDS =     -1432.16834975
  atomic energy  EATOM  =     34890.38139807
  Solvation  Ediel_sol  =         0.00000000
  ---------------------------------------------------
  free energy    TOTEN  =      -381.39861859 eV

  energy without entropy =     -381.34946573  energy(sigma->0) =     -381.37404216


--------------------------------------------------------------------------------------------------------




--------------------------------------- Iteration      1(  10)  ---------------------------------------


    POTLOK:  cpu time    0.0749: real time    0.0750
    SETDIJ:  cpu time    0.0091: real time    0.0091
     EDDAV:  cpu time   42.9154: real time   43.0170
    CHARGE:  cpu time    1.7821: real time    1.7863
    MIXING:  cpu time    0.0029: real time    0.0029
    --------------------------------------------
      LOOP:  cpu time   44.7843: real time   44.8904

 eigenvalue-minimisations  : 16864
 total energy-change (2. order) : 0.1688072E+02  (-0.2515880E+02)
 number of electron     396.0000027 magnetization 
 augmentation part      121.8417249 magnetization 

 Broyden mixing:
  rms(total) = 0.94145E+01    rms(broyden)= 0.94138E+01
  rms(prec ) = 0.13669E+02
  weight for this iteration     100.00

 eigenvalues of (default mixing * dielectric matrix)
  average eigenvalue GAMMA=   0.3983
  1.0331  0.3255  0.3255  0.1538  0.1538

 Free energy of the ion-electron system (eV)
  ---------------------------------------------------
  alpha Z        PSCENC =      1149.28122492
  Ewald energy   TEWEN  =    -22472.82826801
  -Hartree energ DENC   =    -12754.75686448
  -exchange      EXHF   =         0.00000000
  -V(xc)+E(xc)   XCENC  =      1569.35761094
  PAW double counting   =     36329.31463147   -37636.94403130
  entropy T*S    EENTRO =        -0.06569252
  eigenvalues    EBANDS =     -1438.25791123
  atomic energy  EATOM  =     34890.38139807
  Solvation  Ediel_sol  =         0.00000000
  ---------------------------------------------------
  free energy    TOTEN  =      -364.51790214 eV

  energy without entropy =     -364.45220962  energy(sigma->0) =     -364.48505588


--------------------------------------------------------------------------------------------------------




--------------------------------------- Iteration      1(  11)  ---------------------------------------


    POTLOK:  cpu time    0.0718: real time    0.0720
    SETDIJ:  cpu time    0.0090: real time    0.0090
     EDDAV:  cpu time   40.6110: real time   40.7071
    CHARGE:  cpu time    1.6413: real time    1.6452
    MIXING:  cpu time    0.0027: real time    0.0027
    --------------------------------------------
      LOOP:  cpu time   42.3358: real time   42.4359

 eigenvalue-minimisations  : 16576
 total energy-change (2. order) : 0.2617801E+02  (-0.1756633E+02)
 number of electron     396.0000024 magnetization 
 augmentation part      125.0158908 magnetization 

 Broyden mixing:
  rms(total) = 0.72962E+01    rms(broyden)= 0.72955E+01
  rms(prec ) = 0.10740E+02
  weight for this iteration     100.00

 eigenvalues of (default mixing * dielectric matrix)
  average eigenvalue GAMMA=   0.3663
  1.1044  0.3467  0.2564  0.2564  0.1365  0.0972

 Free energy of the ion-electron system (eV)
  ---------------------------------------------------
  alpha Z        PSCENC =      1149.28122492
  Ewald energy   TEWEN  =    -22472.82826801
  -Hartree energ DENC   =    -12731.77137287
  -exchange      EXHF   =         0.00000000
  -V(xc)+E(xc)   XCENC  =      1568.81315350
  PAW double counting   =     36734.68521893   -38044.82279296
  entropy T*S    EENTRO =        -0.04429270
  eigenvalues    EBANDS =     -1432.03415751
  atomic energy  EATOM  =     34890.38139807
  Solvation  Ediel_sol  =         0.00000000
  ---------------------------------------------------
  free energy    TOTEN  =      -338.33988863 eV

  energy without entropy =     -338.29559593  energy(sigma->0) =     -338.31774228


--------------------------------------------------------------------------------------------------------




--------------------------------------- Iteration      1(  12)  ---------------------------------------


    POTLOK:  cpu time    0.0707: real time    0.0709
    SETDIJ:  cpu time    0.0090: real time    0.0091
     EDDAV:  cpu time   44.3689: real time   44.4741
    CHARGE:  cpu time    1.7610: real time    1.7651
    MIXING:  cpu time    0.0031: real time    0.0031
    --------------------------------------------
      LOOP:  cpu time   46.2127: real time   46.3222

 eigenvalue-minimisations  : 17440
 total energy-change (2. order) : 0.1479957E+02  (-0.1195391E+02)
 number of electron     396.0000025 magnetization 
 augmentation part      126.9775787 magnetization 

 Broyden mixing:
  rms(total) = 0.41417E+01    rms(broyden)= 0.41409E+01
  rms(prec ) = 0.56155E+01
  weight for this iteration     100.00

 eigenvalues of (default mixing * dielectric matrix)
  average eigenvalue GAMMA=   0.3755
  1.1757  0.3959  0.3495  0.3495  0.1352  0.1352  0.0878

 Free energy of the ion-electron system (eV)
  ---------------------------------------------------
  alpha Z        PSCENC =      1149.28122492
  Ewald energy   TEWEN  =    -22472.82826801
  -Hartree energ DENC   =    -12723.02865110
  -exchange      EXHF   =         0.00000000
  -V(xc)+E(xc)   XCENC  =      1568.76885653
  PAW double counting   =     36921.75632495   -38232.84873452
  entropy T*S    EENTRO =        -0.04238511
  eigenvalues    EBANDS =     -1424.98008073
  atomic energy  EATOM  =     34890.38139807
  Solvation  Ediel_sol  =         0.00000000
  ---------------------------------------------------
  free energy    TOTEN  =      -323.54031501 eV

  energy without entropy =     -323.49792990  energy(sigma->0) =     -323.51912246


--------------------------------------------------------------------------------------------------------




--------------------------------------- Iteration      1(  13)  ---------------------------------------


    POTLOK:  cpu time    0.0727: real time    0.0729
    SETDIJ:  cpu time    0.0089: real time    0.0089
     EDDAV:  cpu time   42.7333: real time   42.8345
    CHARGE:  cpu time    1.5452: real time    1.5488
    MIXING:  cpu time    0.0030: real time    0.0030
    --------------------------------------------
      LOOP:  cpu time   44.3631: real time   44.4682

 eigenvalue-minimisations  : 17104
 total energy-change (2. order) : 0.6101496E+01  (-0.2688567E+01)
 number of electron     396.0000022 magnetization 
 augmentation part      126.7639999 magnetization 

 Broyden mixing:
  rms(total) = 0.34848E+01    rms(broyden)= 0.34842E+01
  rms(prec ) = 0.48698E+01
  weight for this iteration     100.00

 eigenvalues of (default mixing * dielectric matrix)
  average eigenvalue GAMMA=   0.3778
  1.2898  0.4099  0.4099  0.3731  0.1610  0.1610  0.1296  0.0882

 Free energy of the ion-electron system (eV)
  ---------------------------------------------------
  alpha Z        PSCENC =      1149.28122492
  Ewald energy   TEWEN  =    -22472.82826801
  -Hartree energ DENC   =    -12723.60299850
  -exchange      EXHF   =         0.00000000
  -V(xc)+E(xc)   XCENC  =      1569.11937381
  PAW double counting   =     37122.82014082   -38435.29000182
  entropy T*S    EENTRO =        -0.05494542
  eigenvalues    EBANDS =     -1417.26474301
  atomic energy  EATOM  =     34890.38139807
  Solvation  Ediel_sol  =         0.00000000
  ---------------------------------------------------
  free energy    TOTEN  =      -317.43881916 eV

  energy without entropy =     -317.38387374  energy(sigma->0) =     -317.41134645


--------------------------------------------------------------------------------------------------------




--------------------------------------- Iteration      1(  14)  ---------------------------------------


    POTLOK:  cpu time    0.0728: real time    0.0730
    SETDIJ:  cpu time    0.0086: real time    0.0086
     EDDAV:  cpu time   46.3025: real time   46.4122
    CHARGE:  cpu time    1.7644: real time    1.7685
    MIXING:  cpu time    0.0035: real time    0.0035
    --------------------------------------------
      LOOP:  cpu time   48.1518: real time   48.2659

 eigenvalue-minimisations  : 18192
 total energy-change (2. order) : 0.3235669E+01  (-0.3191956E+01)
 number of electron     396.0000024 magnetization 
 augmentation part      127.6500381 magnetization 

 Broyden mixing:
  rms(total) = 0.28562E+01    rms(broyden)= 0.28556E+01
  rms(prec ) = 0.39879E+01
  weight for this iteration     100.00

 eigenvalues of (default mixing * dielectric matrix)
  average eigenvalue GAMMA=   0.3826
  1.3699  0.4772  0.4772  0.3015  0.3015  0.1909  0.1205  0.1205  0.0842

 Free energy of the ion-electron system (eV)
  ---------------------------------------------------
  alpha Z        PSCENC =      1149.28122492
  Ewald energy   TEWEN  =    -22472.82826801
  -Hartree energ DENC   =    -12722.51214971
  -exchange      EXHF   =         0.00000000
  -V(xc)+E(xc)   XCENC  =      1569.44249390
  PAW double counting   =     37353.78039672   -38666.00071501
  entropy T*S    EENTRO =        -0.04706769
  eigenvalues    EBANDS =     -1415.70046377
  atomic energy  EATOM  =     34890.38139807
  Solvation  Ediel_sol  =         0.00000000
  ---------------------------------------------------
  free energy    TOTEN  =      -314.20315059 eV

  energy without entropy =     -314.15608290  energy(sigma->0) =     -314.17961675


--------------------------------------------------------------------------------------------------------




--------------------------------------- Iteration      1(  15)  ---------------------------------------


    POTLOK:  cpu time    0.0775: real time    0.0777
    SETDIJ:  cpu time    0.0091: real time    0.0091
     EDDAV:  cpu time   47.4572: real time   47.5738
    CHARGE:  cpu time    1.7319: real time    1.7361
    MIXING:  cpu time    0.0033: real time    0.0033
    --------------------------------------------
      LOOP:  cpu time   49.2790: real time   49.3999

 eigenvalue-minimisations  : 17376
 total energy-change (2. order) : 0.2544939E+01  (-0.1623112E+01)
 number of electron     396.0000022 magnetization 
 augmentation part      128.1113114 magnetization 

 Broyden mixing:
  rms(total) = 0.20153E+01    rms(broyden)= 0.20149E+01
  rms(prec ) = 0.27341E+01
  weight for this iteration     100.00

 eigenvalues of (default mixing * dielectric matrix)
  average eigenvalue GAMMA=   0.4011
  1.4768  0.5815  0.5815  0.3453  0.3453  0.2105  0.1309  0.1309  0.1224  0.0859

 Free energy of the ion-electron system (eV)
  ---------------------------------------------------
  alpha Z        PSCENC =      1149.28122492
  Ewald energy   TEWEN  =    -22472.82826801
  -Hartree energ DENC   =    -12719.76305777
  -exchange      EXHF   =         0.00000000
  -V(xc)+E(xc)   XCENC  =      1569.72533234
  PAW double counting   =     37523.64048605   -38835.72291108
  entropy T*S    EENTRO =        -0.03714232
  eigenvalues    EBANDS =     -1416.33527359
  atomic energy  EATOM  =     34890.38139807
  Solvation  Ediel_sol  =         0.00000000
  ---------------------------------------------------
  free energy    TOTEN  =      -311.65821140 eV

  energy without entropy =     -311.62106908  energy(sigma->0) =     -311.63964024


--------------------------------------------------------------------------------------------------------




--------------------------------------- Iteration      1(  16)  ---------------------------------------


    POTLOK:  cpu time    0.0753: real time    0.0755
    SETDIJ:  cpu time    0.0094: real time    0.0094
     EDDAV:  cpu time   43.8410: real time   43.9448
    CHARGE:  cpu time    1.6098: real time    1.6136
    MIXING:  cpu time    0.0071: real time    0.0583
    --------------------------------------------
      LOOP:  cpu time   45.5426: real time   45.7017

 eigenvalue-minimisations  : 18032
 total energy-change (2. order) : 0.1408542E+01  (-0.6824885E+00)
 number of electron     396.0000022 magnetization 
 augmentation part      128.9258351 magnetization 

 Broyden mixing:
  rms(total) = 0.14382E+01    rms(broyden)= 0.14379E+01
  rms(prec ) = 0.19118E+01
  weight for this iteration     100.00

 eigenvalues of (default mixing * dielectric matrix)
  average eigenvalue GAMMA=   0.4103
  1.5193  0.6789  0.6789  0.3602  0.3602  0.2781  0.1476  0.1476  0.1285  0.1285
  0.0856

 Free energy of the ion-electron system (eV)
  ---------------------------------------------------
  alpha Z        PSCENC =      1149.28122492
  Ewald energy   TEWEN  =    -22472.82826801
  -Hartree energ DENC   =    -12715.27258447
  -exchange      EXHF   =         0.00000000
  -V(xc)+E(xc)   XCENC  =      1569.97819691
  PAW double counting   =     37749.32127616   -39061.26321133
  entropy T*S    EENTRO =        -0.00393347
  eigenvalues    EBANDS =     -1419.84376783
  atomic energy  EATOM  =     34890.38139807
  Solvation  Ediel_sol  =         0.00000000
  ---------------------------------------------------
  free energy    TOTEN  =      -310.24966904 eV

  energy without entropy =     -310.24573557  energy(sigma->0) =     -310.24770230


--------------------------------------------------------------------------------------------------------




--------------------------------------- Iteration      1(  17)  ---------------------------------------


    POTLOK:  cpu time    0.0894: real time    0.0896
    SETDIJ:  cpu time    0.0090: real time    0.0091
     EDDAV:  cpu time   47.3374: real time   47.4497
    CHARGE:  cpu time    1.8830: real time    1.8875
    MIXING:  cpu time    0.0044: real time    0.0159
    --------------------------------------------
      LOOP:  cpu time   49.3232: real time   49.4517

 eigenvalue-minimisations  : 18704
 total energy-change (2. order) : 0.9048924E+00  (-0.1871814E+00)
 number of electron     396.0000022 magnetization 
 augmentation part      129.1746929 magnetization 

 Broyden mixing:
  rms(total) = 0.99987E+00    rms(broyden)= 0.99971E+00
  rms(prec ) = 0.12821E+01
  weight for this iteration     100.00

 eigenvalues of (default mixing * dielectric matrix)
  average eigenvalue GAMMA=   0.4304
  1.5865  0.7936  0.7936  0.3901  0.3901  0.2780  0.2780  0.1851  0.1291  0.1291
  0.0856  0.1257

 Free energy of the ion-electron system (eV)
  ---------------------------------------------------
  alpha Z        PSCENC =      1149.28122492
  Ewald energy   TEWEN  =    -22472.82826801
  -Hartree energ DENC   =    -12716.88423246
  -exchange      EXHF   =         0.00000000
  -V(xc)+E(xc)   XCENC  =      1570.31292258
  PAW double counting   =     37920.47272342   -39232.74408314
  entropy T*S    EENTRO =        -0.01090380
  eigenvalues    EBANDS =     -1417.32555825
  atomic energy  EATOM  =     34890.38139807
  Solvation  Ediel_sol  =         0.00000000
  ---------------------------------------------------
  free energy    TOTEN  =      -309.34477669 eV

  energy without entropy =     -309.33387289  energy(sigma->0) =     -309.33932479


--------------------------------------------------------------------------------------------------------




--------------------------------------- Iteration      1(  18)  ---------------------------------------


    POTLOK:  cpu time    0.0763: real time    0.0765
    SETDIJ:  cpu time    0.0093: real time    0.0093
     EDDAV:  cpu time   46.9809: real time   47.0923
    CHARGE:  cpu time    1.8049: real time    1.8092
    MIXING:  cpu time    0.0040: real time    0.0065
    --------------------------------------------
      LOOP:  cpu time   48.8754: real time   48.9938

 eigenvalue-minimisations  : 18560
 total energy-change (2. order) : 0.2901893E+00  (-0.1088123E+00)
 number of electron     396.0000021 magnetization 
 augmentation part      129.3550847 magnetization 

 Broyden mixing:
  rms(total) = 0.82351E+00    rms(broyden)= 0.82343E+00
  rms(prec ) = 0.10336E+01
  weight for this iteration     100.00

 eigenvalues of (default mixing * dielectric matrix)
  average eigenvalue GAMMA=   0.4686
  1.7550  0.9415  0.9415  0.4676  0.4676  0.3390  0.3390  0.1966  0.1698  0.0856
  0.1294  0.1294  0.1296

 Free energy of the ion-electron system (eV)
  ---------------------------------------------------
  alpha Z        PSCENC =      1149.28122492
  Ewald energy   TEWEN  =    -22472.82826801
  -Hartree energ DENC   =    -12718.92684843
  -exchange      EXHF   =         0.00000000
  -V(xc)+E(xc)   XCENC  =      1570.58812878
  PAW double counting   =     38073.88281482   -39386.56535037
  entropy T*S    EENTRO =        -0.00479367
  eigenvalues    EBANDS =     -1414.86289352
  atomic energy  EATOM  =     34890.38139807
  Solvation  Ediel_sol  =         0.00000000
  ---------------------------------------------------
  free energy    TOTEN  =      -309.05458743 eV

  energy without entropy =     -309.04979376  energy(sigma->0) =     -309.05219059


--------------------------------------------------------------------------------------------------------




--------------------------------------- Iteration      1(  19)  ---------------------------------------


    POTLOK:  cpu time    0.0852: real time    0.2079
    SETDIJ:  cpu time    0.0097: real time    0.0097
     EDDAV:  cpu time   46.2055: real time   46.3150
    CHARGE:  cpu time    1.8930: real time    1.8975
    MIXING:  cpu time    0.0037: real time    0.0037
    --------------------------------------------
      LOOP:  cpu time   48.1970: real time   48.4339

 eigenvalue-minimisations  : 18816
 total energy-change (2. order) : 0.1485493E+00  (-0.8968145E-01)
 number of electron     396.0000022 magnetization 
 augmentation part      129.7366222 magnetization 

 Broyden mixing:
  rms(total) = 0.63423E+00    rms(broyden)= 0.63409E+00
  rms(prec ) = 0.81578E+00
  weight for this iteration     100.00

 eigenvalues of (default mixing * dielectric matrix)
  average eigenvalue GAMMA=   0.5035
  2.1407  0.9787  0.9787  0.5652  0.5652  0.3666  0.3666  0.2562  0.1790  0.1790
  0.1292  0.1292  0.1284  0.0856

 Free energy of the ion-electron system (eV)
  ---------------------------------------------------
  alpha Z        PSCENC =      1149.28122492
  Ewald energy   TEWEN  =    -22472.82826801
  -Hartree energ DENC   =    -12720.57118438
  -exchange      EXHF   =         0.00000000
  -V(xc)+E(xc)   XCENC  =      1570.87651086
  PAW double counting   =     38292.06750189   -39605.45553028
  entropy T*S    EENTRO =        -0.01455079
  eigenvalues    EBANDS =     -1412.64314036
  atomic energy  EATOM  =     34890.38139807
  Solvation  Ediel_sol  =         0.00000000
  ---------------------------------------------------
  free energy    TOTEN  =      -308.90603808 eV

  energy without entropy =     -308.89148729  energy(sigma->0) =     -308.89876269


--------------------------------------------------------------------------------------------------------




--------------------------------------- Iteration      1(  20)  ---------------------------------------


    POTLOK:  cpu time    0.0736: real time    0.0738
    SETDIJ:  cpu time    0.0093: real time    0.0093
     EDDAV:  cpu time   49.3984: real time   49.5154
    CHARGE:  cpu time    1.8825: real time    1.9156
    MIXING:  cpu time    0.0042: real time    0.0069
    --------------------------------------------
      LOOP:  cpu time   51.3679: real time   51.5210

 eigenvalue-minimisations  : 18864
 total energy-change (2. order) : 0.7414236E-01  (-0.7784059E-01)
 number of electron     396.0000021 magnetization 
 augmentation part      130.0105339 magnetization 

 Broyden mixing:
  rms(total) = 0.49831E+00    rms(broyden)= 0.49820E+00
  rms(prec ) = 0.66398E+00
  weight for this iteration     100.00

 eigenvalues of (default mixing * dielectric matrix)
  average eigenvalue GAMMA=   0.5110
  2.3644  1.0848  0.7932  0.6568  0.6568  0.3802  0.3802  0.2982  0.2349  0.0856
  0.1293  0.1293  0.1289  0.1715  0.1715

 Free energy of the ion-electron system (eV)
  ---------------------------------------------------
  alpha Z        PSCENC =      1149.28122492
  Ewald energy   TEWEN  =    -22472.82826801
  -Hartree energ DENC   =    -12723.16178850
  -exchange      EXHF   =         0.00000000
  -V(xc)+E(xc)   XCENC  =      1571.18776451
  PAW double counting   =     38512.14822431   -39825.98851955
  entropy T*S    EENTRO =        -0.00867772
  eigenvalues    EBANDS =     -1409.84325374
  atomic energy  EATOM  =     34890.38139807
  Solvation  Ediel_sol  =         0.00000000
  ---------------------------------------------------
  free energy    TOTEN  =      -308.83189572 eV

  energy without entropy =     -308.82321800  energy(sigma->0) =     -308.82755686


--------------------------------------------------------------------------------------------------------




--------------------------------------- Iteration      1(  21)  ---------------------------------------


    POTLOK:  cpu time    0.0703: real time    0.0705
    SETDIJ:  cpu time    0.0089: real time    0.0089
     EDDAV:  cpu time   45.5235: real time   45.6314
    CHARGE:  cpu time    1.4855: real time    1.4890
    MIXING:  cpu time    0.0043: real time    0.0160
    --------------------------------------------
      LOOP:  cpu time   47.0926: real time   47.2158

 eigenvalue-minimisations  : 18608
 total energy-change (2. order) : 0.5349685E-01  (-0.3968229E-01)
 number of electron     396.0000021 magnetization 
 augmentation part      130.0598142 magnetization 

 Broyden mixing:
  rms(total) = 0.35078E+00    rms(broyden)= 0.35070E+00
  rms(prec ) = 0.44825E+00
  weight for this iteration     100.00

 eigenvalues of (default mixing * dielectric matrix)
  average eigenvalue GAMMA=   0.5196
  2.4203  1.1900  0.7326  0.7326  0.7617  0.3941  0.3941  0.3368  0.3368  0.0856
  0.1293  0.1293  0.1287  0.1850  0.1850  0.1708

 Free energy of the ion-electron system (eV)
  ---------------------------------------------------
  alpha Z        PSCENC =      1149.28122492
  Ewald energy   TEWEN  =    -22472.82826801
  -Hartree energ DENC   =    -12725.80708280
  -exchange      EXHF   =         0.00000000
  -V(xc)+E(xc)   XCENC  =      1571.35436091
  PAW double counting   =     38585.71370525   -39899.64504896
  entropy T*S    EENTRO =        -0.01324567
  eigenvalues    EBANDS =     -1407.21544258
  atomic energy  EATOM  =     34890.38139807
  Solvation  Ediel_sol  =         0.00000000
  ---------------------------------------------------
  free energy    TOTEN  =      -308.77839887 eV

  energy without entropy =     -308.76515320  energy(sigma->0) =     -308.77177604


--------------------------------------------------------------------------------------------------------




--------------------------------------- Iteration      1(  22)  ---------------------------------------


    POTLOK:  cpu time    0.0683: real time    0.0685
    SETDIJ:  cpu time    0.0087: real time    0.0087
     EDDAV:  cpu time   50.3405: real time   50.4599
    CHARGE:  cpu time    1.8630: real time    1.8675
    MIXING:  cpu time    0.0062: real time    0.2562
    --------------------------------------------
      LOOP:  cpu time   52.2869: real time   52.6608

 eigenvalue-minimisations  : 18896
 total energy-change (2. order) : 0.1139068E-01  (-0.2104692E-01)
 number of electron     396.0000021 magnetization 
 augmentation part      130.0475592 magnetization 

 Broyden mixing:
  rms(total) = 0.32251E+00    rms(broyden)= 0.32246E+00
  rms(prec ) = 0.43833E+00
  weight for this iteration     100.00

 eigenvalues of (default mixing * dielectric matrix)
  average eigenvalue GAMMA=   0.5242
  2.5111  1.2417  0.8136  0.8136  0.7129  0.4523  0.4523  0.3471  0.3471  0.2239
  0.0856  0.1293  0.1293  0.1288  0.1865  0.1790  0.1580

 Free energy of the ion-electron system (eV)
  ---------------------------------------------------
  alpha Z        PSCENC =      1149.28122492
  Ewald energy   TEWEN  =    -22472.82826801
  -Hartree energ DENC   =    -12726.29607225
  -exchange      EXHF   =         0.00000000
  -V(xc)+E(xc)   XCENC  =      1571.37016819
  PAW double counting   =     38606.28049255   -39919.93318794
  entropy T*S    EENTRO =        -0.00922168
  eigenvalues    EBANDS =     -1407.01354204
  atomic energy  EATOM  =     34890.38139807
  Solvation  Ediel_sol  =         0.00000000
  ---------------------------------------------------
  free energy    TOTEN  =      -308.76700820 eV

  energy without entropy =     -308.75778652  energy(sigma->0) =     -308.76239736


--------------------------------------------------------------------------------------------------------




--------------------------------------- Iteration      1(  23)  ---------------------------------------


    POTLOK:  cpu time    0.0876: real time    0.0878
    SETDIJ:  cpu time    0.0101: real time    0.0101
     EDDAV:  cpu time   46.0612: real time   46.1703
    CHARGE:  cpu time    1.8518: real time    1.8562
    MIXING:  cpu time    0.0043: real time    0.0043
    --------------------------------------------
      LOOP:  cpu time   48.0149: real time   48.1287

 eigenvalue-minimisations  : 18464
 total energy-change (2. order) : 0.1995741E-01  (-0.8799313E-02)
 number of electron     396.0000021 magnetization 
 augmentation part      130.0590705 magnetization 

 Broyden mixing:
  rms(total) = 0.24531E+00    rms(broyden)= 0.24528E+00
  rms(prec ) = 0.32680E+00
  weight for this iteration     100.00

 eigenvalues of (default mixing * dielectric matrix)
  average eigenvalue GAMMA=   0.5395
  2.6033  1.2148  0.9571  0.9571  0.6489  0.6489  0.4727  0.3598  0.3598  0.2769
  0.2237  0.0856  0.1293  0.1293  0.1287  0.1836  0.1692  0.1627

 Free energy of the ion-electron system (eV)
  ---------------------------------------------------
  alpha Z        PSCENC =      1149.28122492
  Ewald energy   TEWEN  =    -22472.82826801
  -Hartree energ DENC   =    -12726.33727587
  -exchange      EXHF   =         0.00000000
  -V(xc)+E(xc)   XCENC  =      1571.34411392
  PAW double counting   =     38620.11566993   -39933.60692382
  entropy T*S    EENTRO =        -0.00981253
  eigenvalues    EBANDS =     -1407.08717740
  atomic energy  EATOM  =     34890.38139807
  Solvation  Ediel_sol  =         0.00000000
  ---------------------------------------------------
  free energy    TOTEN  =      -308.74705079 eV

  energy without entropy =     -308.73723825  energy(sigma->0) =     -308.74214452


--------------------------------------------------------------------------------------------------------




--------------------------------------- Iteration      1(  24)  ---------------------------------------


    POTLOK:  cpu time    0.0752: real time    0.0754
    SETDIJ:  cpu time    0.0098: real time    0.0098
     EDDAV:  cpu time   46.7589: real time   46.8697
    CHARGE:  cpu time    1.8572: real time    1.8616
    MIXING:  cpu time    0.0046: real time    0.0046
    --------------------------------------------
      LOOP:  cpu time   48.7057: real time   48.8211

 eigenvalue-minimisations  : 18512
 total energy-change (2. order) : 0.1672992E-01  (-0.3814329E-02)
 number of electron     396.0000021 magnetization 
 augmentation part      130.0384623 magnetization 

 Broyden mixing:
  rms(total) = 0.18785E+00    rms(broyden)= 0.18783E+00
  rms(prec ) = 0.25566E+00
  weight for this iteration     100.00

 eigenvalues of (default mixing * dielectric matrix)
  average eigenvalue GAMMA=   0.5542
  2.7266  1.2404  1.2404  0.9781  0.6453  0.6453  0.5294  0.3718  0.3718  0.3001
  0.3001  0.0856  0.1293  0.1293  0.1287  0.2009  0.1764  0.1764  0.1536

 Free energy of the ion-electron system (eV)
  ---------------------------------------------------
  alpha Z        PSCENC =      1149.28122492
  Ewald energy   TEWEN  =    -22472.82826801
  -Hartree energ DENC   =    -12726.07808009
  -exchange      EXHF   =         0.00000000
  -V(xc)+E(xc)   XCENC  =      1571.27675399
  PAW double counting   =     38627.84119683   -39941.01699442
  entropy T*S    EENTRO =        -0.00979032
  eigenvalues    EBANDS =     -1407.57776183
  atomic energy  EATOM  =     34890.38139807
  Solvation  Ediel_sol  =         0.00000000
  ---------------------------------------------------
  free energy    TOTEN  =      -308.73032086 eV

  energy without entropy =     -308.72053054  energy(sigma->0) =     -308.72542570


--------------------------------------------------------------------------------------------------------




--------------------------------------- Iteration      1(  25)  ---------------------------------------


    POTLOK:  cpu time    0.0753: real time    0.0755
    SETDIJ:  cpu time    0.0091: real time    0.0092
     EDDAV:  cpu time   46.6161: real time   46.7266
    CHARGE:  cpu time    1.8479: real time    1.8523
    MIXING:  cpu time    0.0046: real time    0.0046
    --------------------------------------------
      LOOP:  cpu time   48.5530: real time   48.6681

 eigenvalue-minimisations  : 18752
 total energy-change (2. order) : 0.9414132E-02  (-0.2241062E-02)
 number of electron     396.0000021 magnetization 
 augmentation part      130.0254236 magnetization 

 Broyden mixing:
  rms(total) = 0.13946E+00    rms(broyden)= 0.13944E+00
  rms(prec ) = 0.18962E+00
  weight for this iteration     100.00

 eigenvalues of (default mixing * dielectric matrix)
  average eigenvalue GAMMA=   0.5729
  2.8138  1.5464  1.5464  0.7027  0.7027  0.6597  0.6597  0.3774  0.3774  0.3331
  0.3331  0.0856  0.1293  0.1293  0.1287  0.2199  0.2023  0.1816  0.1713  0.1567

 Free energy of the ion-electron system (eV)
  ---------------------------------------------------
  alpha Z        PSCENC =      1149.28122492
  Ewald energy   TEWEN  =    -22472.82826801
  -Hartree energ DENC   =    -12725.80632394
  -exchange      EXHF   =         0.00000000
  -V(xc)+E(xc)   XCENC  =      1571.22582419
  PAW double counting   =     38632.87269377   -39945.84203334
  entropy T*S    EENTRO =        -0.00967821
  eigenvalues    EBANDS =     -1407.99574417
  atomic energy  EATOM  =     34890.38139807
  Solvation  Ediel_sol  =         0.00000000
  ---------------------------------------------------
  free energy    TOTEN  =      -308.72090673 eV

  energy without entropy =     -308.71122852  energy(sigma->0) =     -308.71606763


--------------------------------------------------------------------------------------------------------




--------------------------------------- Iteration      1(  26)  ---------------------------------------


    POTLOK:  cpu time    0.0742: real time    0.0744
    SETDIJ:  cpu time    0.0088: real time    0.0089
     EDDAV:  cpu time   45.3927: real time   45.5002
    CHARGE:  cpu time    1.5981: real time    1.6166
    MIXING:  cpu time    0.0048: real time    0.0070
    --------------------------------------------
      LOOP:  cpu time   47.0786: real time   47.2069

 eigenvalue-minimisations  : 18752
 total energy-change (2. order) : 0.7798368E-02  (-0.1097876E-02)
 number of electron     396.0000021 magnetization 
 augmentation part      130.0071461 magnetization 

 Broyden mixing:
  rms(total) = 0.89569E-01    rms(broyden)= 0.89559E-01
  rms(prec ) = 0.12374E+00
  weight for this iteration     100.00

 eigenvalues of (default mixing * dielectric matrix)
  average eigenvalue GAMMA=   0.5853
[...]
 -0.115  -0.291   0.093   0.057   0.401   0.132   0.365  -0.095  -0.075  -0.452   0.227  -0.059   0.433  -0.028   0.046  -0.072
  0.011  -0.209   0.262  -0.268   0.256  -0.042   0.265  -0.260   0.310  -0.286   0.029  -0.005  -0.028   0.360  -0.060   0.003
  0.048   0.068  -0.074   0.162  -0.077  -0.038  -0.086   0.075  -0.160   0.090   0.142  -0.034   0.046  -0.060   0.398  -0.009
  0.031   0.061  -0.028  -0.014  -0.086  -0.031  -0.076   0.024   0.017   0.092  -0.050   0.016  -0.072   0.003  -0.009   0.016
 -0.014   0.057  -0.030   0.051  -0.039   0.017  -0.060   0.037  -0.059   0.049  -0.004   0.001   0.004  -0.055   0.012  -0.001
  0.017  -0.015   0.003  -0.016   0.014  -0.008   0.018  -0.007   0.020  -0.015  -0.031   0.010  -0.009   0.011  -0.061   0.003


------------------------ aborting loop because EDIFF is reached ----------------------------------------


    CHARGE:  cpu time    1.7164: real time    1.7205
    FORLOC:  cpu time    0.0357: real time    0.0369
    FORNL :  cpu time    9.8135: real time    9.8368
    STRESS:  cpu time   33.7969: real time   33.8774
    FORCOR:  cpu time    0.1058: real time    0.1060
    FORHAR:  cpu time    0.0495: real time    0.0496
    MIXING:  cpu time    0.0061: real time    0.0061
    OFIELD:  cpu time    0.0001: real time    0.0001

  FORCE on cell =-STRESS in cart. coord.  units (eV):
  Direction    XX          YY          ZZ          XY          YZ          ZX
  --------------------------------------------------------------------------------------
  Alpha Z  1149.28122  1149.28122  1149.28122
  Ewald   -2485.91801 -2847.16634-17139.88647    74.78072   -40.89404   -82.25825
  Hartree  7762.89006  7662.16397 -2697.03620   -21.50694    18.09985    -3.21090
  E(xc)   -2008.80665 -2008.48748 -2011.19950    -0.16541     0.30396     0.32552
  Local  -12864.03691-12451.79604 12032.52301   -38.90853    10.71238    78.42120
  n-local  -864.81954  -875.04901  -889.17807     6.02172    -6.48680    -5.99879
  augment  3340.90953  3365.55968  3409.86913    -7.23764     5.71184     6.83600
  Kinetic  5974.43830  5989.89598  6111.71816    -6.56991     1.37859   -11.50771
  Fock        0.00000     0.00000     0.00000     0.00000     0.00000     0.00000
  -------------------------------------------------------------------------------------
  Total        3.9380143    -15.5980026    -33.9087144      6.4140066    -11.1742156    -17.3929355
  in kB       10.4533457    -41.4044492    -90.0097069     17.0257959    -29.6616339    -46.1690469
  external PRESSURE =     -40.3202701 kB  Pullay stress =       0.0000000 kB


 VOLUME and BASIS-vectors are now :
 -----------------------------------------------------------------------------
  energy-cutoff  :      500.00
  volume of cell :      603.58
      direct lattice vectors                 reciprocal lattice vectors
     8.571941750  0.000000000  0.000000000     0.116659682  0.067353499  0.000000000
    -4.285970880  7.423519320  0.000000000     0.000000000  0.134706998  0.000000000
     0.000000000  0.000000000  9.485134750     0.000000000  0.000000000  0.105428128

  length of vectors
     8.571941750  8.571941757  9.485134750     0.134706998  0.134706998  0.105428128


 FORCES acting on ions
    electron-ion (+dipol)            ewald-force                    non-local-force                 convergence-correction
 -----------------------------------------------------------------------------------------------
   0.692E+02 0.112E+03 -.916E+01   -.702E+02 -.115E+03 0.876E+01   -.342E+00 -.229E+00 -.150E+01   0.339E-01 -.811E-02 -.388E-01
   0.113E+03 0.840E+02 0.112E+02   -.116E+03 -.900E+02 -.771E+01   0.817E+00 0.326E+00 -.537E-01   -.536E-02 -.307E-01 -.485E-02
   0.936E+02 0.784E+02 0.419E+02   -.943E+02 -.792E+02 -.447E+02   0.395E+00 -.131E+01 0.117E+01   0.709E-02 0.311E-01 -.206E-01
   -.168E+02 -.106E+03 -.368E+02   0.161E+02 0.113E+03 0.407E+02   0.120E+01 0.281E+00 0.973E+00   -.149E-01 -.406E-02 -.491E-02
   0.212E+01 -.226E+02 -.213E+02   -.303E+01 0.245E+02 0.194E+02   0.366E+00 -.142E+01 0.166E+01   0.889E-02 0.100E-01 -.931E-02
   0.716E+02 -.717E+02 -.283E+02   -.756E+02 0.735E+02 0.281E+02   -.787E+00 0.127E+01 -.304E+01   0.907E-02 0.191E-01 0.275E-02
   0.210E+03 0.174E+03 0.231E+02   -.219E+03 -.183E+03 -.213E+02   0.765E+00 0.207E+01 0.246E+01   -.315E-01 -.189E-01 -.129E-01
   -.209E+02 0.437E+02 0.972E+02   0.248E+02 -.441E+02 -.950E+02   0.712E+00 -.675E+00 -.392E+00   0.142E-01 -.266E-01 -.123E-01
   0.664E+02 0.147E+02 0.454E+02   -.707E+02 -.121E+02 -.490E+02   0.175E+01 0.649E+00 -.868E+00   -.512E-02 -.151E-01 -.366E-01
   0.198E+02 0.173E+03 -.216E+02   -.178E+02 -.177E+03 0.260E+02   0.428E+00 -.277E+00 0.941E+00   0.851E-02 -.530E-02 -.865E-02
   0.180E+03 0.358E+02 0.958E+02   -.186E+03 -.374E+02 -.974E+02   0.837E+00 -.687E-01 -.935E+00   -.413E-01 -.279E-01 -.103E-01
   0.517E+02 0.407E+02 -.123E+03   -.496E+02 -.441E+02 0.127E+03   -.367E+00 0.306E+00 0.887E+00   -.229E-01 0.409E-01 -.101E-01
   -.188E+03 -.180E+03 0.114E+02   0.194E+03 0.184E+03 -.113E+02   -.142E+01 0.678E+00 0.321E+00   -.201E-01 0.119E-01 -.163E-01
   -.248E+03 0.274E+02 -.527E+02   0.259E+03 -.280E+02 0.562E+02   -.900E+00 -.200E+00 -.138E+01   -.621E-02 -.196E-01 0.975E-02
   -.240E+03 -.123E+03 0.104E+03   0.254E+03 0.131E+03 -.108E+03   -.381E+01 -.213E+01 -.231E+01   0.416E-03 0.120E-01 -.287E-01
   -.793E+01 0.551E+02 -.609E+02   0.761E+01 -.588E+02 0.619E+02   -.461E+00 -.118E+01 -.169E+01   0.858E-02 -.874E-02 -.112E-02
   -.176E+03 -.812E+02 0.167E+02   0.182E+03 0.840E+02 -.185E+02   -.120E+01 -.861E-02 -.139E+01   0.288E-01 -.142E-01 -.208E-01
   -.155E+03 -.111E+03 -.447E+02   0.162E+03 0.117E+03 0.421E+02   -.324E+00 -.160E+01 -.595E+00   0.103E-01 0.319E-01 -.150E-03
   0.796E+02 0.184E+02 -.296E+03   -.864E+02 -.146E+02 0.322E+03   0.578E+01 -.458E+01 -.261E+02   -.910E-02 0.175E-02 -.508E-01
   -.146E+02 -.464E+02 0.388E+03   0.162E+02 0.530E+02 -.418E+03   0.305E+00 -.276E+01 0.258E+02   -.398E-02 -.268E-01 -.550E-01
   0.270E+02 -.412E+02 -.367E+03   -.255E+02 0.452E+02 0.390E+03   -.247E+01 -.192E+01 -.250E+02   -.805E-02 -.232E-01 0.782E-01
   -.208E+01 0.486E+02 0.321E+03   0.171E+01 -.485E+02 -.346E+03   0.206E+01 0.404E+00 0.272E+02   0.127E-01 -.160E-01 0.453E-01
   0.746E+02 -.285E+02 -.279E+03   -.757E+02 0.312E+02 0.303E+03   0.454E+00 -.157E+01 -.266E+02   -.169E-01 0.651E-02 -.634E-01
   0.129E+03 0.523E+02 0.330E+03   -.140E+03 -.497E+02 -.358E+03   0.687E+01 -.263E+01 0.260E+02   -.281E-01 0.396E-01 -.688E-01
   -.420E+02 0.545E+02 -.355E+03   0.516E+02 -.603E+02 0.381E+03   -.805E+01 0.429E+01 -.266E+02   0.223E-01 0.139E-01 0.711E-01
   0.300E+01 0.147E+02 0.258E+03   0.793E+00 -.160E+02 -.275E+03   -.428E+01 0.165E+01 0.201E+02   -.134E-01 -.212E-02 0.546E-01
   -.328E+02 0.903E+01 -.235E+03   0.360E+02 -.944E+01 0.254E+03   -.295E+01 0.102E+01 -.226E+02   0.136E-01 -.151E-01 -.682E-01
   0.160E+03 -.256E+02 0.371E+03   -.172E+03 0.303E+02 -.400E+03   0.607E+01 -.320E+01 0.268E+02   0.876E-02 0.398E-02 -.503E-01
   0.329E+02 0.616E+02 -.348E+03   -.388E+02 -.623E+02 0.372E+03   0.615E+01 -.567E+00 -.243E+02   -.433E-02 0.664E-02 0.476E-01
   0.164E+02 -.261E+02 0.263E+03   -.142E+02 0.269E+02 -.282E+03   -.179E+01 -.432E+00 0.225E+02   -.215E-01 0.290E-02 0.627E-01
   0.656E+02 0.885E+02 -.386E+03   -.764E+02 -.100E+03 0.424E+03   0.354E+01 0.591E+01 -.331E+02   0.985E-04 -.240E-01 -.524E-01
   0.573E+02 -.814E+02 0.369E+03   -.673E+02 0.931E+02 -.397E+03   0.481E+01 -.758E+01 0.230E+02   -.307E-02 -.613E-02 -.388E-01
   0.350E+02 -.283E+01 -.356E+03   -.383E+02 0.256E+01 0.380E+03   0.121E+01 0.194E+01 -.241E+02   0.143E-01 -.169E-01 0.565E-01
   -.963E+02 -.757E+02 0.397E+03   0.109E+03 0.857E+02 -.430E+03   -.774E+01 -.690E+01 0.311E+02   -.535E-01 -.774E-02 0.416E-01
   0.249E+02 0.585E+02 -.305E+03   -.293E+02 -.651E+02 0.336E+03   0.515E+01 0.511E+01 -.285E+02   0.283E-02 0.629E-02 -.451E-01
   -.641E+02 0.331E+02 0.359E+03   0.704E+02 -.315E+02 -.389E+03   -.514E+01 -.121E+01 0.278E+02   0.352E-01 0.112E-01 -.637E-01
   0.602E+02 0.423E+02 -.443E+03   -.682E+02 -.487E+02 0.474E+03   0.456E+01 0.428E+01 -.294E+02   -.141E-01 0.248E-01 0.689E-01
   -.416E+02 0.911E+01 0.324E+03   0.426E+02 -.862E+01 -.346E+03   -.569E+00 -.129E+01 0.253E+02   0.193E-02 0.727E-02 0.472E-01
   0.967E+02 -.170E+02 -.333E+03   -.105E+03 0.171E+02 0.363E+03   0.679E+01 -.407E-02 -.295E+02   -.437E-01 -.611E-02 -.372E-01
   -.721E+02 -.999E+02 0.368E+03   0.779E+02 0.105E+03 -.395E+03   -.437E+01 -.382E+01 0.279E+02   -.136E-01 0.997E-02 -.464E-01
   0.683E+02 0.244E+02 -.409E+03   -.807E+02 -.274E+02 0.437E+03   0.954E+01 0.539E+00 -.254E+02   -.649E-02 -.117E-01 0.362E-01
   -.626E+02 -.111E+02 0.385E+03   0.685E+02 0.846E+01 -.415E+03   -.564E+01 0.125E+01 0.306E+02   0.258E-02 -.263E-01 0.244E-01
   -.887E+02 0.116E+02 -.217E+03   0.939E+02 -.131E+02 0.235E+03   -.538E+01 0.127E+01 -.212E+02   0.318E-02 0.208E-01 -.448E-01
   0.340E+02 0.794E+02 0.334E+03   -.403E+02 -.926E+02 -.362E+03   0.524E+01 0.771E+01 0.254E+02   -.215E-02 -.372E-01 -.485E-01
   -.709E+02 0.430E+01 -.370E+03   0.747E+02 -.389E+01 0.394E+03   -.282E+01 -.536E+00 -.252E+02   -.583E-02 -.962E-02 0.610E-01
   0.106E+02 0.217E+02 0.251E+03   -.105E+02 -.233E+02 -.270E+03   -.177E-01 0.161E+01 0.227E+02   0.198E-01 0.177E-01 0.299E-01
   -.680E+02 -.488E+02 -.248E+03   0.711E+02 0.522E+02 0.270E+03   -.358E+01 -.389E+01 -.248E+02   0.140E-01 0.157E-01 -.617E-01
   -.625E+02 -.374E+02 0.355E+03   0.645E+02 0.407E+02 -.381E+03   0.927E+00 -.263E+01 0.271E+02   -.897E-02 0.335E-02 -.684E-01
   -.225E+02 -.875E+02 -.361E+03   0.214E+02 0.958E+02 0.387E+03   0.112E+01 -.703E+01 -.257E+02   -.267E-02 0.528E-02 0.621E-01
   0.385E+02 0.328E+02 0.250E+03   -.423E+02 -.355E+02 -.271E+03   0.397E+01 0.281E+01 0.244E+02   0.127E-01 0.209E-01 0.594E-01
   -.384E+02 -.608E+02 -.243E+03   0.379E+02 0.628E+02 0.265E+03   -.195E+00 -.153E+01 -.234E+02   0.236E-01 -.177E-01 -.406E-01
   -.644E+02 0.169E+02 0.289E+03   0.695E+02 -.209E+02 -.307E+03   -.509E+01 0.363E+01 0.189E+02   0.468E-02 0.734E-02 -.477E-01
   -.107E+02 -.690E+02 -.344E+03   0.122E+02 0.741E+02 0.366E+03   -.275E+01 -.338E+01 -.230E+02   0.372E-02 0.104E-01 0.458E-01
   0.366E+01 -.474E+02 0.252E+03   -.681E+01 0.496E+02 -.270E+03   0.351E+01 -.185E+01 0.216E+02   0.211E-01 -.610E-02 0.543E-01
 -----------------------------------------------------------------------------------------------
   -.128E+02 0.195E+02 0.162E+02   -.224E-12 0.426E-12 0.114E-12   0.129E+02 -.194E+02 -.160E+02   -.601E-01 -.386E-01 -.229E+00
 
 
 POSITION                                       TOTAL-FORCE (eV/Angst)
 -----------------------------------------------------------------------------------
      8.53946      0.01258      0.03006        -1.333578     -3.109391     -1.941733
      8.46092      0.06806      4.50207        -2.833647     -5.741696      3.388798
     -1.41224      2.50891      9.33799        -0.295150     -2.057790     -1.648077
      7.06438      2.34577      4.50964         0.434839      7.193060      4.870175
      5.69183      4.82428      9.36119        -0.538395      0.519575     -0.331394
     -2.65055      4.75516      4.80323        -4.750133      3.107429     -3.254522
      2.96672      0.08486      9.26212        -8.094304     -6.375224      4.271239
     -1.66285      7.38391      4.44506         4.603493     -1.136538      1.721046
      1.53780      2.19541      0.03233        -2.453316      3.282421     -4.510257
      1.34023      2.54785      4.46120         2.429207     -4.487859      5.384148
      0.12181      4.85522      9.40779        -4.718993     -1.673515     -2.563675
      0.07934      4.98349      4.51946         1.715088     -3.059108      5.352639
      1.22111      7.17013      9.38694         4.739321      4.145976      0.370043
      5.45979      0.01494      4.63992         9.422220     -0.800058      2.077279
      4.12876      2.32850      0.11210        10.272819      6.260758     -6.748007
      4.18852      2.60729      4.73008        -0.770608     -4.833682     -0.641357
      2.66941      4.71333      0.05389         4.580274      2.786934     -3.195553
      2.67454      4.84740      4.67346         6.417253      4.067327     -3.132025
      0.05248      1.65961      0.84705        -1.036494     -0.825997      0.200705
      1.22240      0.56360      3.66397         1.847753      3.817203     -3.844930
      0.21647      1.37558      5.72595        -0.912539      2.012855     -1.862237
      1.17075      0.65664      8.25797         1.706941      0.462074      2.613454
     -1.22498      3.91069      1.03973        -0.664452      1.197743     -2.882566
      0.13621      3.35876      3.69789        -3.621341     -0.023873     -1.956880
     -1.33253      4.09938      5.66833         1.530884     -1.499032     -0.621244
      0.00692      3.17929      7.97903        -0.504090      0.355259      3.917479
     -2.92954      6.43117      1.08471         0.192183      0.591192     -3.058229
     -1.09260      5.61248      3.63702        -6.472053      1.543436     -2.687729
     -2.94829      6.59616      5.39269         0.297223     -1.241506      0.549561
     -1.52564      5.57463      8.19876         0.415409      0.412199      3.044818
      3.00046      1.67611      0.86906        -7.229225     -5.687728      5.646402
      4.31108      0.71442      3.83104        -5.148690      4.178096     -5.033602
      2.87770      1.45789      5.46692        -1.999078      1.652826      0.067601
      4.16098      0.61038      8.39603         5.335824      3.045828     -2.645232
      1.31766      3.95624      0.81184         0.700078     -1.442331      1.826598
      2.75713      3.26638      3.75399         1.194197      0.464203     -1.461742
      1.48393      4.16149      5.59044        -3.487250     -2.134514      1.108064
      2.69754      3.25612      8.18913         0.461074     -0.792400      3.646603
      0.00434      6.40241      0.90241        -1.220967      0.081196     -0.121405
      1.37838      5.51085      3.46183         1.415139      1.743724      0.933972
     -0.04600      6.63411      5.38138        -2.831663     -2.434420      2.445583
      1.39247      5.72427      8.37823         0.300024     -1.453470      0.694630
      5.58602      1.56926      1.21818        -0.213959     -0.156776     -3.110336
      7.04230      0.93760      3.80348        -1.033648     -5.552770     -3.065678
      5.46749      1.64505      5.71750         0.931407     -0.130616     -1.427435
      7.00304      0.78169      8.22427         0.185815      0.007403      3.332430
      4.23325      4.03071      1.11141        -0.500749     -0.475413     -2.730122
      5.38877      3.25155      3.62410         2.929529      0.680095      0.984705
      4.26600      4.07877      5.66686        -0.044055      1.271607      0.232253
      5.70074      3.21585      8.17821         0.247450      0.145787      3.925457
      2.83744      6.42028      1.00945        -0.692079      0.441036     -1.633300
      4.10074      5.71345      3.63252         0.053906     -0.350588      0.830976
      2.86800      6.42647      5.55725        -1.335134      1.715509     -0.932701
      4.18298      5.52226      8.23827         0.376242      0.293546      3.605310
 -----------------------------------------------------------------------------------
    total drift:                               -0.013133      0.016707      0.005672


--------------------------------------------------------------------------------------------------------



  FREE ENERGIE OF THE ION-ELECTRON SYSTEM (eV)
  ---------------------------------------------------
  free  energy   TOTEN  =      -308.7060529990 eV

  energy  without entropy=     -308.6953116828  energy(sigma->0) =     -308.70068234
 


--------------------------------------------------------------------------------------------------------


    POTLOK:  cpu time    0.0863: real time    0.0865


--------------------------------------------------------------------------------------------------------


     LOOP+:  cpu time 1695.0112: real time 1700.0294
    4ORBIT:  cpu time    0.0000: real time    0.0000

volume of typ            1:    19.0 %

volume of typ            2:     9.7 %
 
total charge     
 
# of ion       s       p       d       tot
------------------------------------------
    1        0.254   0.295   7.782   8.331
    2        0.319   0.448   7.833   8.600
    3        0.243   0.280   7.785   8.309
    4        0.274   0.323   7.890   8.487
    5        0.238   0.266   7.766   8.269
    6        0.270   0.306   7.826   8.402
    7        0.287   0.346   7.898   8.531
    8        0.304   0.404   7.842   8.550
    9        0.280   0.351   7.847   8.478
   10        0.308   0.387   7.857   8.553
   11        0.284   0.364   7.822   8.470
   12        0.344   0.498   7.878   8.720
   13        0.282   0.350   7.833   8.465
   14        0.335   0.443   7.896   8.673
   15        0.312   0.389   7.893   8.594
   16        0.315   0.433   7.827   8.575
   17        0.272   0.340   7.802   8.414
   18        0.320   0.456   7.834   8.610
   19        1.282   2.722   0.009   4.013
   20        1.284   2.770   0.013   4.068
   21        1.305   2.636   0.005   3.946
   22        1.302   2.633   0.006   3.941
   23        1.296   2.649   0.005   3.950
   24        1.286   2.752   0.012   4.050
   25        1.291   2.696   0.008   3.996
   26        1.314   2.561   0.003   3.877
   27        1.297   2.620   0.003   3.921
   28        1.292   2.734   0.012   4.038
   29        1.294   2.697   0.008   3.999
   30        1.301   2.611   0.004   3.916
   31        1.288   2.813   0.022   4.122
   32        1.290   2.760   0.013   4.064
   33        1.291   2.690   0.007   3.988
   34        1.293   2.748   0.015   4.056
   35        1.283   2.754   0.012   4.050
   36        1.281   2.764   0.011   4.055
   37        1.291   2.735   0.011   4.037
   38        1.305   2.611   0.004   3.920
   39        1.291   2.705   0.009   4.006
   40        1.299   2.679   0.008   3.986
   41        1.290   2.755   0.012   4.057
   42        1.293   2.699   0.009   4.001
   43        1.303   2.599   0.003   3.905
   44        1.278   2.793   0.015   4.086
   45        1.300   2.649   0.006   3.954
   46        1.302   2.599   0.003   3.905
   47        1.300   2.626   0.005   3.931
   48        1.297   2.673   0.008   3.977
   49        1.294   2.685   0.008   3.987
   50        1.301   2.615   0.004   3.920
   51        1.292   2.647   0.004   3.943
   52        1.298   2.636   0.004   3.938
   53        1.288   2.683   0.006   3.977
   54        1.308   2.584   0.003   3.895
--------------------------------------------------
tot          51.84  103.26  141.40  296.50
 

 total amount of memory used by VASP MPI-rank0   186398. kBytes
=======================================================================

   base      :      30000. kBytes
   nonlr-proj:      30017. kBytes
   fftplans  :       6058. kBytes
   grid      :      19644. kBytes
   one-center:        839. kBytes
   wavefun   :      99840. kBytes
 
  
  
 General timing and accounting informations for this job:
 ========================================================
  
                  Total CPU time used (sec):     1724.118
                            User time (sec):     1720.056
                          System time (sec):        4.062
                         Elapsed time (sec):     1732.858
  
                   Maximum memory used (kb):      251132.
                   Average memory used (kb):           0.
  
                          Minor page faults:        36508
                          Major page faults:           75
                 Voluntary context switches:         1258
