 vasp.5.4.4.18Apr17-6-g9f103f2a35 (build May 12 2020 04:58:55) complex          
  
 MD_VERSION_INFO: Compiled 2020-05-12T11:58:55-UTC in devlin.sd.materialsdesign.
 com:/home/medea2/data/build/wwolf/vasp-gpu5.4.4/13047/x86_64/src/src/build/std 
 from svn 13047
 
 This VASP executable licensed from Materials Design, Inc.
 
 executed on                        Lin64 date 2023.04.27  07:59:18
 running on   16 total cores
 distrk:  each k-point on   16 cores,    1 groups
 distr:  one band on NCORES_PER_BAND=   1 cores,   16 groups


--------------------------------------------------------------------------------------------------------


 INCAR:
 POTCAR:    PAW_PBE Ni 02Aug2007                  
 POTCAR:    PAW_PBE O 08Apr2002                   

 ----------------------------------------------------------------------------- 
|                                                                             |
|           W    W    AA    RRRRR   N    N  II  N    N   GGGG   !!!           |
|           W    W   A  A   R    R  NN   N  II  NN   N  G    G  !!!           |
|           W    W  A    A  R    R  N N  N  II  N N  N  G       !!!           |
|           W WW W  AAAAAA  RRRRR   N  N N  II  N  N N  G  GGG   !            |
|           WW  WW  A    A  R   R   N   NN  II  N   NN  G    G                |
|           W    W  A    A  R    R  N    N  II  N    N   GGGG   !!!           |
|                                                                             |
|      For optimal performance we recommend to set                            |
|        NCORE= 4 - approx SQRT( number of cores)                             |
|      NCORE specifies how many cores store one orbital (NPAR=cpu/NCORE).     |
|      This setting can  greatly improve the performance of VASP for DFT.     |
|      The default,   NCORE=1            might be grossly inefficient         |
|      on modern multi-core architectures or massively parallel machines.     |
|      Do your own testing !!!!                                               |
|      Unfortunately you need to use the default for GW and RPA calculations. |
|      (for HF NCORE is supported but not extensively tested yet)             |
|                                                                             |
 ----------------------------------------------------------------------------- 

 POTCAR:    PAW_PBE Ni 02Aug2007                  
  local pseudopotential read in
  partial core-charges read in
  partial kinetic energy density read in
  atomic valenz-charges read in
  non local Contribution for L=           2  read in
    real space projection operators read in
  non local Contribution for L=           2  read in
    real space projection operators read in
  non local Contribution for L=           0  read in
    real space projection operators read in
  non local Contribution for L=           0  read in
    real space projection operators read in
  non local Contribution for L=           1  read in
    real space projection operators read in
  non local Contribution for L=           1  read in
    real space projection operators read in
    PAW grid and wavefunctions read in
 
   number of l-projection  operators is LMAX  =           6
   number of lm-projection operators is LMMAX =          18
 
 POTCAR:    PAW_PBE O 08Apr2002                   
  local pseudopotential read in
  partial core-charges read in
  partial kinetic energy density read in
  kinetic energy density of atom read in
  atomic valenz-charges read in
  non local Contribution for L=           0  read in
    real space projection operators read in
  non local Contribution for L=           0  read in
    real space projection operators read in
  non local Contribution for L=           1  read in
    real space projection operators read in
  non local Contribution for L=           1  read in
    real space projection operators read in
    PAW grid and wavefunctions read in
 
   number of l-projection  operators is LMAX  =           4
   number of lm-projection operators is LMMAX =           8
 
 Optimization of the real space projectors (new method)

 maximal supplied QI-value         = 16.25
 optimisation between [QCUT,QGAM] = [ 11.38, 22.75] = [ 36.24,144.96] Ry 
 Optimized for a Real-space Cutoff    1.47 Angstroem

   l    n(q)    QCUT    max X(q) W(low)/X(q) W(high)/X(q)  e(spline) 
   2      9    11.376    60.317    0.17E-03    0.16E-04    0.16E-06
   2      9    11.376    55.921    0.17E-03    0.16E-04    0.17E-06
   0     10    11.376    51.690    0.45E-04    0.60E-04    0.21E-06
   0     10    11.376    30.015    0.37E-04    0.55E-04    0.19E-06
   1     10    11.376    18.849    0.83E-04    0.11E-03    0.92E-07
   1     10    11.376    14.624    0.69E-04    0.92E-04    0.82E-07
 Optimization of the real space projectors (new method)

 maximal supplied QI-value         = 24.76
 optimisation between [QCUT,QGAM] = [ 11.39, 22.77] = [ 36.31,145.25] Ry 
 Optimized for a Real-space Cutoff    1.10 Angstroem

   l    n(q)    QCUT    max X(q) W(low)/X(q) W(high)/X(q)  e(spline) 
   0      7    11.387    20.381    0.22E-03    0.48E-03    0.18E-06
   0      7    11.387    15.268    0.22E-03    0.52E-03    0.19E-06
   1      7    11.387     5.964    0.22E-03    0.73E-03    0.24E-06
   1      7    11.387     5.382    0.19E-03    0.60E-03    0.21E-06

 ----------------------------------------------------------------------------- 
|                                                                             |
|  ADVICE TO THIS USER RUNNING 'VASP/VAMP'   (HEAR YOUR MASTER'S VOICE ...):  |
|                                                                             |
|      You enforced a specific xc-type in the INCAR file,                     |
|      a different type was found on the POTCAR file                          |
|          I HOPE YOU KNOW, WHAT YOU ARE  DOING                               |
|                                                                             |
 ----------------------------------------------------------------------------- 

  PAW_PBE Ni 02Aug2007                  :
 energy of atom  1       EATOM=-1077.6739
 kinetic energy error for atom=    0.0030 (will be added to EATOM!!)
  PAW_PBE O 08Apr2002                   :
 energy of atom  2       EATOM= -432.3788
 kinetic energy error for atom=    0.0224 (will be added to EATOM!!)
 
 
 POSCAR: NiO2_C2_m_scale_1_025_disp_0_10_round_2 
  positions in direct lattice
  No initial velocities read in
 exchange correlation table for  LEXCH =       14
   RHO(1)=    0.500       N(1)  =     2000
   RHO(2)=  100.500       N(2)  =     4000
 


--------------------------------------------------------------------------------------------------------


 ion  position               nearest neighbor table
   1  0.015  0.017  0.009-  19 1.76  51 1.92  27 2.04  22 2.10  46 2.23  54 2.39   9 2.52   3 2.67
                             7 2.90  17 2.98
   2  0.993  0.006  0.486-  53 1.90  44 1.92  21 2.00  52 2.02  20 2.06  29 2.18   4 2.60   8 2.83
                            10 2.87  14 3.01
   3  0.995  0.318  0.999-  19 1.65  46 1.81  23 1.91  43 1.91  50 1.99  26 2.03   1 2.67   5 2.72
                             9 2.79  11 2.83  13 2.96  15 2.99
   4  0.004  0.314  0.488-  44 1.72  21 1.75  24 1.77  25 1.89  48 2.06  45 2.23   2 2.60  10 2.68
                            12 2.81   6 2.87  16 3.04
   5  0.015  0.644  0.996-  23 1.69  30 1.86  27 1.88  50 1.96  47 2.24  54 2.34  11 2.63   3 2.72
                             7 2.82  15 2.98
   6  0.010  0.651  0.487-  28 1.83  25 1.86  48 1.91  29 1.93  52 2.07  49 2.09  12 2.66   8 2.69
                            16 2.83   4 2.87
   7  0.335  0.982  0.999-  34 1.90  27 1.93  39 1.96  22 1.99  30 2.12  31 2.12  13 2.48  15 2.79
                            11 2.81   5 2.82   9 2.86   1 2.90
   8  0.309  0.979  0.479-  29 1.90  28 1.95  20 1.99  32 2.06  33 2.08  41 2.15   6 2.69  14 2.76
                             2 2.83  12 2.86  10 3.01  16 3.08
   9  0.315  0.305  0.999-  31 1.68  26 1.80  19 1.89  35 1.89  22 1.96  38 2.14   1 2.52  15 2.79
                             3 2.79   7 2.86  11 2.92  17 3.08
  10  0.329  0.339  0.491-  37 1.73  36 1.78  24 1.83  21 1.87  33 1.88  20 1.98  18 2.54   4 2.68
                            12 2.72  16 2.86   2 2.87   8 3.01
  11  0.324  0.649  0.995-  39 1.72  42 1.83  23 1.85  30 2.00  26 2.01  35 2.05   5 2.63  17 2.79
                             7 2.81  13 2.81   3 2.83   9 2.92
  12  0.320  0.651  0.478-  24 1.85  40 1.87  25 1.89  28 1.95  37 1.96  41 2.13  14 2.64   6 2.66
                            10 2.72  18 2.74   4 2.81   8 2.86
  13  0.631  0.995  0.005-  39 1.83  43 1.83  34 2.02  42 2.07  46 2.13  51 2.16   7 2.48  15 2.72
                            11 2.81  17 2.88   3 2.96
  14  0.623  0.964  0.493-  40 1.64  41 1.67  32 2.02  53 2.03  45 2.04  44 2.08  12 2.64   8 2.76
                            18 2.87   2 3.01  16 3.08
  15  0.648  0.320  0.998-  31 1.91  47 1.91  43 1.94  50 2.00  34 2.00  38 2.13  13 2.72   9 2.79
                             7 2.79   5 2.98  17 2.99   3 2.99
  16  0.664  0.341  0.484-  49 1.57  45 1.81  32 1.88  36 1.91  48 1.92  33 1.98  18 2.67   6 2.83
                            10 2.86   4 3.04   8 3.08  14 3.08
  17  0.661  0.675  0.008-  54 1.82  51 1.86  47 1.95  38 2.03  35 2.04  42 2.09  11 2.79  13 2.88
                             1 2.98  15 2.99   9 3.08
  18  0.628  0.631  0.511-  37 1.65  53 1.86  49 1.91  36 1.94  40 2.11  52 2.33  10 2.54  16 2.67
                            12 2.74  14 2.87
  19  0.093  0.226  0.091-   3 1.65   1 1.76   9 1.89
  20  0.227  0.122  0.369-  10 1.98   8 1.99   2 2.06
  21  0.116  0.235  0.596-   4 1.75  10 1.87   2 2.00
  22  0.235  0.097  0.873-   9 1.96   7 1.99   1 2.10
  23  0.108  0.546  0.093-   5 1.69  11 1.85   3 1.91
  24  0.208  0.428  0.391-   4 1.77  10 1.83  12 1.85
  25  0.108  0.535  0.588-   6 1.86  12 1.89   4 1.89
  26  0.229  0.416  0.888-   9 1.80  11 2.01   3 2.03
  27  0.108  0.862  0.097-   5 1.88   7 1.93   1 2.04
  28  0.204  0.757  0.368-   6 1.83  12 1.95   8 1.95
  29  0.108  0.866  0.601-   8 1.90   6 1.93   2 2.18
  30  0.208  0.749  0.870-   5 1.86  11 2.00   7 2.12
  31  0.428  0.234  0.100-   9 1.68  15 1.91   7 2.12
  32  0.557  0.124  0.383-  16 1.88  14 2.02   8 2.06
  33  0.432  0.221  0.588-  10 1.88  16 1.98   8 2.08
  34  0.529  0.106  0.871-   7 1.90  15 2.00  13 2.02
  35  0.424  0.515  0.110-   9 1.89  17 2.04  11 2.05
  36  0.526  0.426  0.385-  10 1.78  16 1.91  18 1.94
  37  0.428  0.537  0.588-  18 1.65  10 1.73  12 1.96
  38  0.552  0.461  0.875-  17 2.03  15 2.13   9 2.14
  39  0.424  0.841  0.098-  11 1.72  13 1.83   7 1.96
  40  0.546  0.785  0.391-  14 1.64  12 1.87  18 2.11
  41  0.452  0.884  0.608-  14 1.67  12 2.13   8 2.15
  42  0.522  0.764  0.882-  11 1.83  13 2.07  17 2.09
  43  0.769  0.211  0.095-  13 1.83   3 1.91  15 1.94
  44  0.872  0.117  0.397-   4 1.72   2 1.92  14 2.08
  45  0.734  0.210  0.587-  16 1.81  14 2.04   4 2.23
  46  0.872  0.126  0.883-   3 1.81  13 2.13   1 2.23
  47  0.750  0.536  0.107-  15 1.91  17 1.95   5 2.24
  48  0.884  0.434  0.380-   6 1.91  16 1.92   4 2.06
  49  0.755  0.516  0.578-  16 1.57  18 1.91   6 2.09
  50  0.875  0.423  0.886-   5 1.96   3 1.99  15 2.00
  51  0.787  0.892  0.105-  17 1.86   1 1.92  13 2.16
  52  0.891  0.773  0.376-   2 2.02   6 2.07  18 2.33
  53  0.771  0.864  0.581-  18 1.86   2 1.90  14 2.03
  54  0.841  0.745  0.879-  17 1.82   5 2.34   1 2.39
 
  LATTYP: Found a hexagonal cell.
 ALAT       =     8.5719417516
 C/A-ratio  =     1.1065328049
  
  Lattice vectors:
  
 A1 = (   8.5719417500,   0.0000000000,   0.0000000000)
 A2 = (  -4.2859708800,   7.4235193200,   0.0000000000)
 A3 = (   0.0000000000,   0.0000000000,   9.4851347500)


Analysis of symmetry for initial positions (statically):
=====================================================================
 Subroutine PRICEL returns:
 Original cell was already a primitive cell.
 

 Routine SETGRP: Setting up the symmetry group for a 
 hexagonal supercell.


 Subroutine GETGRP returns: Found  1 space group operations
 (whereof  1 operations were pure point group operations)
 out of a pool of 24 trial point group operations.


The static configuration has the point symmetry C_1 .


Analysis of symmetry for dynamics (positions and initial velocities):
=====================================================================
 Subroutine PRICEL returns:
 Original cell was already a primitive cell.
 

 Routine SETGRP: Setting up the symmetry group for a 
 hexagonal supercell.


 Subroutine GETGRP returns: Found  1 space group operations
 (whereof  1 operations were pure point group operations)
 out of a pool of 24 trial point group operations.


The dynamic configuration has the point symmetry C_1 .


 Subroutine INISYM returns: Found  1 space group operations
 (whereof  1 operations are pure point group operations),
 and found     1 'primitive' translations

 
 
 KPOINTS: Automatic mesh                          

Automatic generation of k-mesh.
Space group operators:
 irot       det(A)        alpha          n_x          n_y          n_z        tau_x        tau_y        tau_z
    1     1.000000     0.000000     1.000000     0.000000     0.000000     0.000000     0.000000     0.000000
 
 Subroutine IBZKPT returns following result:
 ===========================================
 
 Found     26 irreducible k-points:
 
 Following reciprocal coordinates:
            Coordinates               Weight
  0.000000  0.000000  0.000000      1.000000
  0.250000  0.000000  0.000000      2.000000
  0.500000  0.000000  0.000000      1.000000
  0.000000  0.250000  0.000000      2.000000
  0.250000  0.250000  0.000000      2.000000
  0.500000  0.250000  0.000000      2.000000
 -0.250000  0.250000  0.000000      2.000000
  0.000000  0.500000  0.000000      1.000000
  0.250000  0.500000  0.000000      2.000000
  0.500000  0.500000  0.000000      1.000000
  0.000000  0.000000  0.333333      2.000000
  0.250000  0.000000  0.333333      2.000000
  0.500000  0.000000  0.333333      2.000000
 -0.250000  0.000000  0.333333      2.000000
  0.000000  0.250000  0.333333      2.000000
  0.250000  0.250000  0.333333      2.000000
  0.500000  0.250000  0.333333      2.000000
 -0.250000  0.250000  0.333333      2.000000
  0.000000  0.500000  0.333333      2.000000
  0.250000  0.500000  0.333333      2.000000
  0.500000  0.500000  0.333333      2.000000
 -0.250000  0.500000  0.333333      2.000000
  0.000000 -0.250000  0.333333      2.000000
  0.250000 -0.250000  0.333333      2.000000
  0.500000 -0.250000  0.333333      2.000000
 -0.250000 -0.250000  0.333333      2.000000
 
 Following cartesian coordinates:
            Coordinates               Weight
  0.000000  0.000000  0.000000      1.000000
  0.029165  0.016838  0.000000      2.000000
  0.058330  0.033677  0.000000      1.000000
  0.000000  0.033677  0.000000      2.000000
  0.029165  0.050515  0.000000      2.000000
  0.058330  0.067353  0.000000      2.000000
 -0.029165  0.016838  0.000000      2.000000
  0.000000  0.067353  0.000000      1.000000
  0.029165  0.084192  0.000000      2.000000
  0.058330  0.101030  0.000000      1.000000
  0.000000  0.000000  0.035143      2.000000
  0.029165  0.016838  0.035143      2.000000
  0.058330  0.033677  0.035143      2.000000
 -0.029165 -0.016838  0.035143      2.000000
  0.000000  0.033677  0.035143      2.000000
  0.029165  0.050515  0.035143      2.000000
  0.058330  0.067353  0.035143      2.000000
 -0.029165  0.016838  0.035143      2.000000
  0.000000  0.067353  0.035143      2.000000
  0.029165  0.084192  0.035143      2.000000
  0.058330  0.101030  0.035143      2.000000
 -0.029165  0.050515  0.035143      2.000000
  0.000000 -0.033677  0.035143      2.000000
  0.029165 -0.016838  0.035143      2.000000
  0.058330  0.000000  0.035143      2.000000
 -0.029165 -0.050515  0.035143      2.000000
 


--------------------------------------------------------------------------------------------------------




 Dimension of arrays:
   k-points           NKPTS =     26   k-points in BZ     NKDIM =     26   number of bands    NBANDS=    240
   number of dos      NEDOS =    301   number of ions     NIONS =     54
   non local maximal  LDIM  =      6   non local SUM 2l+1 LMDIM =     18
   total plane-waves  NPLWV = 286720
   max r-space proj   IRMAX =   6427   max aug-charges    IRDMAX=  15596
   dimension x,y,z NGX =    64 NGY =   64 NGZ =   70
   dimension x,y,z NGXF=   128 NGYF=  128 NGZF=  140
   support grid    NGXF=   128 NGYF=  128 NGZF=  140
   ions per type =              18  36
   NGX,Y,Z   is equivalent  to a cutoff of  12.41, 12.41, 12.27 a.u.
   NGXF,Y,Z  is equivalent  to a cutoff of  24.82, 24.82, 24.54 a.u.

 SYSTEM =  unknown system                          
 POSCAR =  NiO2_C2_m_scale_1_025_disp_0_10_round_2 

 Startparameter for this run:
   NWRITE =      1    write-flag & timer
   PREC   = accura    normal or accurate (medium, high low for compatibility)
   ISTART =      0    job   : 0-new  1-cont  2-samecut
   ICHARG =      2    charge: 1-file 2-atom 10-const
   ISPIN  =      1    spin polarized calculation?
   LNONCOLLINEAR =      F non collinear calculations
   LSORBIT =      F    spin-orbit coupling
   INIWAV =      1    electr: 0-lowe 1-rand  2-diag
   LASPH  =      F    aspherical Exc in radial PAW
   METAGGA=      F    non-selfconsistent MetaGGA calc.

 Electronic Relaxation 1
   ENCUT  =  500.0 eV  36.75 Ry    6.06 a.u.  15.63 15.63 17.29*2*pi/ulx,y,z
   ENINI  =  500.0     initial cutoff
   ENAUG  =  605.4 eV  augmentation charge cutoff
   NELM   =    120;   NELMIN=  2; NELMDL= -5     # of ELM steps 
   EDIFF  = 0.1E-04   stopping-criterion for ELM
   LREAL  =      T    real-space projection
   NLSPLINE    = F    spline interpolate recip. space projectors
   LCOMPAT=      F    compatible to vasp.4.4
   GGA_COMPAT  = T    GGA compatible to vasp.4.4-vasp.4.6
   LMAXPAW     = -100 max onsite density
   LMAXMIX     =    2 max onsite mixed and CHGCAR
   VOSKOWN=      1    Vosko Wilk Nusair interpolation
   ROPT   =   -0.00025  -0.00025
 Ionic relaxation
   EDIFFG = 0.1E-03   stopping-criterion for IOM
   NSW    =      0    number of steps for IOM
   NBLOCK =      1;   KBLOCK =      1    inner block; outer block 
   IBRION =     -1    ionic relax: 0-MD 1-quasi-New 2-CG
   NFREE  =      0    steps in history (QN), initial steepest desc. (CG)
   ISIF   =      2    stress and relaxation
   IWAVPR =     10    prediction:  0-non 1-charg 2-wave 3-comb
   ISYM   =      2    0-nonsym 1-usesym 2-fastsym
   LCORR  =      T    Harris-Foulkes like correction to forces

   POTIM  = 0.5000    time-step for ionic-motion
   TEIN   =    0.0    initial temperature
   TEBEG  =    0.0;   TEEND  =   0.0 temperature during run
   SMASS  =  -3.00    Nose mass-parameter (am)
   estimated Nose-frequenzy (Omega)   =  0.10E-29 period in steps =****** mass=  -0.168E-26a.u.
   SCALEE = 1.0000    scale energy and forces
   NPACO  =    256;   APACO  = 16.0  distance and # of slots for P.C.
   PSTRESS=    0.0 pullay stress

  Mass of Ions in am
   POMASS =  58.69 16.00
  Ionic Valenz
   ZVAL   =  10.00  6.00
  Atomic Wigner-Seitz radii
   RWIGS  =   1.15  0.73
  virtual crystal weights 
   VCA    =   1.00  1.00
   NELECT =     396.0000    total number of electrons
   NUPDOWN=      -1.0000    fix difference up-down

 DOS related values:
   EMIN   =  10.00;   EMAX   =-10.00  energy-range for DOS
   EFERMI =   0.00
   ISMEAR =     0;   SIGMA  =   0.05  broadening in eV -4-tet -1-fermi 0-gaus

 Electronic relaxation 2 (details)
   IALGO  =     38    algorithm
   LDIAG  =      T    sub-space diagonalisation (order eigenvalues)
   LSUBROT=      F    optimize rotation matrix (better conditioning)
   TURBO    =      0    0=normal 1=particle mesh
   IRESTART =      0    0=no restart 2=restart with 2 vectors
   NREBOOT  =      0    no. of reboots
   NMIN     =      0    reboot dimension
   EREF     =   0.00    reference energy to select bands
   IMIX   =      4    mixing-type and parameters
     AMIX     =   0.40;   BMIX     =  1.00
     AMIX_MAG =   1.60;   BMIX_MAG =  1.00
     AMIN     =   0.10
     WC   =   100.;   INIMIX=   1;  MIXPRE=   1;  MAXMIX= -45

 Intra band minimization:
   WEIMIN = 0.0000     energy-eigenvalue tresh-hold
   EBREAK =  0.10E-07  absolut break condition
   DEPER  =   0.30     relativ break condition  

   TIME   =   0.40     timestep for ELM

  volume/ion in A,a.u.               =      11.18        75.43
  Fermi-wavevector in a.u.,A,eV,Ry     =   1.422533  2.688198 27.532754  2.023600
  Thomas-Fermi vector in A             =   2.543227
 
 Write flags
   LWAVE        =      F    write WAVECAR
   LDOWNSAMPLE  =      F    k-point downsampling of WAVECAR
   LCHARG       =      T    write CHGCAR
   LVTOT        =      F    write LOCPOT, total local potential
   LVHAR        =      F    write LOCPOT, Hartree potential only
   LELF         =      F    write electronic localiz. function (ELF)
   LORBIT       =      0    0 simple, 1 ext, 2 COOP (PROOUT), +10 PAW based schemes


 Dipole corrections
   LMONO  =      F    monopole corrections only (constant potential shift)
   LDIPOL =      F    correct potential (dipole corrections)
   IDIPOL =      0    1-x, 2-y, 3-z, 4-all directions 
   EPSILON=  1.0000000 bulk dielectric constant

 Exchange correlation treatment:
   GGA     =    PS    GGA type
   LEXCH   =    14    internal setting for exchange type
   VOSKOWN=      1    Vosko Wilk Nusair interpolation
   LHFCALC =     F    Hartree Fock is set to
   LHFONE  =     F    Hartree Fock one center treatment
   AEXX    =    0.0000 exact exchange contribution

 Linear response parameters
   LEPSILON=     F    determine dielectric tensor
   LRPA    =     F    only Hartree local field effects (RPA)
   LNABLA  =     F    use nabla operator in PAW spheres
   LVEL    =     F    velocity operator in full k-point grid
   LINTERFAST=   F  fast interpolation
   KINTER  =     0    interpolate to denser k-point grid
   CSHIFT  =0.1000    complex shift for real part using Kramers Kronig
   OMEGAMAX=  -1.0    maximum frequency
   DEG_THRESHOLD= 0.2000000E-02 threshold for treating states as degnerate
   RTIME   =   -0.100 relaxation time in fs
  (WPLASMAI=    0.000 imaginary part of plasma frequency in eV, 0.658/RTIME)
   DFIELD  = 0.0000000 0.0000000 0.0000000 field for delta impulse in time
 
 Orbital magnetization related:
   ORBITALMAG=     F  switch on orbital magnetization
   LCHIMAG   =     F  perturbation theory with respect to B field
   DQ        =  0.001000  dq finite difference perturbation B field
   LLRAUG    =     F  two centre corrections for induced B field



--------------------------------------------------------------------------------------------------------


 Static calculation
 charge density and potential will be updated during run
 non-spin polarized calculation
 Variant of blocked Davidson
 Davidson routine will perform the subspace rotation
 perform sub-space diagonalisation
    after iterative eigenvector-optimisation
 modified Broyden-mixing scheme, WC =      100.0
 initial mixing is a Kerker type mixing with AMIX =  0.4000 and BMIX =      1.0000
 Hartree-type preconditioning will be used
 using additional bands           42
 real space projection scheme for non local part
 use partial core corrections
 calculate Harris-corrections to forces 
   (improved forces if not selfconsistent)
 use gradient corrections 
 use of overlap-Matrix (Vanderbilt PP)
 Gauss-broadening in eV      SIGMA  =   0.05


--------------------------------------------------------------------------------------------------------


  energy-cutoff  :      500.00
  volume of cell :      603.58
      direct lattice vectors                 reciprocal lattice vectors
     8.571941750  0.000000000  0.000000000     0.116659682  0.067353499  0.000000000
    -4.285970880  7.423519320  0.000000000     0.000000000  0.134706998  0.000000000
     0.000000000  0.000000000  9.485134750     0.000000000  0.000000000  0.105428128

  length of vectors
     8.571941750  8.571941757  9.485134750     0.134706998  0.134706998  0.105428128


 
 k-points in units of 2pi/SCALE and weight: Automatic mesh                          
   0.00000000  0.00000000  0.00000000       0.021
   0.02916492  0.01683837  0.00000000       0.042
   0.05832984  0.03367675  0.00000000       0.021
   0.00000000  0.03367675  0.00000000       0.042
   0.02916492  0.05051512  0.00000000       0.042
   0.05832984  0.06735350  0.00000000       0.042
  -0.02916492  0.01683837  0.00000000       0.042
   0.00000000  0.06735350  0.00000000       0.021
   0.02916492  0.08419187  0.00000000       0.042
   0.05832984  0.10103025  0.00000000       0.021
   0.00000000  0.00000000  0.03514271       0.042
   0.02916492  0.01683837  0.03514271       0.042
   0.05832984  0.03367675  0.03514271       0.042
  -0.02916492 -0.01683837  0.03514271       0.042
   0.00000000  0.03367675  0.03514271       0.042
   0.02916492  0.05051512  0.03514271       0.042
   0.05832984  0.06735350  0.03514271       0.042
  -0.02916492  0.01683837  0.03514271       0.042
   0.00000000  0.06735350  0.03514271       0.042
   0.02916492  0.08419187  0.03514271       0.042
   0.05832984  0.10103025  0.03514271       0.042
  -0.02916492  0.05051512  0.03514271       0.042
   0.00000000 -0.03367675  0.03514271       0.042
   0.02916492 -0.01683837  0.03514271       0.042
   0.05832984  0.00000000  0.03514271       0.042
  -0.02916492 -0.05051512  0.03514271       0.042
 
 k-points in reciprocal lattice and weights: Automatic mesh                          
   0.00000000  0.00000000  0.00000000       0.021
   0.25000000  0.00000000  0.00000000       0.042
   0.50000000  0.00000000  0.00000000       0.021
   0.00000000  0.25000000  0.00000000       0.042
   0.25000000  0.25000000  0.00000000       0.042
   0.50000000  0.25000000  0.00000000       0.042
  -0.25000000  0.25000000  0.00000000       0.042
   0.00000000  0.50000000  0.00000000       0.021
   0.25000000  0.50000000  0.00000000       0.042
   0.50000000  0.50000000  0.00000000       0.021
   0.00000000  0.00000000  0.33333333       0.042
   0.25000000  0.00000000  0.33333333       0.042
   0.50000000  0.00000000  0.33333333       0.042
  -0.25000000  0.00000000  0.33333333       0.042
   0.00000000  0.25000000  0.33333333       0.042
   0.25000000  0.25000000  0.33333333       0.042
   0.50000000  0.25000000  0.33333333       0.042
  -0.25000000  0.25000000  0.33333333       0.042
   0.00000000  0.50000000  0.33333333       0.042
   0.25000000  0.50000000  0.33333333       0.042
   0.50000000  0.50000000  0.33333333       0.042
  -0.25000000  0.50000000  0.33333333       0.042
   0.00000000 -0.25000000  0.33333333       0.042
   0.25000000 -0.25000000  0.33333333       0.042
   0.50000000 -0.25000000  0.33333333       0.042
  -0.25000000 -0.25000000  0.33333333       0.042
 
 position of ions in fractional coordinates (direct lattice) 
   0.01511568  0.01658507  0.00866514
   0.99345155  0.00555065  0.48594769
   0.99533642  0.31758008  0.99901461
   0.00419387  0.31358525  0.48797864
   0.01509885  0.64409038  0.99586405
   0.01004163  0.65143858  0.48674962
   0.33514062  0.98199585  0.99857533
   0.30887698  0.97851457  0.47864360
   0.31453047  0.30462443  0.99868639
   0.32884815  0.33860808  0.49115268
   0.32429432  0.64949108  0.99533717
   0.31995551  0.65110369  0.47752655
   0.63127219  0.99516375  0.00478956
   0.62286643  0.96370718  0.49308776
   0.64770911  0.31990684  0.99836312
   0.66365486  0.34119772  0.48427735
   0.66143557  0.67515006  0.00768136
   0.62765055  0.63130570  0.51058975
   0.09270447  0.22638137  0.09127609
   0.22683733  0.12247704  0.36897419
   0.11587157  0.23516394  0.59646770
   0.23509464  0.09682834  0.87285634
   0.10810193  0.54568004  0.09254675
   0.20797470  0.42783920  0.39079823
   0.10786949  0.53465018  0.58767881
   0.22891101  0.41629168  0.88841517
   0.10806936  0.86153829  0.09708432
   0.20370492  0.75678342  0.36807910
   0.10763102  0.86601244  0.60120729
   0.20783537  0.74886361  0.87013360
   0.42755871  0.23353493  0.09996024
   0.55716733  0.12434911  0.38272024
   0.43223951  0.22120261  0.58828104
   0.52946262  0.10560195  0.87121650
   0.42374466  0.51544126  0.10992004
   0.52608833  0.42550663  0.38452742
   0.42846574  0.53655418  0.58814089
   0.55178951  0.46148033  0.87462578
   0.42360189  0.84061578  0.09803623
   0.54567004  0.78546135  0.39123317
   0.45193267  0.88449647  0.60784945
   0.52194291  0.76426571  0.88177158
   0.76869124  0.21076237  0.09493360
   0.87245084  0.11743380  0.39715207
   0.73413604  0.21004656  0.58737029
   0.87153066  0.12622159  0.88306464
   0.75009008  0.53626863  0.10683982
   0.88416989  0.43420126  0.38024077
   0.75461012  0.51577553  0.57828215
   0.87461464  0.42329604  0.88594857
   0.78730154  0.89207337  0.10479875
   0.89062188  0.77294474  0.37598265
   0.77094317  0.86369487  0.58061564
   0.84149288  0.74462235  0.87857007
 
 position of ions in cartesian coordinates  (Angst):
   0.05848760  0.12311959  0.08219002
   8.49201889  0.04120536  4.60927932
   7.17082684  2.35756186  9.47578819
  -1.30806764  2.32790616  4.62854316
  -2.63112615  4.78141738  9.44590471
  -2.70597052  4.83596688  4.61688574
  -1.33599974  7.28986516  9.47162156
  -1.54620947  7.26402182  4.53999904
   1.39052543  2.26138534  9.47267498
   1.36760282  2.51366362  4.65864935
  -0.00386783  4.82150958  9.44090718
  -0.04797146  4.83348082  4.52940367
   1.14598559  7.38761732  0.04542962
   1.20875385  7.15409887  4.67700385
   4.18101336  2.37483461  9.46960872
   4.22644731  2.53288787  4.59343592
   2.77611368  5.01198951  0.07285873
   2.67442611  4.68651006  4.84301258
  -0.17560664  1.68054647  0.86576601
   1.41950335  0.90921067  3.49976991
  -0.01466145  1.74574405  5.65757651
   1.60021411  0.71880705  8.27916000
  -1.41212531  4.05086632  0.87781839
  -0.05095934  3.17607257  3.70677387
  -1.36684412  3.96898594  5.57421270
   0.17799783  3.09034933  8.42673760
  -2.76616376  6.39564614  0.92085786
  -1.49740499  5.61799634  3.49127986
  -2.78909727  6.42886008  5.70253216
  -1.42805494  5.55920348  8.25333445
   2.66408445  1.73365106  0.94813635
   4.24304923  0.92310802  3.63015305
   2.75706396  1.64210185  5.57992494
   4.08591585  0.78393812  8.26360590
   1.42314831  3.82638815  1.04260639
   2.68588949  3.15875669  3.64729439
   1.37312777  3.98312032  5.57859559
   2.75201628  3.42580815  8.29594338
   0.02823597  6.24032748  0.92988685
   1.31098732  5.83088751  3.71089934
   0.08301441  6.56607663  5.76553394
   1.19844364  5.67354126  8.36372226
   5.68585515  1.56459853  0.90045799
   6.97527993  0.87177208  3.76704090
   5.39271793  1.55928470  5.57128635
   6.92972799  0.93700841  8.37598710
   4.13129674  3.98100054  1.01339009
   5.71807884  3.22330144  3.60663494
   4.25787509  3.82886961  5.48508412
   5.68291125  3.14234633  8.40334157
   2.92530245  6.62232390  0.99403027
   4.32154023  5.73797021  3.56624610
   2.90670888  6.41165555  5.50721758
   4.02179824  5.52771840  8.33335550
 


--------------------------------------------------------------------------------------------------------


 k-point  1 :   0.0000 0.0000 0.0000  plane waves:   15335
 k-point  2 :   0.2500 0.0000 0.0000  plane waves:   15345
 k-point  3 :   0.5000 0.0000 0.0000  plane waves:   15328
 k-point  4 :   0.0000 0.2500 0.0000  plane waves:   15345
 k-point  5 :   0.2500 0.2500 0.0000  plane waves:   15308
 k-point  6 :   0.5000 0.2500 0.0000  plane waves:   15308
 k-point  7 :  -0.2500 0.2500 0.0000  plane waves:   15345
 k-point  8 :   0.0000 0.5000 0.0000  plane waves:   15328
 k-point  9 :   0.2500 0.5000 0.0000  plane waves:   15308
 k-point 10 :   0.5000 0.5000 0.0000  plane waves:   15328
 k-point 11 :   0.0000 0.0000 0.3333  plane waves:   15364
 k-point 12 :   0.2500 0.0000 0.3333  plane waves:   15329
 k-point 13 :   0.5000 0.0000 0.3333  plane waves:   15304
 k-point 14 :  -0.2500 0.0000 0.3333  plane waves:   15329
 k-point 15 :   0.0000 0.2500 0.3333  plane waves:   15329
 k-point 16 :   0.2500 0.2500 0.3333  plane waves:   15318
 k-point 17 :   0.5000 0.2500 0.3333  plane waves:   15318
 k-point 18 :  -0.2500 0.2500 0.3333  plane waves:   15329
 k-point 19 :   0.0000 0.5000 0.3333  plane waves:   15304
 k-point 20 :   0.2500 0.5000 0.3333  plane waves:   15318
 k-point 21 :   0.5000 0.5000 0.3333  plane waves:   15304
 k-point 22 :  -0.2500 0.5000 0.3333  plane waves:   15318
 k-point 23 :   0.0000-0.2500 0.3333  plane waves:   15329
 k-point 24 :   0.2500-0.2500 0.3333  plane waves:   15329
 k-point 25 :   0.5000-0.2500 0.3333  plane waves:   15318
 k-point 26 :  -0.2500-0.2500 0.3333  plane waves:   15318

 maximum and minimum number of plane-waves per node :     15364    15304

 maximum number of plane-waves:     15364
 maximum index in each direction: 
   IXMAX=   15   IYMAX=   15   IZMAX=   17
   IXMIN=  -16   IYMIN=  -16   IZMIN=  -17

 The following grids will avoid any aliasing or wrap around errors in the Hartre
 e energy
  - symmetry arguments have not been applied
  - exchange correlation energies might require even more grid points
  - we recommend to set PREC=Normal or Accurate and rely on VASP defaults
 NGX is ok and might be reduce to    64
 NGY is ok and might be reduce to    64
 NGZ is ok and might be reduce to    70

 serial   3D FFT for wavefunctions
 parallel 3D FFT for charge:
    minimum data exchange during FFTs selected (reduces bandwidth)


 total amount of memory used by VASP MPI-rank0   186386. kBytes
=======================================================================

   base      :      30000. kBytes
   nonlr-proj:      30005. kBytes
   fftplans  :       6058. kBytes
   grid      :      19644. kBytes
   one-center:        839. kBytes
   wavefun   :      99840. kBytes
 
     INWAV:  cpu time    0.0000: real time    0.0000
 Broyden mixing: mesh for mixing (old mesh)
   NGX = 31   NGY = 31   NGZ = 35
  (NGX  =128   NGY  =128   NGZ  =140)
  gives a total of  33635 points

 initial charge density was supplied:
 charge density of overlapping atoms calculated
 number of electron     396.0000000 magnetization 
 keeping initial charge density in first step


--------------------------------------------------------------------------------------------------------


 Maximum index for non-local projection operator         6207
 Maximum index for augmentation-charges         1030 (set IRDMAX)


--------------------------------------------------------------------------------------------------------


 First call to EWALD:  gamma=   0.210
 Maximum number of real-space cells 3x 3x 3
 Maximum number of reciprocal cells 3x 3x 3

    FEWALD:  cpu time    0.0026: real time    0.0026


--------------------------------------- Iteration      1(   1)  ---------------------------------------


    POTLOK:  cpu time    0.0977: real time    0.1086
    SETDIJ:  cpu time    0.0090: real time    0.0091
     EDDAV:  cpu time   35.4898: real time   35.5888
    --------------------------------------------
      LOOP:  cpu time   35.5981: real time   35.7082

 eigenvalue-minimisations  : 12480
 total energy-change (2. order) : 0.5135467E+04  (-0.1763385E+05)
 number of electron     396.0000000 magnetization 
 augmentation part      396.0000000 magnetization 

 Free energy of the ion-electron system (eV)
  ---------------------------------------------------
  alpha Z        PSCENC =      1149.28122492
  Ewald energy   TEWEN  =    -22370.80685556
  -Hartree energ DENC   =    -13265.10014180
  -exchange      EXHF   =         0.00000000
  -V(xc)+E(xc)   XCENC  =      1577.42459750
  PAW double counting   =     29784.60368500   -31040.73694357
  entropy T*S    EENTRO =        -0.00649663
  eigenvalues    EBANDS =      4410.42660498
  atomic energy  EATOM  =     34890.38139807
  Solvation  Ediel_sol  =         0.00000000
  ---------------------------------------------------
  free energy    TOTEN  =      5135.46707289 eV

  energy without entropy =     5135.47356952  energy(sigma->0) =     5135.47032121


--------------------------------------------------------------------------------------------------------




--------------------------------------- Iteration      1(   2)  ---------------------------------------


     EDDAV:  cpu time   36.8126: real time   36.9001
    --------------------------------------------
      LOOP:  cpu time   36.8125: real time   36.9000

 eigenvalue-minimisations  : 12976
 total energy-change (2. order) :-0.4465635E+04  (-0.4165601E+04)
 number of electron     396.0000000 magnetization 
 augmentation part      396.0000000 magnetization 

 Free energy of the ion-electron system (eV)
  ---------------------------------------------------
  alpha Z        PSCENC =      1149.28122492
  Ewald energy   TEWEN  =    -22370.80685556
  -Hartree energ DENC   =    -13265.10014180
  -exchange      EXHF   =         0.00000000
  -V(xc)+E(xc)   XCENC  =      1577.42459750
  PAW double counting   =     29784.60368500   -31040.73694357
  entropy T*S    EENTRO =        -0.02752965
  eigenvalues    EBANDS =       -55.18742234
  atomic energy  EATOM  =     34890.38139807
  Solvation  Ediel_sol  =         0.00000000
  ---------------------------------------------------
  free energy    TOTEN  =       669.83201255 eV

  energy without entropy =      669.85954221  energy(sigma->0) =      669.84577738


--------------------------------------------------------------------------------------------------------




--------------------------------------- Iteration      1(   3)  ---------------------------------------


     EDDAV:  cpu time   36.6799: real time   36.7667
    --------------------------------------------
      LOOP:  cpu time   36.6798: real time   36.7667

 eigenvalue-minimisations  : 13312
 total energy-change (2. order) :-0.1019382E+04  (-0.8933238E+03)
 number of electron     396.0000000 magnetization 
 augmentation part      396.0000000 magnetization 

 Free energy of the ion-electron system (eV)
  ---------------------------------------------------
  alpha Z        PSCENC =      1149.28122492
  Ewald energy   TEWEN  =    -22370.80685556
  -Hartree energ DENC   =    -13265.10014180
  -exchange      EXHF   =         0.00000000
  -V(xc)+E(xc)   XCENC  =      1577.42459750
  PAW double counting   =     29784.60368500   -31040.73694357
  entropy T*S    EENTRO =        -0.00011773
  eigenvalues    EBANDS =     -1074.59681273
  atomic energy  EATOM  =     34890.38139807
  Solvation  Ediel_sol  =         0.00000000
  ---------------------------------------------------
  free energy    TOTEN  =      -349.54996591 eV

  energy without entropy =     -349.54984818  energy(sigma->0) =     -349.54990705


--------------------------------------------------------------------------------------------------------




--------------------------------------- Iteration      1(   4)  ---------------------------------------


     EDDAV:  cpu time   33.7836: real time   33.8636
    --------------------------------------------
      LOOP:  cpu time   33.7834: real time   33.8635

 eigenvalue-minimisations  : 13328
 total energy-change (2. order) :-0.1079421E+03  (-0.1055412E+03)
 number of electron     396.0000000 magnetization 
 augmentation part      396.0000000 magnetization 

 Free energy of the ion-electron system (eV)
  ---------------------------------------------------
  alpha Z        PSCENC =      1149.28122492
  Ewald energy   TEWEN  =    -22370.80685556
  -Hartree energ DENC   =    -13265.10014180
  -exchange      EXHF   =         0.00000000
  -V(xc)+E(xc)   XCENC  =      1577.42459750
  PAW double counting   =     29784.60368500   -31040.73694357
  entropy T*S    EENTRO =        -0.00000393
  eigenvalues    EBANDS =     -1182.53906775
  atomic energy  EATOM  =     34890.38139807
  Solvation  Ediel_sol  =         0.00000000
  ---------------------------------------------------
  free energy    TOTEN  =      -457.49210713 eV

  energy without entropy =     -457.49210320  energy(sigma->0) =     -457.49210516


--------------------------------------------------------------------------------------------------------




--------------------------------------- Iteration      1(   5)  ---------------------------------------


     EDDAV:  cpu time   39.7428: real time   39.8369
    CHARGE:  cpu time    1.5889: real time    1.5926
    MIXING:  cpu time    0.0050: real time    0.0120
    --------------------------------------------
      LOOP:  cpu time   41.3353: real time   41.4402

 eigenvalue-minimisations  : 15088
 total energy-change (2. order) :-0.3750882E+01  (-0.3742411E+01)
 number of electron     396.0000048 magnetization 
 augmentation part      111.8695513 magnetization 

 Broyden mixing:
  rms(total) = 0.11632E+02    rms(broyden)= 0.11629E+02
  rms(prec ) = 0.14770E+02
  weight for this iteration     100.00

 Free energy of the ion-electron system (eV)
  ---------------------------------------------------
  alpha Z        PSCENC =      1149.28122492
  Ewald energy   TEWEN  =    -22370.80685556
  -Hartree energ DENC   =    -13265.10014180
  -exchange      EXHF   =         0.00000000
  -V(xc)+E(xc)   XCENC  =      1577.42459750
  PAW double counting   =     29784.60368500   -31040.73694357
  entropy T*S    EENTRO =        -0.00000385
  eigenvalues    EBANDS =     -1186.28994976
  atomic energy  EATOM  =     34890.38139807
  Solvation  Ediel_sol  =         0.00000000
  ---------------------------------------------------
  free energy    TOTEN  =      -461.24298906 eV

  energy without entropy =     -461.24298521  energy(sigma->0) =     -461.24298713


--------------------------------------------------------------------------------------------------------




--------------------------------------- Iteration      1(   6)  ---------------------------------------


    POTLOK:  cpu time    0.0745: real time    0.0747
    SETDIJ:  cpu time    0.0092: real time    0.0092
     EDDAV:  cpu time   48.6280: real time   48.7431
    CHARGE:  cpu time    1.4102: real time    1.4135
    MIXING:  cpu time    0.0025: real time    0.0025
    --------------------------------------------
      LOOP:  cpu time   50.1244: real time   50.2430

 eigenvalue-minimisations  : 19680
 total energy-change (2. order) :-0.1763841E+03  (-0.1283034E+03)
 number of electron     396.0000043 magnetization 
 augmentation part      156.8791744 magnetization 

 Broyden mixing:
  rms(total) = 0.22552E+02    rms(broyden)= 0.22550E+02
  rms(prec ) = 0.25645E+02
  weight for this iteration     100.00

 eigenvalues of (default mixing * dielectric matrix)
  average eigenvalue GAMMA=   0.1837
  0.1837

 Free energy of the ion-electron system (eV)
  ---------------------------------------------------
  alpha Z        PSCENC =      1149.28122492
  Ewald energy   TEWEN  =    -22370.80685556
  -Hartree energ DENC   =    -12501.12624723
  -exchange      EXHF   =         0.00000000
  -V(xc)+E(xc)   XCENC  =      1571.78596664
  PAW double counting   =     32174.73852474   -33204.24472069
  entropy T*S    EENTRO =        -0.04372113
  eigenvalues    EBANDS =     -2347.59266890
  atomic energy  EATOM  =     34890.38139807
  Solvation  Ediel_sol  =         0.00000000
  ---------------------------------------------------
  free energy    TOTEN  =      -637.62709915 eV

  energy without entropy =     -637.58337803  energy(sigma->0) =     -637.60523859


--------------------------------------------------------------------------------------------------------




--------------------------------------- Iteration      1(   7)  ---------------------------------------


    POTLOK:  cpu time    0.0656: real time    0.0658
    SETDIJ:  cpu time    0.0088: real time    0.0088
     EDDAV:  cpu time   47.0320: real time   47.1433
    CHARGE:  cpu time    1.6786: real time    1.7690
    MIXING:  cpu time    0.0044: real time    0.0389
    --------------------------------------------
      LOOP:  cpu time   48.7895: real time   49.0258

 eigenvalue-minimisations  : 16672
 total energy-change (2. order) : 0.2571416E+03  (-0.3441912E+02)
 number of electron     396.0000043 magnetization 
 augmentation part      143.8582998 magnetization 

 Broyden mixing:
  rms(total) = 0.91674E+01    rms(broyden)= 0.91662E+01
  rms(prec ) = 0.11778E+02
  weight for this iteration     100.00

 eigenvalues of (default mixing * dielectric matrix)
  average eigenvalue GAMMA=   0.5068
  0.5068  0.5068

 Free energy of the ion-electron system (eV)
  ---------------------------------------------------
  alpha Z        PSCENC =      1149.28122492
  Ewald energy   TEWEN  =    -22370.80685556
  -Hartree energ DENC   =    -12798.59729109
  -exchange      EXHF   =         0.00000000
  -V(xc)+E(xc)   XCENC  =      1576.06152123
  PAW double counting   =     33531.67689137   -34706.51227934
  entropy T*S    EENTRO =        -0.03980904
  eigenvalues    EBANDS =     -1651.93031545
  atomic energy  EATOM  =     34890.38139807
  Solvation  Ediel_sol  =         0.00000000
  ---------------------------------------------------
  free energy    TOTEN  =      -380.48551490 eV

  energy without entropy =     -380.44570586  energy(sigma->0) =     -380.46561038


--------------------------------------------------------------------------------------------------------




--------------------------------------- Iteration      1(   8)  ---------------------------------------


    POTLOK:  cpu time    0.0860: real time    0.0862
    SETDIJ:  cpu time    0.0088: real time    0.0089
     EDDAV:  cpu time   54.8989: real time   55.0289
    CHARGE:  cpu time    1.7338: real time    1.7379
    MIXING:  cpu time    0.0038: real time    0.0049
    --------------------------------------------
      LOOP:  cpu time   56.7314: real time   56.8668

 eigenvalue-minimisations  : 20256
 total energy-change (2. order) : 0.5109503E+01  (-0.2960789E+02)
 number of electron     396.0000041 magnetization 
 augmentation part      135.3676466 magnetization 

 Broyden mixing:
  rms(total) = 0.95941E+01    rms(broyden)= 0.95921E+01
  rms(prec ) = 0.14054E+02
  weight for this iteration     100.00

 eigenvalues of (default mixing * dielectric matrix)
  average eigenvalue GAMMA=   0.4744
  0.6021  0.6021  0.2191

 Free energy of the ion-electron system (eV)
  ---------------------------------------------------
  alpha Z        PSCENC =      1149.28122492
  Ewald energy   TEWEN  =    -22370.80685556
  -Hartree energ DENC   =    -12874.81964116
  -exchange      EXHF   =         0.00000000
  -V(xc)+E(xc)   XCENC  =      1572.88269910
  PAW double counting   =     34421.99935918   -35683.12187484
  entropy T*S    EENTRO =        -0.04134249
  eigenvalues    EBANDS =     -1481.13097942
  atomic energy  EATOM  =     34890.38139807
  Solvation  Ediel_sol  =         0.00000000
  ---------------------------------------------------
  free energy    TOTEN  =      -375.37601222 eV

  energy without entropy =     -375.33466972  energy(sigma->0) =     -375.35534097


--------------------------------------------------------------------------------------------------------




--------------------------------------- Iteration      1(   9)  ---------------------------------------


    POTLOK:  cpu time    0.0790: real time    0.0792
    SETDIJ:  cpu time    0.0107: real time    0.0107
     EDDAV:  cpu time   40.8764: real time   40.9733
    CHARGE:  cpu time    1.6563: real time    1.6603
    MIXING:  cpu time    0.0025: real time    0.0025
    --------------------------------------------
      LOOP:  cpu time   42.6250: real time   42.7261

 eigenvalue-minimisations  : 15776
 total energy-change (2. order) : 0.2901003E-01  (-0.4301823E+02)
 number of electron     396.0000040 magnetization 
 augmentation part      121.7748129 magnetization 

 Broyden mixing:
  rms(total) = 0.10803E+02    rms(broyden)= 0.10802E+02
  rms(prec ) = 0.15705E+02
  weight for this iteration     100.00

 eigenvalues of (default mixing * dielectric matrix)
  average eigenvalue GAMMA=   0.4209
  0.7791  0.4962  0.2742  0.1343

 Free energy of the ion-electron system (eV)
  ---------------------------------------------------
  alpha Z        PSCENC =      1149.28122492
  Ewald energy   TEWEN  =    -22370.80685556
  -Hartree energ DENC   =    -12914.29600843
  -exchange      EXHF   =         0.00000000
  -V(xc)+E(xc)   XCENC  =      1570.61524558
  PAW double counting   =     35331.09180941   -36623.79504718
  entropy T*S    EENTRO =        -0.07448337
  eigenvalues    EBANDS =     -1407.74428562
  atomic energy  EATOM  =     34890.38139807
  Solvation  Ediel_sol  =         0.00000000
  ---------------------------------------------------
  free energy    TOTEN  =      -375.34700218 eV

  energy without entropy =     -375.27251881  energy(sigma->0) =     -375.30976050


--------------------------------------------------------------------------------------------------------




--------------------------------------- Iteration      1(  10)  ---------------------------------------


    POTLOK:  cpu time    0.0736: real time    0.0738
    SETDIJ:  cpu time    0.0089: real time    0.0090
     EDDAV:  cpu time   45.6243: real time   45.7323
    CHARGE:  cpu time    1.7967: real time    1.8010
    MIXING:  cpu time    0.0035: real time    0.0035
    --------------------------------------------
      LOOP:  cpu time   47.5071: real time   47.6195

 eigenvalue-minimisations  : 17600
 total energy-change (2. order) : 0.8262391E+01  (-0.3285262E+02)
 number of electron     396.0000052 magnetization 
 augmentation part      121.6133618 magnetization 

 Broyden mixing:
  rms(total) = 0.98067E+01    rms(broyden)= 0.98061E+01
  rms(prec ) = 0.14284E+02
  weight for this iteration     100.00

 eigenvalues of (default mixing * dielectric matrix)
  average eigenvalue GAMMA=   0.3658
  0.9095  0.4095  0.2756  0.1656  0.0687

 Free energy of the ion-electron system (eV)
  ---------------------------------------------------
  alpha Z        PSCENC =      1149.28122492
  Ewald energy   TEWEN  =    -22370.80685556
  -Hartree energ DENC   =    -12886.49535387
  -exchange      EXHF   =         0.00000000
  -V(xc)+E(xc)   XCENC  =      1569.61442612
  PAW double counting   =     35869.95898724   -37170.66213794
  entropy T*S    EENTRO =        -0.06632661
  eigenvalues    EBANDS =     -1418.28997320
  atomic energy  EATOM  =     34890.38139807
  Solvation  Ediel_sol  =         0.00000000
  ---------------------------------------------------
  free energy    TOTEN  =      -367.08461084 eV

  energy without entropy =     -367.01828423  energy(sigma->0) =     -367.05144754


--------------------------------------------------------------------------------------------------------




--------------------------------------- Iteration      1(  11)  ---------------------------------------


    POTLOK:  cpu time    0.0793: real time    0.0795
    SETDIJ:  cpu time    0.0102: real time    0.0102
     EDDAV:  cpu time   44.4398: real time   44.5450
    CHARGE:  cpu time    1.5177: real time    1.5364
    MIXING:  cpu time    0.0033: real time    0.0033
    --------------------------------------------
      LOOP:  cpu time   46.0503: real time   46.1744

 eigenvalue-minimisations  : 17808
 total energy-change (2. order) : 0.2505899E+02  (-0.1713735E+02)
 number of electron     396.0000047 magnetization 
 augmentation part      124.2663378 magnetization 

 Broyden mixing:
  rms(total) = 0.65955E+01    rms(broyden)= 0.65949E+01
  rms(prec ) = 0.96939E+01
  weight for this iteration     100.00

 eigenvalues of (default mixing * dielectric matrix)
  average eigenvalue GAMMA=   0.3389
  0.9972  0.3786  0.1925  0.1925  0.1787  0.0937

 Free energy of the ion-electron system (eV)
  ---------------------------------------------------
  alpha Z        PSCENC =      1149.28122492
  Ewald energy   TEWEN  =    -22370.80685556
  -Hartree energ DENC   =    -12869.33620667
  -exchange      EXHF   =         0.00000000
  -V(xc)+E(xc)   XCENC  =      1569.22874939
  PAW double counting   =     36187.84464946   -37492.34274353
  entropy T*S    EENTRO =        -0.08233170
  eigenvalues    EBANDS =     -1406.19350740
  atomic energy  EATOM  =     34890.38139807
  Solvation  Ediel_sol  =         0.00000000
  ---------------------------------------------------
  free energy    TOTEN  =      -342.02562304 eV

  energy without entropy =     -341.94329133  energy(sigma->0) =     -341.98445719


--------------------------------------------------------------------------------------------------------




--------------------------------------- Iteration      1(  12)  ---------------------------------------


    POTLOK:  cpu time    0.0739: real time    0.0741
    SETDIJ:  cpu time    0.0086: real time    0.0086
     EDDAV:  cpu time   41.9744: real time   42.0739
    CHARGE:  cpu time    1.6355: real time    1.6394
    MIXING:  cpu time    0.0032: real time    0.0032
    --------------------------------------------
      LOOP:  cpu time   43.6956: real time   43.7991

 eigenvalue-minimisations  : 15840
 total energy-change (2. order) : 0.1194337E+02  (-0.8786532E+01)
 number of electron     396.0000048 magnetization 
 augmentation part      125.7738643 magnetization 

 Broyden mixing:
  rms(total) = 0.39686E+01    rms(broyden)= 0.39675E+01
  rms(prec ) = 0.56907E+01
  weight for this iteration     100.00

 eigenvalues of (default mixing * dielectric matrix)
  average eigenvalue GAMMA=   0.3770
  1.1568  0.3977  0.3579  0.3579  0.2007  0.0968  0.0715

 Free energy of the ion-electron system (eV)
  ---------------------------------------------------
  alpha Z        PSCENC =      1149.28122492
  Ewald energy   TEWEN  =    -22370.80685556
  -Hartree energ DENC   =    -12860.45205197
  -exchange      EXHF   =         0.00000000
  -V(xc)+E(xc)   XCENC  =      1569.16251568
  PAW double counting   =     36362.02726749   -37666.62472918
  entropy T*S    EENTRO =        -0.04404009
  eigenvalues    EBANDS =     -1403.00698023
  atomic energy  EATOM  =     34890.38139807
  Solvation  Ediel_sol  =         0.00000000
  ---------------------------------------------------
  free energy    TOTEN  =      -330.08225088 eV

  energy without entropy =     -330.03821079  energy(sigma->0) =     -330.06023083


--------------------------------------------------------------------------------------------------------




--------------------------------------- Iteration      1(  13)  ---------------------------------------


    POTLOK:  cpu time    0.0724: real time    0.0726
    SETDIJ:  cpu time    0.0088: real time    0.0088
     EDDAV:  cpu time   48.0787: real time   48.1926
    CHARGE:  cpu time    1.6641: real time    1.6681
    MIXING:  cpu time    0.0030: real time    0.0030
    --------------------------------------------
      LOOP:  cpu time   49.8270: real time   49.9451

 eigenvalue-minimisations  : 18688
 total energy-change (2. order) : 0.4099914E+01  (-0.5189957E+01)
 number of electron     396.0000044 magnetization 
 augmentation part      126.1216874 magnetization 

 Broyden mixing:
  rms(total) = 0.44844E+01    rms(broyden)= 0.44837E+01
  rms(prec ) = 0.64995E+01
  weight for this iteration     100.00

 eigenvalues of (default mixing * dielectric matrix)
  average eigenvalue GAMMA=   0.3605
  1.2587  0.3888  0.3888  0.3569  0.1838  0.1406  0.0899  0.0764

 Free energy of the ion-electron system (eV)
  ---------------------------------------------------
  alpha Z        PSCENC =      1149.28122492
  Ewald energy   TEWEN  =    -22370.80685556
  -Hartree energ DENC   =    -12851.86744079
  -exchange      EXHF   =         0.00000000
  -V(xc)+E(xc)   XCENC  =      1569.39946335
  PAW double counting   =     36629.91055212   -37934.77060828
  entropy T*S    EENTRO =        -0.06416342
  eigenvalues    EBANDS =     -1407.44590717
  atomic energy  EATOM  =     34890.38139807
  Solvation  Ediel_sol  =         0.00000000
  ---------------------------------------------------
  free energy    TOTEN  =      -325.98233676 eV

  energy without entropy =     -325.91817334  energy(sigma->0) =     -325.95025505


--------------------------------------------------------------------------------------------------------




--------------------------------------- Iteration      1(  14)  ---------------------------------------


    POTLOK:  cpu time    0.0716: real time    0.0718
    SETDIJ:  cpu time    0.0086: real time    0.0087
     EDDAV:  cpu time   45.2339: real time   45.3410
    CHARGE:  cpu time    1.6630: real time    1.6670
    MIXING:  cpu time    0.0032: real time    0.0032
    --------------------------------------------
      LOOP:  cpu time   46.9804: real time   47.0917

 eigenvalue-minimisations  : 18464
 total energy-change (2. order) : 0.4369495E+01  (-0.5944758E+01)
 number of electron     396.0000044 magnetization 
 augmentation part      127.1203155 magnetization 

 Broyden mixing:
  rms(total) = 0.26283E+01    rms(broyden)= 0.26275E+01
  rms(prec ) = 0.36542E+01
  weight for this iteration     100.00

 eigenvalues of (default mixing * dielectric matrix)
  average eigenvalue GAMMA=   0.3546
  1.3470  0.4177  0.4177  0.2801  0.2336  0.2336  0.1043  0.0787  0.0787

 Free energy of the ion-electron system (eV)
  ---------------------------------------------------
  alpha Z        PSCENC =      1149.28122492
  Ewald energy   TEWEN  =    -22370.80685556
  -Hartree energ DENC   =    -12849.30220012
  -exchange      EXHF   =         0.00000000
  -V(xc)+E(xc)   XCENC  =      1569.50803727
  PAW double counting   =     36794.83941310   -38099.53120537
  entropy T*S    EENTRO =        -0.01751351
  eigenvalues    EBANDS =     -1405.96514096
  atomic energy  EATOM  =     34890.38139807
  Solvation  Ediel_sol  =         0.00000000
  ---------------------------------------------------
  free energy    TOTEN  =      -321.61284218 eV

  energy without entropy =     -321.59532867  energy(sigma->0) =     -321.60408542


--------------------------------------------------------------------------------------------------------




--------------------------------------- Iteration      1(  15)  ---------------------------------------


    POTLOK:  cpu time    0.0730: real time    0.0732
    SETDIJ:  cpu time    0.0087: real time    0.0088
     EDDAV:  cpu time   43.8269: real time   43.9307
    CHARGE:  cpu time    1.6491: real time    1.6530
    MIXING:  cpu time    0.0033: real time    0.0033
    --------------------------------------------
      LOOP:  cpu time   45.5610: real time   45.6689

 eigenvalue-minimisations  : 16768
 total energy-change (2. order) : 0.1910244E+01  (-0.2063443E+01)
 number of electron     396.0000046 magnetization 
 augmentation part      127.9069797 magnetization 

 Broyden mixing:
  rms(total) = 0.16721E+01    rms(broyden)= 0.16716E+01
  rms(prec ) = 0.22531E+01
  weight for this iteration     100.00

 eigenvalues of (default mixing * dielectric matrix)
  average eigenvalue GAMMA=   0.3789
  1.4833  0.5012  0.5012  0.3252  0.3252  0.2434  0.1445  0.1061  0.0794  0.0794

 Free energy of the ion-electron system (eV)
  ---------------------------------------------------
  alpha Z        PSCENC =      1149.28122492
  Ewald energy   TEWEN  =    -22370.80685556
  -Hartree energ DENC   =    -12845.41046152
  -exchange      EXHF   =         0.00000000
  -V(xc)+E(xc)   XCENC  =      1569.59089453
  PAW double counting   =     36940.28744477   -38245.90213762
  entropy T*S    EENTRO =        -0.00366767
  eigenvalues    EBANDS =     -1407.12043835
  atomic energy  EATOM  =     34890.38139807
  Solvation  Ediel_sol  =         0.00000000
  ---------------------------------------------------
  free energy    TOTEN  =      -319.70259842 eV

  energy without entropy =     -319.69893076  energy(sigma->0) =     -319.70076459


--------------------------------------------------------------------------------------------------------




--------------------------------------- Iteration      1(  16)  ---------------------------------------


    POTLOK:  cpu time    0.0735: real time    0.0737
    SETDIJ:  cpu time    0.0089: real time    0.0090
     EDDAV:  cpu time   50.4939: real time   50.6135
    CHARGE:  cpu time    1.6348: real time    1.6537
    MIXING:  cpu time    0.0068: real time    0.0570
    --------------------------------------------
      LOOP:  cpu time   52.2181: real time   52.4069

 eigenvalue-minimisations  : 19792
 total energy-change (2. order) : 0.1439032E+01  (-0.3112520E+00)
 number of electron     396.0000046 magnetization 
 augmentation part      128.7650935 magnetization 

 Broyden mixing:
  rms(total) = 0.12665E+01    rms(broyden)= 0.12663E+01
  rms(prec ) = 0.17066E+01
  weight for this iteration     100.00

 eigenvalues of (default mixing * dielectric matrix)
  average eigenvalue GAMMA=   0.3861
  1.5434  0.5585  0.5585  0.3497  0.3497  0.2884  0.1691  0.1691  0.1024  0.0792
  0.0792

 Free energy of the ion-electron system (eV)
  ---------------------------------------------------
  alpha Z        PSCENC =      1149.28122492
  Ewald energy   TEWEN  =    -22370.80685556
  -Hartree energ DENC   =    -12839.03352348
  -exchange      EXHF   =         0.00000000
  -V(xc)+E(xc)   XCENC  =      1569.77667866
  PAW double counting   =     37181.86734584   -38487.55007360
  entropy T*S    EENTRO =        -0.00003334
  eigenvalues    EBANDS =     -1412.17972828
  atomic energy  EATOM  =     34890.38139807
  Solvation  Ediel_sol  =         0.00000000
  ---------------------------------------------------
  free energy    TOTEN  =      -318.26356678 eV

  energy without entropy =     -318.26353344  energy(sigma->0) =     -318.26355011


--------------------------------------------------------------------------------------------------------




--------------------------------------- Iteration      1(  17)  ---------------------------------------


    POTLOK:  cpu time    0.0846: real time    0.1087
    SETDIJ:  cpu time    0.0087: real time    0.0087
     EDDAV:  cpu time   48.0049: real time   48.1186
    CHARGE:  cpu time    1.6396: real time    1.6557
    MIXING:  cpu time    0.0050: real time    0.0144
    --------------------------------------------
      LOOP:  cpu time   49.7428: real time   49.9061

 eigenvalue-minimisations  : 18720
 total energy-change (2. order) : 0.7751963E+00  (-0.1729788E+00)
 number of electron     396.0000046 magnetization 
 augmentation part      129.1103101 magnetization 

 Broyden mixing:
  rms(total) = 0.82251E+00    rms(broyden)= 0.82237E+00
  rms(prec ) = 0.10482E+01
  weight for this iteration     100.00

 eigenvalues of (default mixing * dielectric matrix)
  average eigenvalue GAMMA=   0.4245
  1.6332  0.7089  0.7089  0.4086  0.4086  0.3063  0.3063  0.1965  0.1553  0.1037
  0.0791  0.0791

 Free energy of the ion-electron system (eV)
  ---------------------------------------------------
  alpha Z        PSCENC =      1149.28122492
  Ewald energy   TEWEN  =    -22370.80685556
  -Hartree energ DENC   =    -12837.86255829
  -exchange      EXHF   =         0.00000000
  -V(xc)+E(xc)   XCENC  =      1570.01903447
  PAW double counting   =     37368.49060010   -38674.68518840
  entropy T*S    EENTRO =        -0.00006999
  eigenvalues    EBANDS =     -1412.30595579
  atomic energy  EATOM  =     34890.38139807
  Solvation  Ediel_sol  =         0.00000000
  ---------------------------------------------------
  free energy    TOTEN  =      -317.48837048 eV

  energy without entropy =     -317.48830049  energy(sigma->0) =     -317.48833548


--------------------------------------------------------------------------------------------------------




--------------------------------------- Iteration      1(  18)  ---------------------------------------


    POTLOK:  cpu time    0.0740: real time    0.0741
    SETDIJ:  cpu time    0.0089: real time    0.0090
     EDDAV:  cpu time   45.1034: real time   45.2102
    CHARGE:  cpu time    1.6096: real time    1.6301
    MIXING:  cpu time    0.0040: real time    0.0069
    --------------------------------------------
      LOOP:  cpu time   46.7998: real time   46.9302

 eigenvalue-minimisations  : 18880
 total energy-change (2. order) : 0.2514702E+00  (-0.8291780E-01)
 number of electron     396.0000046 magnetization 
 augmentation part      129.4703316 magnetization 

 Broyden mixing:
  rms(total) = 0.66609E+00    rms(broyden)= 0.66599E+00
  rms(prec ) = 0.84731E+00
  weight for this iteration     100.00

 eigenvalues of (default mixing * dielectric matrix)
  average eigenvalue GAMMA=   0.4659
  1.8711  0.8395  0.8395  0.4935  0.4935  0.3384  0.3384  0.2477  0.1670  0.1670
  0.1034  0.0791  0.0791

 Free energy of the ion-electron system (eV)
  ---------------------------------------------------
  alpha Z        PSCENC =      1149.28122492
  Ewald energy   TEWEN  =    -22370.80685556
  -Hartree energ DENC   =    -12838.37900037
  -exchange      EXHF   =         0.00000000
  -V(xc)+E(xc)   XCENC  =      1570.27811036
  PAW double counting   =     37562.43322720   -38869.61013431
  entropy T*S    EENTRO =        -0.00007200
  eigenvalues    EBANDS =     -1410.81479856
  atomic energy  EATOM  =     34890.38139807
  Solvation  Ediel_sol  =         0.00000000
  ---------------------------------------------------
  free energy    TOTEN  =      -317.23690027 eV

  energy without entropy =     -317.23682827  energy(sigma->0) =     -317.23686427


--------------------------------------------------------------------------------------------------------




--------------------------------------- Iteration      1(  19)  ---------------------------------------


    POTLOK:  cpu time    0.0711: real time    0.0712
    SETDIJ:  cpu time    0.0085: real time    0.0085
     EDDAV:  cpu time   46.3314: real time   46.4413
    CHARGE:  cpu time    1.6655: real time    1.6695
    MIXING:  cpu time    0.0039: real time    0.0152
    --------------------------------------------
      LOOP:  cpu time   48.0804: real time   48.2057

 eigenvalue-minimisations  : 18992
 total energy-change (2. order) : 0.8448658E-01  (-0.8140745E-01)
 number of electron     396.0000045 magnetization 
 augmentation part      129.8203352 magnetization 

 Broyden mixing:
  rms(total) = 0.53292E+00    rms(broyden)= 0.53280E+00
  rms(prec ) = 0.71684E+00
  weight for this iteration     100.00

 eigenvalues of (default mixing * dielectric matrix)
  average eigenvalue GAMMA=   0.4828
  2.0633  0.8985  0.8985  0.5522  0.5522  0.3574  0.3574  0.2688  0.2088  0.1806
  0.1597  0.1035  0.0791  0.0791

 Free energy of the ion-electron system (eV)
  ---------------------------------------------------
  alpha Z        PSCENC =      1149.28122492
  Ewald energy   TEWEN  =    -22370.80685556
  -Hartree energ DENC   =    -12838.78053170
  -exchange      EXHF   =         0.00000000
  -V(xc)+E(xc)   XCENC  =      1570.53645999
  PAW double counting   =     37800.47900218   -39109.02235657
  entropy T*S    EENTRO =        -0.00003154
  eigenvalues    EBANDS =     -1409.22072347
  atomic energy  EATOM  =     34890.38139807
  Solvation  Ediel_sol  =         0.00000000
  ---------------------------------------------------
  free energy    TOTEN  =      -317.15241369 eV

  energy without entropy =     -317.15238215  energy(sigma->0) =     -317.15239792


--------------------------------------------------------------------------------------------------------




--------------------------------------- Iteration      1(  20)  ---------------------------------------


    POTLOK:  cpu time    0.0683: real time    0.0684
    SETDIJ:  cpu time    0.0084: real time    0.0085
     EDDAV:  cpu time   47.2618: real time   47.3740
    CHARGE:  cpu time    1.6806: real time    1.6846
    MIXING:  cpu time    0.0037: real time    0.0037
    --------------------------------------------
      LOOP:  cpu time   49.0228: real time   49.1392

 eigenvalue-minimisations  : 18448
 total energy-change (2. order) : 0.8912727E-01  (-0.6224940E-01)
 number of electron     396.0000045 magnetization 
 augmentation part      129.9374578 magnetization 

 Broyden mixing:
  rms(total) = 0.35346E+00    rms(broyden)= 0.35334E+00
  rms(prec ) = 0.45828E+00
  weight for this iteration     100.00

 eigenvalues of (default mixing * dielectric matrix)
  average eigenvalue GAMMA=   0.5013
  2.2347  1.1481  0.7709  0.6078  0.6078  0.3784  0.3784  0.3147  0.2886  0.1975
  0.1654  0.1654  0.1035  0.0791  0.0791

 Free energy of the ion-electron system (eV)
  ---------------------------------------------------
  alpha Z        PSCENC =      1149.28122492
  Ewald energy   TEWEN  =    -22370.80685556
  -Hartree energ DENC   =    -12840.72198264
  -exchange      EXHF   =         0.00000000
  -V(xc)+E(xc)   XCENC  =      1570.71355306
  PAW double counting   =     37950.79547853   -39260.09663930
  entropy T*S    EENTRO =        -0.00012429
  eigenvalues    EBANDS =     -1406.60933920
  atomic energy  EATOM  =     34890.38139807
  Solvation  Ediel_sol  =         0.00000000
  ---------------------------------------------------
  free energy    TOTEN  =      -317.06328642 eV

  energy without entropy =     -317.06316213  energy(sigma->0) =     -317.06322428


--------------------------------------------------------------------------------------------------------




--------------------------------------- Iteration      1(  21)  ---------------------------------------


    POTLOK:  cpu time    0.0693: real time    0.0695
    SETDIJ:  cpu time    0.0088: real time    0.0088
     EDDAV:  cpu time   47.4525: real time   47.5649
    CHARGE:  cpu time    1.6822: real time    1.6862
    MIXING:  cpu time    0.0053: real time    0.0302
    --------------------------------------------
      LOOP:  cpu time   49.2182: real time   49.3597

 eigenvalue-minimisations  : 18384
 total energy-change (2. order) : 0.1876155E-01  (-0.1977162E-01)
 number of electron     396.0000046 magnetization 
 augmentation part      129.9634760 magnetization 

 Broyden mixing:
  rms(total) = 0.27830E+00    rms(broyden)= 0.27826E+00
  rms(prec ) = 0.36243E+00
  weight for this iteration     100.00

 eigenvalues of (default mixing * dielectric matrix)
  average eigenvalue GAMMA=   0.5239
  2.3315  1.3989  0.8330  0.6435  0.6435  0.3848  0.3848  0.3641  0.3641  0.2500
  0.0791  0.0791  0.1035  0.1622  0.1862  0.1741

 Free energy of the ion-electron system (eV)
  ---------------------------------------------------
  alpha Z        PSCENC =      1149.28122492
  Ewald energy   TEWEN  =    -22370.80685556
  -Hartree energ DENC   =    -12842.20775395
  -exchange      EXHF   =         0.00000000
  -V(xc)+E(xc)   XCENC  =      1570.79578755
  PAW double counting   =     38018.62410891   -39328.18016852
  entropy T*S    EENTRO =        -0.00010341
  eigenvalues    EBANDS =     -1404.93216287
  atomic energy  EATOM  =     34890.38139807
  Solvation  Ediel_sol  =         0.00000000
  ---------------------------------------------------
  free energy    TOTEN  =      -317.04452487 eV

  energy without entropy =     -317.04442146  energy(sigma->0) =     -317.04447316


--------------------------------------------------------------------------------------------------------




--------------------------------------- Iteration      1(  22)  ---------------------------------------


    POTLOK:  cpu time    0.0803: real time    0.0975
    SETDIJ:  cpu time    0.0087: real time    0.0087
     EDDAV:  cpu time   48.2424: real time   48.3567
    CHARGE:  cpu time    1.6831: real time    1.6871
    MIXING:  cpu time    0.0046: real time    0.0046
    --------------------------------------------
      LOOP:  cpu time   50.0191: real time   50.1546

 eigenvalue-minimisations  : 17936
 total energy-change (2. order) : 0.8109137E-02  (-0.9136497E-02)
 number of electron     396.0000045 magnetization 
 augmentation part      129.9634536 magnetization 

 Broyden mixing:
  rms(total) = 0.22504E+00    rms(broyden)= 0.22501E+00
  rms(prec ) = 0.30584E+00
  weight for this iteration     100.00

 eigenvalues of (default mixing * dielectric matrix)
  average eigenvalue GAMMA=   0.5348
  2.4776  1.5434  0.7185  0.6829  0.6829  0.4895  0.4895  0.3551  0.3551  0.2744
  0.2385  0.0791  0.0791  0.1035  0.1903  0.1663  0.1663

 Free energy of the ion-electron system (eV)
  ---------------------------------------------------
  alpha Z        PSCENC =      1149.28122492
  Ewald energy   TEWEN  =    -22370.80685556
  -Hartree energ DENC   =    -12842.50568450
  -exchange      EXHF   =         0.00000000
  -V(xc)+E(xc)   XCENC  =      1570.77567891
  PAW double counting   =     38053.01374500   -39362.32626556
  entropy T*S    EENTRO =        -0.00009167
  eigenvalues    EBANDS =     -1404.84956534
  atomic energy  EATOM  =     34890.38139807
  Solvation  Ediel_sol  =         0.00000000
  ---------------------------------------------------
  free energy    TOTEN  =      -317.03641573 eV

  energy without entropy =     -317.03632406  energy(sigma->0) =     -317.03636990


--------------------------------------------------------------------------------------------------------




--------------------------------------- Iteration      1(  23)  ---------------------------------------


    POTLOK:  cpu time    0.0800: real time    0.0802
    SETDIJ:  cpu time    0.0089: real time    0.0090
     EDDAV:  cpu time   43.6966: real time   43.8000
    CHARGE:  cpu time    1.6066: real time    1.6104
    MIXING:  cpu time    0.0041: real time    0.0041
    --------------------------------------------
      LOOP:  cpu time   45.3963: real time   45.5037

 eigenvalue-minimisations  : 16256
 total energy-change (2. order) : 0.1317464E-01  (-0.3390622E-02)
 number of electron     396.0000045 magnetization 
 augmentation part      129.9516476 magnetization 

 Broyden mixing:
  rms(total) = 0.18117E+00    rms(broyden)= 0.18115E+00
  rms(prec ) = 0.24995E+00
  weight for this iteration     100.00

 eigenvalues of (default mixing * dielectric matrix)
  average eigenvalue GAMMA=   0.5488
  2.4896  1.6557  0.8085  0.8085  0.6590  0.5672  0.5672  0.3663  0.3663  0.2920
  0.2920  0.0791  0.0791  0.1035  0.2240  0.1630  0.1720  0.1847

 Free energy of the ion-electron system (eV)
  ---------------------------------------------------
  alpha Z        PSCENC =      1149.28122492
  Ewald energy   TEWEN  =    -22370.80685556
  -Hartree energ DENC   =    -12842.61536466
  -exchange      EXHF   =         0.00000000
  -V(xc)+E(xc)   XCENC  =      1570.73844369
  PAW double counting   =     38069.80182141   -39378.87643002
  entropy T*S    EENTRO =        -0.00007798
  eigenvalues    EBANDS =     -1404.92740096
  atomic energy  EATOM  =     34890.38139807
  Solvation  Ediel_sol  =         0.00000000
  ---------------------------------------------------
  free energy    TOTEN  =      -317.02324110 eV

  energy without entropy =     -317.02316312  energy(sigma->0) =     -317.02320211


--------------------------------------------------------------------------------------------------------




--------------------------------------- Iteration      1(  24)  ---------------------------------------


    POTLOK:  cpu time    0.0750: real time    0.0752
    SETDIJ:  cpu time    0.0091: real time    0.0091
     EDDAV:  cpu time   45.1199: real time   45.2267
    CHARGE:  cpu time    1.4913: real time    1.4948
    MIXING:  cpu time    0.0047: real time    0.0088
    --------------------------------------------
      LOOP:  cpu time   46.7000: real time   46.8147

 eigenvalue-minimisations  : 18224
 total energy-change (2. order) : 0.7811483E-02  (-0.1572140E-02)
 number of electron     396.0000046 magnetization 
 augmentation part      129.9410387 magnetization 

 Broyden mixing:
  rms(total) = 0.15194E+00    rms(broyden)= 0.15193E+00
  rms(prec ) = 0.21002E+00
  weight for this iteration     100.00

 eigenvalues of (default mixing * dielectric matrix)
  average eigenvalue GAMMA=   0.5609
  2.4182  1.6522  1.0417  1.0417  0.6938  0.5885  0.5885  0.3716  0.3716  0.3235
  0.3235  0.0791  0.0791  0.1035  0.2491  0.2109  0.1638  0.1700  0.1862

 Free energy of the ion-electron system (eV)
  ---------------------------------------------------
  alpha Z        PSCENC =      1149.28122492
  Ewald energy   TEWEN  =    -22370.80685556
  -Hartree energ DENC   =    -12842.35692474
  -exchange      EXHF   =         0.00000000
  -V(xc)+E(xc)   XCENC  =      1570.69268117
  PAW double counting   =     38067.91392461   -39376.68310864
  entropy T*S    EENTRO =        -0.00007303
  eigenvalues    EBANDS =     -1405.43769642
  atomic energy  EATOM  =     34890.38139807
  Solvation  Ediel_sol  =         0.00000000
  ---------------------------------------------------
  free energy    TOTEN  =      -317.01542961 eV

  energy without entropy =     -317.01535659  energy(sigma->0) =     -317.01539310


--------------------------------------------------------------------------------------------------------




--------------------------------------- Iteration      1(  25)  ---------------------------------------


    POTLOK:  cpu time    0.0687: real time    0.0689
    SETDIJ:  cpu time    0.0096: real time    0.0096
     EDDAV:  cpu time   45.2547: real time   45.3620
    CHARGE:  cpu time    1.5092: real time    1.5128
    MIXING:  cpu time    0.0052: real time    0.0052
    --------------------------------------------
      LOOP:  cpu time   46.8474: real time   46.9585

 eigenvalue-minimisations  : 18368
 total energy-change (2. order) : 0.7481039E-02  (-0.1260147E-02)
 number of electron     396.0000046 magnetization 
 augmentation part      129.9354250 magnetization 

 Broyden mixing:
  rms(total) = 0.11456E+00    rms(broyden)= 0.11455E+00
  rms(prec ) = 0.16206E+00
  weight for this iteration     100.00

 eigenvalues of (default mixing * dielectric matrix)
  average eigenvalue GAMMA=   0.5648
  2.4638  1.6414  1.2177  1.2177  0.5985  0.5985  0.6059  0.3710  0.3710  0.3669
  0.3669  0.0791  0.0791  0.1035  0.2475  0.2475  0.1633  0.1712  0.1852  0.2011

 Free energy of the ion-electron system (eV)
  ---------------------------------------------------
  alpha Z        PSCENC =      1149.28122492
  Ewald energy   TEWEN  =    -22370.80685556
  -Hartree energ DENC   =    -12842.09786104
  -exchange      EXHF   =         0.00000000
  -V(xc)+E(xc)   XCENC  =      1570.65361779
  PAW double counting   =     38061.49655086   -39369.94249522
  entropy T*S    EENTRO =        -0.00005648
  eigenvalues    EBANDS =     -1405.97347191
  atomic energy  EATOM  =     34890.38139807
  Solvation  Ediel_sol  =         0.00000000
  ---------------------------------------------------
  free energy    TOTEN  =      -317.00794857 eV

  energy without entropy =     -317.00789210  energy(sigma->0) =     -317.00792034


--------------------------------------------------------------------------------------------------------




--------------------------------------- Iteration      1(  26)  ---------------------------------------


    POTLOK:  cpu time    0.0732: real time    0.0734
    SETDIJ:  cpu time    0.0091: real time    0.0092
     EDDAV:  cpu time   49.6727: real time   49.7902
    CHARGE:  cpu time    1.8541: real time    1.8585
    MIXING:  cpu time    0.0053: real time    0.0053
    --------------------------------------------
      LOOP:  cpu time   51.6145: real time   51.7366

 eigenvalue-minimisations  : 18720
 total energy-change (2. order) : 0.4084567E-02  (-0.4204482E-03)
 number of electron     396.0000046 magnetization 
 augmentation part      129.9232844 magnetization 

 Broyden mixing:
  rms(total) = 0.93576E-01    rms(broyden)= 0.93572E-01
  rms(prec ) = 0.13463E+00
  weight for this iteration     100.00

 eigenvalues of (default mixing * dielectric matrix)
  average eigenvalue GAMMA=   0.5634
[...]
  0.119  -0.592   0.199   0.169   0.638  -0.156   0.701  -0.196  -0.144  -0.709   0.260  -0.072   0.470   0.031   0.001  -0.082
  0.049  -0.249   0.147   0.138   0.279  -0.057   0.284  -0.133  -0.129  -0.304   0.238  -0.059   0.031   0.283  -0.066  -0.007
  0.126   0.019  -0.053  -0.101   0.006  -0.146  -0.035   0.055   0.149   0.007  -0.069   0.019   0.001  -0.066   0.370   0.001
 -0.029   0.114  -0.053  -0.006  -0.148   0.039  -0.139   0.044   0.009   0.150  -0.056   0.019  -0.082  -0.007   0.001   0.020
 -0.005   0.061  -0.021  -0.012  -0.038   0.008  -0.056   0.022   0.017   0.049  -0.052   0.015  -0.007  -0.042   0.012   0.002
  0.001  -0.002   0.005   0.043   0.011   0.020   0.006  -0.009  -0.045  -0.009   0.019  -0.006   0.001   0.012  -0.059  -0.000


------------------------ aborting loop because EDIFF is reached ----------------------------------------


    CHARGE:  cpu time    1.5869: real time    1.5907
    FORLOC:  cpu time    0.0368: real time    0.0377
    FORNL :  cpu time    9.9411: real time    9.9646
    STRESS:  cpu time   31.3654: real time   31.4401
    FORCOR:  cpu time    0.1028: real time    0.1030
    FORHAR:  cpu time    0.0488: real time    0.0490
    MIXING:  cpu time    0.0073: real time    0.0073
    OFIELD:  cpu time    0.0001: real time    0.0001

  FORCE on cell =-STRESS in cart. coord.  units (eV):
  Direction    XX          YY          ZZ          XY          YZ          ZX
  --------------------------------------------------------------------------------------
  Alpha Z  1149.28122  1149.28122  1149.28122
  Ewald   -2686.76886 -2231.89029-17452.29168    77.89571   160.29408   -52.14142
  Hartree  7808.33498  7994.05568 -2958.05437     8.43109    64.10671   -15.99580
  E(xc)   -2007.51526 -2007.56502 -2010.54048    -0.05171    -0.25857     0.04314
  Local  -12757.55471-13362.86302 12604.48884   -78.38549  -217.68803    64.42155
  n-local  -884.33779  -875.58288  -897.70113     2.55473     5.79499    -1.20263
  augment  3366.33081  3347.11319  3408.91123    -3.90086    -3.46356     2.82420
  Kinetic  5982.09969  5960.14897  6118.06643    -5.37118     0.79346    -1.47071
  Fock        0.00000     0.00000     0.00000     0.00000     0.00000     0.00000
  -------------------------------------------------------------------------------------
  Total      -30.1299117    -27.3021411    -37.8399334      1.1723077      9.5790842     -3.5216654
  in kB      -79.9789838    -72.4727480   -100.4450146      3.1118572     25.4274034     -9.3481596
  external PRESSURE =     -84.2989155 kB  Pullay stress =       0.0000000 kB


 VOLUME and BASIS-vectors are now :
 -----------------------------------------------------------------------------
  energy-cutoff  :      500.00
  volume of cell :      603.58
      direct lattice vectors                 reciprocal lattice vectors
     8.571941750  0.000000000  0.000000000     0.116659682  0.067353499  0.000000000
    -4.285970880  7.423519320  0.000000000     0.000000000  0.134706998  0.000000000
     0.000000000  0.000000000  9.485134750     0.000000000  0.000000000  0.105428128

  length of vectors
     8.571941750  8.571941757  9.485134750     0.134706998  0.134706998  0.105428128


 FORCES acting on ions
    electron-ion (+dipol)            ewald-force                    non-local-force                 convergence-correction
 -----------------------------------------------------------------------------------------------
   0.465E+01 0.199E+03 0.906E+02   -.567E+01 -.205E+03 -.912E+02   -.241E+00 0.105E+01 -.227E+01   -.320E-02 -.799E-03 -.127E-01
   -.368E+02 0.104E+03 -.529E+02   0.371E+02 -.107E+03 0.514E+02   0.702E+00 0.587E+00 0.764E+00   -.310E-02 -.351E-02 -.672E-02
   0.909E+02 -.224E+02 0.700E+02   -.959E+02 0.246E+02 -.743E+02   0.106E+01 0.300E+00 0.666E+00   -.135E-02 -.457E-01 -.605E-02
   0.175E+03 0.555E+02 -.838E+02   -.180E+03 -.535E+02 0.845E+02   -.474E+00 0.768E+00 0.563E+00   -.994E-02 0.148E-02 -.322E-02
   0.250E+03 -.585E+02 0.819E+02   -.255E+03 0.600E+02 -.843E+02   -.974E+00 -.249E+00 -.164E+00   -.125E-01 0.241E-01 -.219E-02
   0.151E+03 -.533E+02 -.816E+02   -.154E+03 0.537E+02 0.807E+02   -.735E+00 -.463E+00 0.402E+00   -.201E-01 -.161E-01 -.563E-02
   0.612E+02 -.258E+01 -.205E+02   -.651E+02 0.256E+01 0.186E+02   0.103E+01 -.148E+00 0.431E+00   0.167E-01 0.122E-01 -.443E-02
   0.659E+01 -.187E+02 -.501E+01   -.739E+01 0.217E+02 0.487E+01   0.183E+01 -.303E+00 0.736E+00   -.274E-02 0.195E-01 -.991E-02
   -.387E+02 0.198E+02 0.874E+02   0.391E+02 -.157E+02 -.907E+02   -.662E+00 -.289E+00 0.605E+00   0.596E-02 -.279E-01 -.117E-01
   -.146E+02 0.149E+03 -.462E+02   0.156E+02 -.155E+03 0.454E+02   -.702E+00 0.160E+01 -.810E-01   0.134E-01 0.965E-03 0.575E-02
   -.437E+02 0.476E+02 0.650E+02   0.456E+02 -.510E+02 -.672E+02   -.106E+01 0.226E+00 0.122E+00   0.216E-01 0.367E-01 -.448E-02
   0.264E+02 -.103E+03 0.200E+01   -.276E+02 0.104E+03 -.216E+01   0.696E+00 0.246E-01 0.175E+01   0.706E-02 -.159E-01 -.124E-01
   -.127E+03 0.159E+02 0.210E+02   0.131E+03 -.158E+02 -.230E+02   0.432E+00 -.747E+00 -.121E+01   -.155E-02 -.255E-02 -.881E-02
   -.111E+03 -.135E+03 -.500E+02   0.114E+03 0.144E+03 0.509E+02   0.585E+00 0.126E+00 -.416E+00   0.108E-01 0.175E-01 -.569E-02
   -.199E+02 -.492E+02 0.513E+02   0.204E+02 0.520E+02 -.526E+02   -.510E+00 -.716E+00 -.599E+00   -.538E-02 -.302E-01 -.815E-02
   -.379E+02 0.608E+02 0.576E+02   0.385E+02 -.701E+02 -.622E+02   -.686E+00 0.105E+01 0.647E+00   0.235E-03 0.528E-03 -.271E-02
   -.310E+02 -.586E+02 -.318E+02   0.330E+02 0.568E+02 0.305E+02   -.127E+01 -.772E+00 -.711E+00   -.343E-02 0.248E-01 -.202E-01
   -.173E+03 -.178E+03 -.614E+02   0.178E+03 0.183E+03 0.594E+02   -.261E+00 -.109E+01 -.310E+01   0.723E-02 -.145E-01 0.137E-01
   -.124E+02 0.427E+02 -.352E+03   0.165E+02 -.404E+02 0.385E+03   -.694E+00 -.374E+01 -.303E+02   0.942E-02 -.344E-01 -.555E-01
   0.129E+02 0.629E+02 0.292E+03   -.127E+02 -.617E+02 -.314E+03   -.101E+01 -.213E+01 0.243E+02   -.198E-02 0.172E-01 -.642E-01
   -.717E+00 0.108E+03 -.418E+03   0.393E+01 -.111E+03 0.448E+03   -.245E+01 0.943E+00 -.299E+02   0.152E-01 0.515E-02 0.599E-01
   0.462E+02 0.668E+02 0.349E+03   -.456E+02 -.692E+02 -.372E+03   -.129E+01 0.215E+01 0.266E+02   -.120E-02 -.473E-02 0.669E-01
   0.157E+02 0.283E+02 -.338E+03   -.119E+02 -.316E+02 0.369E+03   -.174E+01 0.177E+01 -.296E+02   -.806E-03 0.275E-02 -.345E-01
   0.146E+02 -.198E+01 0.374E+03   -.136E+02 0.178E+01 -.404E+03   -.324E+00 0.973E+00 0.288E+02   0.135E-01 -.585E-02 -.514E-01
   0.489E+02 -.680E+01 -.399E+03   -.482E+02 0.555E+01 0.426E+03   -.404E+00 0.176E+01 -.278E+02   -.910E-02 -.204E-02 0.519E-01
   0.294E+02 -.149E+02 0.375E+03   -.315E+02 0.173E+02 -.400E+03   0.140E+00 -.156E+01 0.261E+02   0.143E-01 -.124E-01 0.391E-01
   0.789E+02 -.707E+01 -.256E+03   -.820E+02 0.692E+01 0.280E+03   0.342E+01 0.106E+01 -.248E+02   -.485E-02 0.259E-01 -.562E-01
   0.119E+02 -.460E+02 0.328E+03   -.112E+02 0.469E+02 -.355E+03   0.198E+00 -.132E+00 0.289E+02   -.769E-02 -.957E-02 -.697E-01
   0.761E+02 -.137E+02 -.349E+03   -.799E+02 0.153E+02 0.373E+03   0.354E+01 -.107E+01 -.263E+02   -.122E-01 -.886E-02 0.648E-01
   0.468E+02 -.348E+02 0.369E+03   -.457E+02 0.383E+02 -.393E+03   -.490E+00 -.318E+01 0.272E+02   0.308E-02 0.217E-01 0.514E-01
   -.651E+02 0.600E+02 -.319E+03   0.703E+02 -.631E+02 0.347E+03   -.207E+01 0.309E+00 -.280E+02   -.479E-02 -.136E-01 -.560E-01
   -.819E+01 0.346E+02 0.308E+03   0.976E+01 -.352E+02 -.330E+03   -.247E+01 -.121E+01 0.221E+02   0.919E-02 0.163E-01 -.564E-01
   -.153E+02 0.839E+02 -.346E+03   0.183E+02 -.881E+02 0.368E+03   -.293E+01 0.372E+01 -.238E+02   0.983E-03 0.181E-01 0.512E-01
   -.285E+02 -.223E+02 0.356E+03   0.295E+02 0.241E+02 -.381E+03   -.188E+00 -.194E+01 0.290E+02   0.958E-02 -.203E-01 0.736E-01
   -.284E+02 -.558E+02 -.291E+03   0.290E+02 0.568E+02 0.314E+03   -.133E+01 0.818E+00 -.243E+02   0.786E-02 -.264E-02 -.493E-01
   -.581E+02 -.395E+02 0.374E+03   0.606E+02 0.410E+02 -.404E+03   -.162E+01 0.321E+00 0.295E+02   0.171E-02 -.839E-02 -.463E-01
   0.481E+02 -.485E+02 -.427E+03   -.593E+02 0.497E+02 0.460E+03   0.811E+01 -.532E+00 -.310E+02   0.808E-03 -.177E-01 0.536E-01
   -.354E+02 -.142E+02 0.309E+03   0.344E+02 0.149E+02 -.327E+03   0.143E+01 -.160E+01 0.216E+02   -.297E-02 -.238E-02 0.435E-01
   -.101E+02 -.424E+02 -.350E+03   0.876E+01 0.426E+02 0.380E+03   0.163E+00 0.283E+01 -.292E+02   0.203E-01 0.427E-01 -.671E-01
   -.858E+02 0.197E+02 0.369E+03   0.943E+02 -.266E+02 -.398E+03   -.823E+01 0.266E+01 0.277E+02   0.110E-01 0.742E-03 -.636E-01
   0.725E+02 0.811E+01 -.379E+03   -.812E+02 -.112E+02 0.407E+03   0.549E+01 0.990E+00 -.286E+02   0.542E-02 0.364E-02 0.713E-01
   -.899E+02 -.481E+02 0.345E+03   0.945E+02 0.503E+02 -.369E+03   -.325E+01 -.132E+01 0.265E+02   0.646E-02 0.294E-01 0.586E-01
   0.528E+01 -.707E+01 -.308E+03   -.380E+01 0.105E+02 0.334E+03   -.276E+01 -.309E+01 -.256E+02   -.673E-02 -.455E-01 -.578E-01
   0.468E+02 0.927E+02 0.299E+03   -.544E+02 -.995E+02 -.324E+03   0.872E+01 0.398E+01 0.243E+02   -.137E-01 -.491E-02 -.586E-01
   -.749E+02 0.275E+02 -.343E+03   0.796E+02 -.299E+02 0.364E+03   -.252E+01 0.213E+01 -.218E+02   -.734E-02 0.574E-02 0.474E-01
   -.100E+02 0.116E+03 0.361E+03   0.847E+01 -.123E+03 -.384E+03   0.213E+01 0.502E+01 0.240E+02   -.986E-02 -.252E-01 0.622E-01
   -.451E+02 -.567E+02 -.261E+03   0.480E+02 0.591E+02 0.283E+03   -.211E+01 -.197E+01 -.233E+02   -.769E-02 0.283E-02 -.430E-01
   0.588E+01 0.117E+02 0.316E+03   -.390E+01 -.143E+02 -.340E+03   -.147E+01 0.271E+01 0.249E+02   -.126E-01 -.133E-02 -.478E-01
   -.624E+02 -.147E+03 -.381E+03   0.678E+02 0.159E+03 0.411E+03   -.511E+01 -.586E+01 -.270E+02   0.467E-02 -.615E-02 0.409E-01
   0.417E+02 -.180E+02 0.345E+03   -.432E+02 0.161E+02 -.368E+03   0.191E+01 0.208E+01 0.251E+02   -.657E-02 -.106E-01 0.349E-01
   -.468E+01 -.122E+02 -.260E+03   0.262E+01 0.156E+02 0.283E+03   0.124E+01 -.319E+01 -.240E+02   -.700E-02 0.195E-01 -.685E-01
   0.387E+02 0.428E+01 0.254E+03   -.422E+02 -.727E+01 -.271E+03   0.365E+01 0.311E+01 0.200E+02   -.115E-02 -.102E-01 -.581E-01
   -.549E+02 -.392E+02 -.324E+03   0.558E+02 0.430E+02 0.347E+03   -.190E+01 -.306E+01 -.220E+02   -.590E-03 -.619E-04 0.522E-01
   -.719E+02 -.662E+02 0.303E+03   0.774E+02 0.686E+02 -.323E+03   -.436E+01 -.133E+01 0.216E+02   -.896E-02 0.130E-01 0.490E-01
 -----------------------------------------------------------------------------------------------
   0.118E+02 -.336E+01 0.213E+02   0.142E-13 -.384E-12 -.568E-12   -.118E+02 0.341E+01 -.212E+02   0.253E-01 -.413E-01 -.137E+00
 
 
 POSITION                                       TOTAL-FORCE (eV/Angst)
 -----------------------------------------------------------------------------------
      0.05849      0.12312      0.08219        -1.266467     -4.410795     -2.873160
      8.49202      0.04121      4.60928         1.011696     -2.719588     -0.709505
      7.17083      2.35756      9.47579        -3.902057      2.471342     -3.672294
     -1.30807      2.32791      4.62854        -5.838697      2.749673      1.263776
     -2.63113      4.78142      9.44590        -6.154848      1.250855     -2.526417
     -2.70597      4.83597      4.61689        -3.768492     -0.070522     -0.493588
     -1.33600      7.28987      9.47162        -2.823463     -0.161589     -1.491619
     -1.54621      7.26402      4.54000         1.016672      2.736914      0.586504
      1.39053      2.26139      9.47267        -0.254366      3.757675     -2.763947
      1.36760      2.51366      4.65865         0.278912     -4.852982     -0.899354
     -0.00387      4.82151      9.44091         0.911812     -3.132574     -2.057724
     -0.04797      4.83348      4.52940        -0.523397      0.483758      1.587104
      1.14599      7.38762      0.04543         4.371394     -0.664696     -3.186896
      1.20875      7.15410      4.67700         3.647562      8.480961      0.555851
      4.18101      2.37483      9.46961         0.044322      2.075470     -1.869632
      4.22645      2.53289      4.59344        -0.094300     -8.283528     -3.968885
      2.77611      5.01199      0.07286         0.738129     -2.536325     -2.056829
      2.67443      4.68651      4.84301         5.595768      3.846767     -5.118015
     -0.17561      1.68055      0.86577         3.421932     -1.471242      2.694899
      1.41950      0.90921      3.49977        -0.774236     -1.009637      2.709591
     -0.01466      1.74574      5.65758         0.784800     -1.980860     -0.256619
      1.60021      0.71881      8.27916        -0.697482     -0.200365      3.153781
     -1.41213      4.05087      0.87782         2.067038     -1.539798      0.999854
     -0.05096      3.17607      3.70677         0.740989      0.773020     -1.275409
     -1.36684      3.96899      5.57421         0.294900      0.505988     -0.898753
      0.17800      3.09035      8.42674        -1.968492      0.733757      1.113020
     -2.76616      6.39565      0.92086         0.349402      0.942335     -1.135561
     -1.49740      5.61800      3.49128         0.889622      0.760600      2.044938
     -2.78910      6.42886      5.70253        -0.248813      0.453283     -2.647731
     -1.42805      5.55920      8.25333         0.600267      0.412634      2.652873
      2.66408      1.73365      0.94814         3.125783     -2.815538      0.450069
      4.24305      0.92311      3.63015        -0.898227     -1.847590      0.873414
      2.75706      1.64210      5.57992         0.033271     -0.488340     -1.143804
      4.08592      0.78394      8.26361         0.801264     -0.157747      3.347123
      1.42315      3.82639      1.04261        -0.749622      1.772259     -1.408079
      2.68589      3.15876      3.64729         0.794509      1.737766      0.356195
      1.37313      3.98312      5.57860        -3.107957      0.644303      2.496768
      2.75202      3.42581      8.29594         0.424351     -0.972976      3.214516
      0.02824      6.24033      0.92989        -1.189372      3.077484      0.817041
      1.31099      5.83089      3.71090         0.307035     -4.263138     -1.307686
      0.08301      6.56608      5.76553        -3.267441     -2.104662     -1.066589
      1.19844      5.67354      8.36372         1.352411      0.894952      2.539321
      5.68586      1.56460      0.90046        -1.286162      0.247586      0.094490
      6.97528      0.87177      3.76704         1.164412     -2.768968     -0.633375
      5.39272      1.55928      5.57129         2.139212     -0.245181     -0.124350
      6.92973      0.93701      8.37599         0.547944     -1.589630      1.865381
      4.13130      3.98100      1.01339         0.823359      0.414975     -1.543243
      5.71808      3.22330      3.60663         0.496608      0.105510      1.245455
      4.25788      3.82887      5.48508         0.261384      6.471252      3.770264
      5.68291      3.14235      8.40334         0.370699      0.262753      2.398883
      2.92530      6.62232      0.99403        -0.825595      0.273583     -1.028379
      4.32154      5.73797      3.56625         0.109273      0.108190      2.411735
      2.90671      6.41166      5.50722        -1.074939      0.732511      0.657769
      4.02180      5.52772      8.33336         1.197697      1.110115      2.256830
 -----------------------------------------------------------------------------------
    total drift:                                0.002388      0.006499     -0.001349


--------------------------------------------------------------------------------------------------------



  FREE ENERGIE OF THE ION-ELECTRON SYSTEM (eV)
  ---------------------------------------------------
  free  energy   TOTEN  =      -316.9942357013 eV

  energy  without entropy=     -316.9941668948  energy(sigma->0) =     -316.99420130
 


--------------------------------------------------------------------------------------------------------


    POTLOK:  cpu time    0.0833: real time    0.0835


--------------------------------------------------------------------------------------------------------


     LOOP+:  cpu time 1921.2356: real time 1926.6893
    4ORBIT:  cpu time    0.0000: real time    0.0000

volume of typ            1:    19.0 %

volume of typ            2:     9.7 %
 
total charge     
 
# of ion       s       p       d       tot
------------------------------------------
    1        0.249   0.274   7.825   8.347
    2        0.245   0.280   7.795   8.320
    3        0.310   0.429   7.832   8.572
    4        0.317   0.426   7.840   8.582
    5        0.285   0.346   7.821   8.453
    6        0.275   0.345   7.799   8.418
    7        0.252   0.301   7.812   8.366
    8        0.243   0.277   7.796   8.316
    9        0.307   0.438   7.826   8.571
   10        0.321   0.462   7.841   8.624
   11        0.296   0.400   7.821   8.517
   12        0.274   0.347   7.833   8.454
   13        0.260   0.308   7.811   8.379
   14        0.320   0.421   7.845   8.587
   15        0.256   0.311   7.789   8.356
   16        0.338   0.494   7.838   8.670
   17        0.266   0.329   7.775   8.370
   18        0.299   0.365   7.848   8.511
   19        1.285   2.771   0.015   4.070
   20        1.295   2.647   0.005   3.946
   21        1.288   2.717   0.009   4.014
   22        1.300   2.636   0.005   3.941
   23        1.282   2.754   0.011   4.047
   24        1.286   2.738   0.010   4.034
   25        1.288   2.708   0.008   4.003
   26        1.292   2.686   0.006   3.984
   27        1.287   2.677   0.006   3.970
   28        1.292   2.680   0.007   3.980
   29        1.294   2.651   0.005   3.951
   30        1.302   2.636   0.006   3.944
   31        1.290   2.712   0.010   4.012
   32        1.291   2.668   0.005   3.964
   33        1.296   2.658   0.005   3.959
   34        1.300   2.643   0.006   3.949
   35        1.295   2.657   0.005   3.957
   36        1.291   2.712   0.008   4.012
   37        1.286   2.773   0.014   4.073
   38        1.308   2.597   0.003   3.908
   39        1.283   2.738   0.011   4.032
   40        1.289   2.739   0.011   4.039
   41        1.299   2.675   0.009   3.983
   42        1.298   2.652   0.006   3.956
   43        1.286   2.698   0.007   3.992
   44        1.287   2.714   0.008   4.009
   45        1.295   2.663   0.005   3.964
   46        1.302   2.634   0.005   3.941
   47        1.296   2.641   0.005   3.941
   48        1.292   2.672   0.006   3.970
   49        1.289   2.756   0.013   4.058
   50        1.295   2.656   0.005   3.956
   51        1.289   2.666   0.006   3.960
   52        1.302   2.606   0.003   3.910
   53        1.284   2.692   0.006   3.983
   54        1.304   2.610   0.004   3.918
--------------------------------------------------
tot          51.65  103.08  141.01  295.74
 

 total amount of memory used by VASP MPI-rank0   186386. kBytes
=======================================================================

   base      :      30000. kBytes
   nonlr-proj:      30005. kBytes
   fftplans  :       6058. kBytes
   grid      :      19644. kBytes
   one-center:        839. kBytes
   wavefun   :      99840. kBytes
 
  
  
 General timing and accounting informations for this job:
 ========================================================
  
                  Total CPU time used (sec):     1949.256
                            User time (sec):     1944.706
                          System time (sec):        4.549
                         Elapsed time (sec):     1958.538
  
                   Maximum memory used (kb):      251892.
                   Average memory used (kb):           0.
  
                          Minor page faults:        38587
                          Major page faults:           80
                 Voluntary context switches:         1261
