 vasp.5.4.4.18Apr17-6-g9f103f2a35 (build May 12 2020 04:58:55) complex          
  
 MD_VERSION_INFO: Compiled 2020-05-12T11:58:55-UTC in devlin.sd.materialsdesign.
 com:/home/medea2/data/build/wwolf/vasp-gpu5.4.4/13047/x86_64/src/src/build/std 
 from svn 13047
 
 This VASP executable licensed from Materials Design, Inc.
 
 executed on                        Lin64 date 2023.04.27  09:35:32
 running on   16 total cores
 distrk:  each k-point on   16 cores,    1 groups
 distr:  one band on NCORES_PER_BAND=   1 cores,   16 groups


--------------------------------------------------------------------------------------------------------


 INCAR:
 POTCAR:    PAW_PBE Ni 02Aug2007                  
 POTCAR:    PAW_PBE O 08Apr2002                   

 ----------------------------------------------------------------------------- 
|                                                                             |
|           W    W    AA    RRRRR   N    N  II  N    N   GGGG   !!!           |
|           W    W   A  A   R    R  NN   N  II  NN   N  G    G  !!!           |
|           W    W  A    A  R    R  N N  N  II  N N  N  G       !!!           |
|           W WW W  AAAAAA  RRRRR   N  N N  II  N  N N  G  GGG   !            |
|           WW  WW  A    A  R   R   N   NN  II  N   NN  G    G                |
|           W    W  A    A  R    R  N    N  II  N    N   GGGG   !!!           |
|                                                                             |
|      For optimal performance we recommend to set                            |
|        NCORE= 4 - approx SQRT( number of cores)                             |
|      NCORE specifies how many cores store one orbital (NPAR=cpu/NCORE).     |
|      This setting can  greatly improve the performance of VASP for DFT.     |
|      The default,   NCORE=1            might be grossly inefficient         |
|      on modern multi-core architectures or massively parallel machines.     |
|      Do your own testing !!!!                                               |
|      Unfortunately you need to use the default for GW and RPA calculations. |
|      (for HF NCORE is supported but not extensively tested yet)             |
|                                                                             |
 ----------------------------------------------------------------------------- 

 POTCAR:    PAW_PBE Ni 02Aug2007                  
  local pseudopotential read in
  partial core-charges read in
  partial kinetic energy density read in
  atomic valenz-charges read in
  non local Contribution for L=           2  read in
    real space projection operators read in
  non local Contribution for L=           2  read in
    real space projection operators read in
  non local Contribution for L=           0  read in
    real space projection operators read in
  non local Contribution for L=           0  read in
    real space projection operators read in
  non local Contribution for L=           1  read in
    real space projection operators read in
  non local Contribution for L=           1  read in
    real space projection operators read in
    PAW grid and wavefunctions read in
 
   number of l-projection  operators is LMAX  =           6
   number of lm-projection operators is LMMAX =          18
 
 POTCAR:    PAW_PBE O 08Apr2002                   
  local pseudopotential read in
  partial core-charges read in
  partial kinetic energy density read in
  kinetic energy density of atom read in
  atomic valenz-charges read in
  non local Contribution for L=           0  read in
    real space projection operators read in
  non local Contribution for L=           0  read in
    real space projection operators read in
  non local Contribution for L=           1  read in
    real space projection operators read in
  non local Contribution for L=           1  read in
    real space projection operators read in
    PAW grid and wavefunctions read in
 
   number of l-projection  operators is LMAX  =           4
   number of lm-projection operators is LMMAX =           8
 
 Optimization of the real space projectors (new method)

 maximal supplied QI-value         = 16.25
 optimisation between [QCUT,QGAM] = [ 11.38, 22.75] = [ 36.24,144.96] Ry 
 Optimized for a Real-space Cutoff    1.47 Angstroem

   l    n(q)    QCUT    max X(q) W(low)/X(q) W(high)/X(q)  e(spline) 
   2      9    11.376    60.317    0.17E-03    0.16E-04    0.16E-06
   2      9    11.376    55.921    0.17E-03    0.16E-04    0.17E-06
   0     10    11.376    51.690    0.45E-04    0.60E-04    0.21E-06
   0     10    11.376    30.015    0.37E-04    0.55E-04    0.19E-06
   1     10    11.376    18.849    0.83E-04    0.11E-03    0.92E-07
   1     10    11.376    14.624    0.69E-04    0.92E-04    0.82E-07
 Optimization of the real space projectors (new method)

 maximal supplied QI-value         = 24.76
 optimisation between [QCUT,QGAM] = [ 11.39, 22.77] = [ 36.31,145.25] Ry 
 Optimized for a Real-space Cutoff    1.10 Angstroem

   l    n(q)    QCUT    max X(q) W(low)/X(q) W(high)/X(q)  e(spline) 
   0      7    11.387    20.381    0.22E-03    0.48E-03    0.18E-06
   0      7    11.387    15.268    0.22E-03    0.52E-03    0.19E-06
   1      7    11.387     5.964    0.22E-03    0.73E-03    0.24E-06
   1      7    11.387     5.382    0.19E-03    0.60E-03    0.21E-06

 ----------------------------------------------------------------------------- 
|                                                                             |
|  ADVICE TO THIS USER RUNNING 'VASP/VAMP'   (HEAR YOUR MASTER'S VOICE ...):  |
|                                                                             |
|      You enforced a specific xc-type in the INCAR file,                     |
|      a different type was found on the POTCAR file                          |
|          I HOPE YOU KNOW, WHAT YOU ARE  DOING                               |
|                                                                             |
 ----------------------------------------------------------------------------- 

  PAW_PBE Ni 02Aug2007                  :
 energy of atom  1       EATOM=-1077.6739
 kinetic energy error for atom=    0.0030 (will be added to EATOM!!)
  PAW_PBE O 08Apr2002                   :
 energy of atom  2       EATOM= -432.3788
 kinetic energy error for atom=    0.0224 (will be added to EATOM!!)
 
 
 POSCAR: NiO2_C2_m_scale_1_000_disp_0_06_round_2 
  positions in direct lattice
  No initial velocities read in
 exchange correlation table for  LEXCH =       14
   RHO(1)=    0.500       N(1)  =     2000
   RHO(2)=  100.500       N(2)  =     4000
 


--------------------------------------------------------------------------------------------------------


 ion  position               nearest neighbor table
   1  0.002  0.008  0.004-  19 1.82  51 1.83  22 1.88  46 1.88  27 1.95  54 1.97   9 2.72  13 2.77
                             3 2.77   7 2.80  17 2.81   5 2.88
   2  0.004  0.006  0.504-  21 1.73  44 1.78  53 1.84  29 1.89  20 1.91  52 1.93   8 2.74   4 2.74
                             6 2.75  10 2.78  14 2.83  18 2.86
   3  0.017  0.347  0.998-  26 1.71  23 1.80  19 1.85  50 1.89  46 2.04  43 2.05  11 2.70   9 2.70
                             5 2.72   1 2.77  15 2.89  13 2.90
   4  0.992  0.328  0.513-  21 1.68  45 1.75  25 1.83  44 1.91  48 1.94  24 2.00  14 2.71   2 2.74
                            10 2.78  16 2.80  12 2.81   6 2.88
   5  0.015  0.670  0.996-  30 1.69  50 1.81  27 1.85  47 1.90  23 1.91  54 2.00  11 2.63   3 2.72
                             7 2.76  15 2.87   1 2.88  17 2.89
   6  0.007  0.679  0.502-  49 1.80  52 1.80  29 1.80  25 1.82  28 1.88  48 1.98   8 2.70  12 2.74
                             2 2.75  18 2.86   4 2.88  16 2.98
   7  0.336  0.008  0.003-  27 1.77  39 1.81  34 1.87  31 1.89  30 1.95  22 1.98   9 2.71  15 2.74
                            11 2.75   5 2.76  13 2.79   1 2.80
   8  0.329  0.003  0.497-  29 1.72  20 1.74  33 1.83  28 1.85  32 1.86  41 1.97  16 2.68   6 2.70
                             2 2.74  14 2.80  12 2.83  10 2.83
   9  0.331  0.329  0.997-  22 1.85  31 1.86  38 1.87  26 1.90  35 1.93  19 1.98   3 2.70   7 2.71
                             1 2.72  15 2.77  17 2.83  11 2.92
  10  0.331  0.342  0.504-  24 1.78  37 1.79  21 1.91  33 1.93  36 1.98  20 1.99  12 2.72  18 2.73
                             2 2.78   4 2.78  16 2.79   8 2.83
  11  0.331  0.677  0.022-  39 1.69  23 1.73  35 1.76  42 1.87  26 1.91  30 1.97   5 2.63   3 2.70
                             7 2.75  13 2.78  17 2.86   9 2.92
  12  0.326  0.664  0.488-  28 1.73  24 1.86  25 1.91  40 1.93  41 1.97  37 2.03  10 2.72   6 2.74
                            18 2.77   4 2.81   8 2.83  14 2.86
  13  0.668  0.003  0.010-  39 1.80  43 1.82  42 1.86  34 1.87  51 1.89  46 1.99   1 2.77  11 2.78
                            15 2.78  17 2.79   7 2.79   3 2.90
  14  0.666  0.008  0.496-  44 1.76  32 1.76  45 1.83  41 1.93  40 1.93  53 2.01  16 2.66   4 2.71
                             8 2.80  18 2.82   2 2.83  12 2.86
  15  0.665  0.333  0.988-  38 1.82  31 1.87  50 1.88  34 1.91  43 1.97  47 1.98   7 2.74   9 2.77
                            13 2.78  17 2.80   5 2.87   3 2.89
  16  0.654  0.320  0.506-  33 1.66  32 1.89  36 1.91  48 1.94  45 1.96  49 2.00  14 2.66   8 2.68
                            10 2.79   4 2.80  18 2.89   6 2.98
  17  0.668  0.669  0.000-  54 1.78  47 1.83  38 1.84  35 1.87  51 1.88  42 1.91  13 2.79  15 2.80
                             1 2.81   9 2.83  11 2.86   5 2.89
  18  0.659  0.668  0.499-  40 1.71  36 1.78  52 1.82  53 1.87  49 1.88  37 1.93  10 2.73  12 2.77
                            14 2.82   2 2.86   6 2.86  16 2.89
  19  0.100  0.220  0.111-   1 1.82   3 1.85   9 1.98
  20  0.229  0.106  0.396-   8 1.74   2 1.91  10 1.99
  21  0.092  0.217  0.590-   4 1.68   2 1.73  10 1.91
  22  0.215  0.115  0.887-   9 1.85   1 1.88   7 1.98
  23  0.120  0.553  0.108-  11 1.73   3 1.80   5 1.91
  24  0.224  0.437  0.395-  10 1.78  12 1.86   4 2.00
  25  0.103  0.556  0.598-   6 1.82   4 1.83  12 1.91
  26  0.223  0.457  0.908-   3 1.71   9 1.90  11 1.91
  27  0.124  0.891  0.098-   7 1.77   5 1.85   1 1.95
  28  0.232  0.780  0.400-  12 1.73   8 1.85   6 1.88
  29  0.128  0.897  0.596-   8 1.72   6 1.80   2 1.89
  30  0.210  0.775  0.896-   5 1.69   7 1.95  11 1.97
  31  0.454  0.235  0.104-   9 1.86  15 1.87   7 1.89
  32  0.551  0.100  0.396-  14 1.76   8 1.86  16 1.89
  33  0.454  0.223  0.593-  16 1.66   8 1.83  10 1.93
  34  0.552  0.099  0.894-   7 1.87  13 1.87  15 1.91
  35  0.441  0.563  0.096-  11 1.76  17 1.87   9 1.93
  36  0.569  0.459  0.400-  18 1.78  16 1.91  10 1.98
  37  0.438  0.546  0.614-  10 1.79  18 1.93  12 2.03
  38  0.558  0.449  0.900-  15 1.82  17 1.84   9 1.87
  39  0.444  0.892  0.093-  11 1.69  13 1.80   7 1.81
  40  0.567  0.773  0.399-  18 1.71  14 1.93  12 1.93
  41  0.444  0.887  0.610-  14 1.93   8 1.97  12 1.97
  42  0.544  0.781  0.908-  13 1.86  11 1.87  17 1.91
  43  0.773  0.218  0.110-  13 1.82  15 1.97   3 2.05
  44  0.882  0.099  0.410-  14 1.76   2 1.78   4 1.91
  45  0.784  0.214  0.609-   4 1.75  14 1.83  16 1.96
  46  0.891  0.107  0.884-   1 1.88  13 1.99   3 2.04
  47  0.787  0.568  0.097-  17 1.83   5 1.90  15 1.98
  48  0.883  0.442  0.397-   4 1.94  16 1.94   6 1.98
  49  0.789  0.570  0.596-   6 1.80  18 1.88  16 2.00
  50  0.898  0.455  0.898-   5 1.81  15 1.88   3 1.89
  51  0.786  0.890  0.106-   1 1.83  17 1.88  13 1.89
  52  0.882  0.771  0.407-   6 1.80  18 1.82   2 1.93
  53  0.785  0.887  0.604-   2 1.84  18 1.87  14 2.01
  54  0.875  0.774  0.896-  17 1.78   1 1.97   5 2.00
 
  LATTYP: Found a hexagonal cell.
 ALAT       =     8.3628700013
 C/A-ratio  =     1.1065328050
  
  Lattice vectors:
  
 A1 = (   8.3628700000,   0.0000000000,   0.0000000000)
 A2 = (  -4.1814350000,   7.2424578700,   0.0000000000)
 A3 = (   0.0000000000,   0.0000000000,   9.2537900000)


Analysis of symmetry for initial positions (statically):
=====================================================================
 Subroutine PRICEL returns:
 Original cell was already a primitive cell.
 

 Routine SETGRP: Setting up the symmetry group for a 
 hexagonal supercell.


 Subroutine GETGRP returns: Found  1 space group operations
 (whereof  1 operations were pure point group operations)
 out of a pool of 24 trial point group operations.


The static configuration has the point symmetry C_1 .


Analysis of symmetry for dynamics (positions and initial velocities):
=====================================================================
 Subroutine PRICEL returns:
 Original cell was already a primitive cell.
 

 Routine SETGRP: Setting up the symmetry group for a 
 hexagonal supercell.


 Subroutine GETGRP returns: Found  1 space group operations
 (whereof  1 operations were pure point group operations)
 out of a pool of 24 trial point group operations.


The dynamic configuration has the point symmetry C_1 .


 Subroutine INISYM returns: Found  1 space group operations
 (whereof  1 operations are pure point group operations),
 and found     1 'primitive' translations

 
 
 KPOINTS: Automatic mesh                          

Automatic generation of k-mesh.
Space group operators:
 irot       det(A)        alpha          n_x          n_y          n_z        tau_x        tau_y        tau_z
    1     1.000000     0.000000     1.000000     0.000000     0.000000     0.000000     0.000000     0.000000
 
 Subroutine IBZKPT returns following result:
 ===========================================
 
 Found     26 irreducible k-points:
 
 Following reciprocal coordinates:
            Coordinates               Weight
  0.000000  0.000000  0.000000      1.000000
  0.250000  0.000000  0.000000      2.000000
  0.500000  0.000000  0.000000      1.000000
  0.000000  0.250000  0.000000      2.000000
  0.250000  0.250000  0.000000      2.000000
  0.500000  0.250000  0.000000      2.000000
 -0.250000  0.250000  0.000000      2.000000
  0.000000  0.500000  0.000000      1.000000
  0.250000  0.500000  0.000000      2.000000
  0.500000  0.500000  0.000000      1.000000
  0.000000  0.000000  0.333333      2.000000
  0.250000  0.000000  0.333333      2.000000
  0.500000  0.000000  0.333333      2.000000
 -0.250000  0.000000  0.333333      2.000000
  0.000000  0.250000  0.333333      2.000000
  0.250000  0.250000  0.333333      2.000000
  0.500000  0.250000  0.333333      2.000000
 -0.250000  0.250000  0.333333      2.000000
  0.000000  0.500000  0.333333      2.000000
  0.250000  0.500000  0.333333      2.000000
  0.500000  0.500000  0.333333      2.000000
 -0.250000  0.500000  0.333333      2.000000
  0.000000 -0.250000  0.333333      2.000000
  0.250000 -0.250000  0.333333      2.000000
  0.500000 -0.250000  0.333333      2.000000
 -0.250000 -0.250000  0.333333      2.000000
 
 Following cartesian coordinates:
            Coordinates               Weight
  0.000000  0.000000  0.000000      1.000000
  0.029894  0.017259  0.000000      2.000000
  0.059788  0.034519  0.000000      1.000000
  0.000000  0.034519  0.000000      2.000000
  0.029894  0.051778  0.000000      2.000000
  0.059788  0.069037  0.000000      2.000000
 -0.029894  0.017259  0.000000      2.000000
  0.000000  0.069037  0.000000      1.000000
  0.029894  0.086297  0.000000      2.000000
  0.059788  0.103556  0.000000      1.000000
  0.000000  0.000000  0.036021      2.000000
  0.029894  0.017259  0.036021      2.000000
  0.059788  0.034519  0.036021      2.000000
 -0.029894 -0.017259  0.036021      2.000000
  0.000000  0.034519  0.036021      2.000000
  0.029894  0.051778  0.036021      2.000000
  0.059788  0.069037  0.036021      2.000000
 -0.029894  0.017259  0.036021      2.000000
  0.000000  0.069037  0.036021      2.000000
  0.029894  0.086297  0.036021      2.000000
  0.059788  0.103556  0.036021      2.000000
 -0.029894  0.051778  0.036021      2.000000
  0.000000 -0.034519  0.036021      2.000000
  0.029894 -0.017259  0.036021      2.000000
  0.059788  0.000000  0.036021      2.000000
 -0.029894 -0.051778  0.036021      2.000000
 


--------------------------------------------------------------------------------------------------------




 Dimension of arrays:
   k-points           NKPTS =     26   k-points in BZ     NKDIM =     26   number of bands    NBANDS=    240
   number of dos      NEDOS =    301   number of ions     NIONS =     54
   non local maximal  LDIM  =      6   non local SUM 2l+1 LMDIM =     18
   total plane-waves  NPLWV = 286720
   max r-space proj   IRMAX =   6918   max aug-charges    IRDMAX=  16780
   dimension x,y,z NGX =    64 NGY =   64 NGZ =   70
   dimension x,y,z NGXF=   128 NGYF=  128 NGZF=  140
   support grid    NGXF=   128 NGYF=  128 NGZF=  140
   ions per type =              18  36
   NGX,Y,Z   is equivalent  to a cutoff of  12.72, 12.72, 12.58 a.u.
   NGXF,Y,Z  is equivalent  to a cutoff of  25.45, 25.45, 25.15 a.u.

 SYSTEM =  unknown system                          
 POSCAR =  NiO2_C2_m_scale_1_000_disp_0_06_round_2 

 Startparameter for this run:
   NWRITE =      1    write-flag & timer
   PREC   = accura    normal or accurate (medium, high low for compatibility)
   ISTART =      0    job   : 0-new  1-cont  2-samecut
   ICHARG =      2    charge: 1-file 2-atom 10-const
   ISPIN  =      1    spin polarized calculation?
   LNONCOLLINEAR =      F non collinear calculations
   LSORBIT =      F    spin-orbit coupling
   INIWAV =      1    electr: 0-lowe 1-rand  2-diag
   LASPH  =      F    aspherical Exc in radial PAW
   METAGGA=      F    non-selfconsistent MetaGGA calc.

 Electronic Relaxation 1
   ENCUT  =  500.0 eV  36.75 Ry    6.06 a.u.  15.25 15.25 16.87*2*pi/ulx,y,z
   ENINI  =  500.0     initial cutoff
   ENAUG  =  605.4 eV  augmentation charge cutoff
   NELM   =    120;   NELMIN=  2; NELMDL= -5     # of ELM steps 
   EDIFF  = 0.1E-04   stopping-criterion for ELM
   LREAL  =      T    real-space projection
   NLSPLINE    = F    spline interpolate recip. space projectors
   LCOMPAT=      F    compatible to vasp.4.4
   GGA_COMPAT  = T    GGA compatible to vasp.4.4-vasp.4.6
   LMAXPAW     = -100 max onsite density
   LMAXMIX     =    2 max onsite mixed and CHGCAR
   VOSKOWN=      1    Vosko Wilk Nusair interpolation
   ROPT   =   -0.00025  -0.00025
 Ionic relaxation
   EDIFFG = 0.1E-03   stopping-criterion for IOM
   NSW    =      0    number of steps for IOM
   NBLOCK =      1;   KBLOCK =      1    inner block; outer block 
   IBRION =     -1    ionic relax: 0-MD 1-quasi-New 2-CG
   NFREE  =      0    steps in history (QN), initial steepest desc. (CG)
   ISIF   =      2    stress and relaxation
   IWAVPR =     10    prediction:  0-non 1-charg 2-wave 3-comb
   ISYM   =      2    0-nonsym 1-usesym 2-fastsym
   LCORR  =      T    Harris-Foulkes like correction to forces

   POTIM  = 0.5000    time-step for ionic-motion
   TEIN   =    0.0    initial temperature
   TEBEG  =    0.0;   TEEND  =   0.0 temperature during run
   SMASS  =  -3.00    Nose mass-parameter (am)
   estimated Nose-frequenzy (Omega)   =  0.10E-29 period in steps =****** mass=  -0.160E-26a.u.
   SCALEE = 1.0000    scale energy and forces
   NPACO  =    256;   APACO  = 16.0  distance and # of slots for P.C.
   PSTRESS=    0.0 pullay stress

  Mass of Ions in am
   POMASS =  58.69 16.00
  Ionic Valenz
   ZVAL   =  10.00  6.00
  Atomic Wigner-Seitz radii
   RWIGS  =   1.15  0.73
  virtual crystal weights 
   VCA    =   1.00  1.00
   NELECT =     396.0000    total number of electrons
   NUPDOWN=      -1.0000    fix difference up-down

 DOS related values:
   EMIN   =  10.00;   EMAX   =-10.00  energy-range for DOS
   EFERMI =   0.00
   ISMEAR =     0;   SIGMA  =   0.05  broadening in eV -4-tet -1-fermi 0-gaus

 Electronic relaxation 2 (details)
   IALGO  =     38    algorithm
   LDIAG  =      T    sub-space diagonalisation (order eigenvalues)
   LSUBROT=      F    optimize rotation matrix (better conditioning)
   TURBO    =      0    0=normal 1=particle mesh
   IRESTART =      0    0=no restart 2=restart with 2 vectors
   NREBOOT  =      0    no. of reboots
   NMIN     =      0    reboot dimension
   EREF     =   0.00    reference energy to select bands
   IMIX   =      4    mixing-type and parameters
     AMIX     =   0.40;   BMIX     =  1.00
     AMIX_MAG =   1.60;   BMIX_MAG =  1.00
     AMIN     =   0.10
     WC   =   100.;   INIMIX=   1;  MIXPRE=   1;  MAXMIX= -45

 Intra band minimization:
   WEIMIN = 0.0000     energy-eigenvalue tresh-hold
   EBREAK =  0.10E-07  absolut break condition
   DEPER  =   0.30     relativ break condition  

   TIME   =   0.40     timestep for ELM

  volume/ion in A,a.u.               =      10.38        70.04
  Fermi-wavevector in a.u.,A,eV,Ry     =   1.458096  2.755403 28.926600  2.126045
  Thomas-Fermi vector in A             =   2.574821
 
 Write flags
   LWAVE        =      F    write WAVECAR
   LDOWNSAMPLE  =      F    k-point downsampling of WAVECAR
   LCHARG       =      T    write CHGCAR
   LVTOT        =      F    write LOCPOT, total local potential
   LVHAR        =      F    write LOCPOT, Hartree potential only
   LELF         =      F    write electronic localiz. function (ELF)
   LORBIT       =      0    0 simple, 1 ext, 2 COOP (PROOUT), +10 PAW based schemes


 Dipole corrections
   LMONO  =      F    monopole corrections only (constant potential shift)
   LDIPOL =      F    correct potential (dipole corrections)
   IDIPOL =      0    1-x, 2-y, 3-z, 4-all directions 
   EPSILON=  1.0000000 bulk dielectric constant

 Exchange correlation treatment:
   GGA     =    PS    GGA type
   LEXCH   =    14    internal setting for exchange type
   VOSKOWN=      1    Vosko Wilk Nusair interpolation
   LHFCALC =     F    Hartree Fock is set to
   LHFONE  =     F    Hartree Fock one center treatment
   AEXX    =    0.0000 exact exchange contribution

 Linear response parameters
   LEPSILON=     F    determine dielectric tensor
   LRPA    =     F    only Hartree local field effects (RPA)
   LNABLA  =     F    use nabla operator in PAW spheres
   LVEL    =     F    velocity operator in full k-point grid
   LINTERFAST=   F  fast interpolation
   KINTER  =     0    interpolate to denser k-point grid
   CSHIFT  =0.1000    complex shift for real part using Kramers Kronig
   OMEGAMAX=  -1.0    maximum frequency
   DEG_THRESHOLD= 0.2000000E-02 threshold for treating states as degnerate
   RTIME   =   -0.100 relaxation time in fs
  (WPLASMAI=    0.000 imaginary part of plasma frequency in eV, 0.658/RTIME)
   DFIELD  = 0.0000000 0.0000000 0.0000000 field for delta impulse in time
 
 Orbital magnetization related:
   ORBITALMAG=     F  switch on orbital magnetization
   LCHIMAG   =     F  perturbation theory with respect to B field
   DQ        =  0.001000  dq finite difference perturbation B field
   LLRAUG    =     F  two centre corrections for induced B field



--------------------------------------------------------------------------------------------------------


 Static calculation
 charge density and potential will be updated during run
 non-spin polarized calculation
 Variant of blocked Davidson
 Davidson routine will perform the subspace rotation
 perform sub-space diagonalisation
    after iterative eigenvector-optimisation
 modified Broyden-mixing scheme, WC =      100.0
 initial mixing is a Kerker type mixing with AMIX =  0.4000 and BMIX =      1.0000
 Hartree-type preconditioning will be used
 using additional bands           42
 real space projection scheme for non local part
 use partial core corrections
 calculate Harris-corrections to forces 
   (improved forces if not selfconsistent)
 use gradient corrections 
 use of overlap-Matrix (Vanderbilt PP)
 Gauss-broadening in eV      SIGMA  =   0.05


--------------------------------------------------------------------------------------------------------


  energy-cutoff  :      500.00
  volume of cell :      560.48
      direct lattice vectors                 reciprocal lattice vectors
     8.362870000  0.000000000  0.000000000     0.119576174  0.069037336  0.000000000
    -4.181435000  7.242457870  0.000000000     0.000000000  0.138074673  0.000000000
     0.000000000  0.000000000  9.253790000     0.000000000  0.000000000  0.108063831

  length of vectors
     8.362870000  8.362870001  9.253790000     0.138074673  0.138074673  0.108063831


 
 k-points in units of 2pi/SCALE and weight: Automatic mesh                          
   0.00000000  0.00000000  0.00000000       0.021
   0.02989404  0.01725933  0.00000000       0.042
   0.05978809  0.03451867  0.00000000       0.021
   0.00000000  0.03451867  0.00000000       0.042
   0.02989404  0.05177800  0.00000000       0.042
   0.05978809  0.06903734  0.00000000       0.042
  -0.02989404  0.01725933  0.00000000       0.042
   0.00000000  0.06903734  0.00000000       0.021
   0.02989404  0.08629667  0.00000000       0.042
   0.05978809  0.10355600  0.00000000       0.021
   0.00000000  0.00000000  0.03602128       0.042
   0.02989404  0.01725933  0.03602128       0.042
   0.05978809  0.03451867  0.03602128       0.042
  -0.02989404 -0.01725933  0.03602128       0.042
   0.00000000  0.03451867  0.03602128       0.042
   0.02989404  0.05177800  0.03602128       0.042
   0.05978809  0.06903734  0.03602128       0.042
  -0.02989404  0.01725933  0.03602128       0.042
   0.00000000  0.06903734  0.03602128       0.042
   0.02989404  0.08629667  0.03602128       0.042
   0.05978809  0.10355600  0.03602128       0.042
  -0.02989404  0.05177800  0.03602128       0.042
   0.00000000 -0.03451867  0.03602128       0.042
   0.02989404 -0.01725933  0.03602128       0.042
   0.05978809  0.00000000  0.03602128       0.042
  -0.02989404 -0.05177800  0.03602128       0.042
 
 k-points in reciprocal lattice and weights: Automatic mesh                          
   0.00000000  0.00000000  0.00000000       0.021
   0.25000000  0.00000000  0.00000000       0.042
   0.50000000  0.00000000  0.00000000       0.021
   0.00000000  0.25000000  0.00000000       0.042
   0.25000000  0.25000000  0.00000000       0.042
   0.50000000  0.25000000  0.00000000       0.042
  -0.25000000  0.25000000  0.00000000       0.042
   0.00000000  0.50000000  0.00000000       0.021
   0.25000000  0.50000000  0.00000000       0.042
   0.50000000  0.50000000  0.00000000       0.021
   0.00000000  0.00000000  0.33333333       0.042
   0.25000000  0.00000000  0.33333333       0.042
   0.50000000  0.00000000  0.33333333       0.042
  -0.25000000  0.00000000  0.33333333       0.042
   0.00000000  0.25000000  0.33333333       0.042
   0.25000000  0.25000000  0.33333333       0.042
   0.50000000  0.25000000  0.33333333       0.042
  -0.25000000  0.25000000  0.33333333       0.042
   0.00000000  0.50000000  0.33333333       0.042
   0.25000000  0.50000000  0.33333333       0.042
   0.50000000  0.50000000  0.33333333       0.042
  -0.25000000  0.50000000  0.33333333       0.042
   0.00000000 -0.25000000  0.33333333       0.042
   0.25000000 -0.25000000  0.33333333       0.042
   0.50000000 -0.25000000  0.33333333       0.042
  -0.25000000 -0.25000000  0.33333333       0.042
 
 position of ions in fractional coordinates (direct lattice) 
   0.00157157  0.00814947  0.00376660
   0.00372499  0.00644145  0.50377332
   0.01744876  0.34710859  0.99830657
   0.99218050  0.32757292  0.51258138
   0.01484324  0.67045032  0.99627302
   0.00708881  0.67920923  0.50227668
   0.33649019  0.00759649  0.00327852
   0.32909274  0.00322391  0.49724462
   0.33142733  0.32895609  0.99669128
   0.33146214  0.34234041  0.50436616
   0.33071791  0.67676091  0.02180974
   0.32594913  0.66385039  0.48794934
   0.66813221  0.00291261  0.00986520
   0.66567355  0.00777132  0.49558182
   0.66515477  0.33318512  0.98840748
   0.65381431  0.31984035  0.50626985
   0.66825114  0.66907012  0.00040488
   0.65933210  0.66775140  0.49879831
   0.10014864  0.21953567  0.11065436
   0.22902227  0.10587285  0.39643111
   0.09167031  0.21732649  0.58992319
   0.21468052  0.11486933  0.88740722
   0.11990550  0.55269607  0.10750512
   0.22357864  0.43674861  0.39456111
   0.10317904  0.55566335  0.59761749
   0.22339211  0.45653491  0.90783063
   0.12435501  0.89087024  0.09804786
   0.23158117  0.77988156  0.40029103
   0.12792702  0.89708011  0.59576884
   0.21004448  0.77528642  0.89643734
   0.45406745  0.23475896  0.10378329
   0.55068981  0.09961406  0.39594178
   0.45408171  0.22322840  0.59313617
   0.55235151  0.09890617  0.89373452
   0.44056311  0.56262538  0.09587497
   0.56929448  0.45853327  0.39971266
   0.43762198  0.54595168  0.61404786
   0.55797105  0.44936432  0.89953265
   0.44381786  0.89209699  0.09252535
   0.56654548  0.77294359  0.39855724
   0.44350086  0.88695497  0.60955508
   0.54378970  0.78100392  0.90843497
   0.77331970  0.21846968  0.10995064
   0.88165265  0.09872923  0.41031395
   0.78400669  0.21387902  0.60919034
   0.89055632  0.10684983  0.88354663
   0.78661069  0.56809737  0.09722694
   0.88268572  0.44195609  0.39672019
   0.78930382  0.57013698  0.59581836
   0.89768606  0.45450412  0.89849217
   0.78589553  0.89010106  0.10619627
   0.88223171  0.77069011  0.40748092
   0.78537653  0.88673037  0.60416590
   0.87454041  0.77403414  0.89576673
 
 position of ions in cartesian coordinates  (Angst):
  -0.02093364  0.05902219  0.03485533
   0.00421710  0.04665193  4.66181251
  -1.30549030  2.51391934  9.23811935
   6.92775167  2.37243307  4.74332045
  -2.67931235  4.85570820  9.21930131
  -2.78078645  4.91914423  4.64796292
   2.78225949  0.05501726  0.03033874
   2.73867923  0.02334903  4.60139729
   1.39617517  2.38245062  9.22317180
   1.34050061  2.47938600  4.66729853
  -0.06408087  4.90141238  0.20182275
  -0.04997705  4.80790848  4.51538072
   5.57532393  0.02109446  0.09129049
   5.53444609  0.05628346  4.58601009
   4.16941095  2.41307919  9.14651525
   4.13037244  2.31643026  4.68491488
   2.79082419  4.84571216  0.00374667
   2.72174956  4.83616138  4.61577481
  -0.08044408  1.58997784  1.02397221
   1.47258303  0.76677966  3.66849024
  -0.14210971  1.57397795  5.45902532
   1.31502664  0.83193628  8.21188006
  -1.30830858  4.00287800  0.99482980
   0.04352318  3.16313341  3.65118565
  -1.46059728  4.02436840  5.53022675
  -0.04077188  3.30643485  8.40087401
  -2.68515122  6.45209018  0.90731431
  -1.32434083  5.64825934  3.70420913
  -2.68124513  6.49706490  5.51311973
  -1.48523509  5.61497923  8.29544289
   2.81567772  1.70023188  0.96038877
   4.18881757  0.72145063  3.66396208
   2.86401127  1.61672228  5.48875756
   4.20567415  0.71632377  8.27043156
   1.33179056  4.07479061  0.88720684
   2.84360866  3.32090789  3.69885702
   1.37691426  3.95403204  5.68226995
   2.78725166  3.25450216  8.32408624
  -0.01865451  6.46097487  0.85621016
   1.50593282  5.59801139  3.68816500
   0.00019548  6.42373400  5.64069470
   1.28192544  5.65638799  8.40646644
   5.55365535  1.58225745  1.01746013
   6.96031664  0.71504229  3.79695913
   5.66222481  1.54900979  5.63731948
   7.00082111  0.77385539  8.17615497
   4.20286071  4.11442127  0.89971769
   5.53377526  3.20084836  3.67116533
   4.21685451  4.12919306  5.51357798
   5.60675239  3.29172694  8.31445786
   2.85044243  6.44651943  0.98271798
   4.15539850  5.58169065  3.77074286
   2.86019642  6.42210735  5.59082436
   4.07709431  5.60590965  8.28923721
 


--------------------------------------------------------------------------------------------------------


 k-point  1 :   0.0000 0.0000 0.0000  plane waves:   14241
 k-point  2 :   0.2500 0.0000 0.0000  plane waves:   14190
 k-point  3 :   0.5000 0.0000 0.0000  plane waves:   14218
 k-point  4 :   0.0000 0.2500 0.0000  plane waves:   14190
 k-point  5 :   0.2500 0.2500 0.0000  plane waves:   14239
 k-point  6 :   0.5000 0.2500 0.0000  plane waves:   14239
 k-point  7 :  -0.2500 0.2500 0.0000  plane waves:   14190
 k-point  8 :   0.0000 0.5000 0.0000  plane waves:   14218
 k-point  9 :   0.2500 0.5000 0.0000  plane waves:   14239
 k-point 10 :   0.5000 0.5000 0.0000  plane waves:   14218
 k-point 11 :   0.0000 0.0000 0.3333  plane waves:   14206
 k-point 12 :   0.2500 0.0000 0.3333  plane waves:   14238
 k-point 13 :   0.5000 0.0000 0.3333  plane waves:   14242
 k-point 14 :  -0.2500 0.0000 0.3333  plane waves:   14238
 k-point 15 :   0.0000 0.2500 0.3333  plane waves:   14238
 k-point 16 :   0.2500 0.2500 0.3333  plane waves:   14221
 k-point 17 :   0.5000 0.2500 0.3333  plane waves:   14221
 k-point 18 :  -0.2500 0.2500 0.3333  plane waves:   14238
 k-point 19 :   0.0000 0.5000 0.3333  plane waves:   14242
 k-point 20 :   0.2500 0.5000 0.3333  plane waves:   14221
 k-point 21 :   0.5000 0.5000 0.3333  plane waves:   14242
 k-point 22 :  -0.2500 0.5000 0.3333  plane waves:   14221
 k-point 23 :   0.0000-0.2500 0.3333  plane waves:   14238
 k-point 24 :   0.2500-0.2500 0.3333  plane waves:   14238
 k-point 25 :   0.5000-0.2500 0.3333  plane waves:   14221
 k-point 26 :  -0.2500-0.2500 0.3333  plane waves:   14221

 maximum and minimum number of plane-waves per node :     14242    14190

 maximum number of plane-waves:     14242
 maximum index in each direction: 
   IXMAX=   15   IYMAX=   15   IZMAX=   16
   IXMIN=  -15   IYMIN=  -15   IZMIN=  -17

 The following grids will avoid any aliasing or wrap around errors in the Hartre
 e energy
  - symmetry arguments have not been applied
  - exchange correlation energies might require even more grid points
  - we recommend to set PREC=Normal or Accurate and rely on VASP defaults
 NGX is ok and might be reduce to    64
 NGY is ok and might be reduce to    64
 NGZ is ok and might be reduce to    70

 serial   3D FFT for wavefunctions
 parallel 3D FFT for charge:
    minimum data exchange during FFTs selected (reduces bandwidth)


 total amount of memory used by VASP MPI-rank0   181706. kBytes
=======================================================================

   base      :      30000. kBytes
   nonlr-proj:      32314. kBytes
   fftplans  :       6058. kBytes
   grid      :      19644. kBytes
   one-center:        839. kBytes
   wavefun   :      92851. kBytes
 
     INWAV:  cpu time    0.0000: real time    0.0000
 Broyden mixing: mesh for mixing (old mesh)
   NGX = 31   NGY = 31   NGZ = 33
  (NGX  =128   NGY  =128   NGZ  =140)
  gives a total of  31713 points

 initial charge density was supplied:
 charge density of overlapping atoms calculated
 number of electron     396.0000000 magnetization 
 keeping initial charge density in first step


--------------------------------------------------------------------------------------------------------


 Maximum index for non-local projection operator         6683
 Maximum index for augmentation-charges         1081 (set IRDMAX)


--------------------------------------------------------------------------------------------------------


 First call to EWALD:  gamma=   0.215
 Maximum number of real-space cells 3x 3x 3
 Maximum number of reciprocal cells 3x 3x 3

    FEWALD:  cpu time    0.0030: real time    0.0030


--------------------------------------- Iteration      1(   1)  ---------------------------------------


    POTLOK:  cpu time    0.1199: real time    0.1616
    SETDIJ:  cpu time    0.0142: real time    0.0143
     EDDAV:  cpu time   59.6822: real time   59.8391
    --------------------------------------------
      LOOP:  cpu time   59.8181: real time   60.0167

 eigenvalue-minimisations  : 12480
 total energy-change (2. order) : 0.5293192E+04  (-0.1769327E+05)
 number of electron     396.0000000 magnetization 
 augmentation part      396.0000000 magnetization 

 Free energy of the ion-electron system (eV)
  ---------------------------------------------------
  alpha Z        PSCENC =      1237.65017714
  Ewald energy   TEWEN  =    -22513.04969703
  -Hartree energ DENC   =    -13379.83885458
  -exchange      EXHF   =         0.00000000
  -V(xc)+E(xc)   XCENC  =      1588.67362886
  PAW double counting   =     29784.60368500   -31040.73694357
  entropy T*S    EENTRO =        -0.00639225
  eigenvalues    EBANDS =      4725.51510778
  atomic energy  EATOM  =     34890.38139807
  Solvation  Ediel_sol  =         0.00000000
  ---------------------------------------------------
  free energy    TOTEN  =      5293.19210941 eV

  energy without entropy =     5293.19850166  energy(sigma->0) =     5293.19530554


--------------------------------------------------------------------------------------------------------




--------------------------------------- Iteration      1(   2)  ---------------------------------------


     EDDAV:  cpu time   65.5463: real time   65.7019
    --------------------------------------------
      LOOP:  cpu time   65.5464: real time   65.7019

 eigenvalue-minimisations  : 12976
 total energy-change (2. order) :-0.4597186E+04  (-0.4275729E+04)
 number of electron     396.0000000 magnetization 
 augmentation part      396.0000000 magnetization 

 Free energy of the ion-electron system (eV)
  ---------------------------------------------------
  alpha Z        PSCENC =      1237.65017714
  Ewald energy   TEWEN  =    -22513.04969703
  -Hartree energ DENC   =    -13379.83885458
  -exchange      EXHF   =         0.00000000
  -V(xc)+E(xc)   XCENC  =      1588.67362886
  PAW double counting   =     29784.60368500   -31040.73694357
  entropy T*S    EENTRO =        -0.02673550
  eigenvalues    EBANDS =       128.34959949
  atomic energy  EATOM  =     34890.38139807
  Solvation  Ediel_sol  =         0.00000000
  ---------------------------------------------------
  free energy    TOTEN  =       696.00625788 eV

  energy without entropy =      696.03299338  energy(sigma->0) =      696.01962563


--------------------------------------------------------------------------------------------------------




--------------------------------------- Iteration      1(   3)  ---------------------------------------


     EDDAV:  cpu time   66.9682: real time   67.1269
    --------------------------------------------
      LOOP:  cpu time   66.9674: real time   67.1261

 eigenvalue-minimisations  : 13280
 total energy-change (2. order) :-0.1054496E+04  (-0.9223831E+03)
 number of electron     396.0000000 magnetization 
 augmentation part      396.0000000 magnetization 

 Free energy of the ion-electron system (eV)
  ---------------------------------------------------
  alpha Z        PSCENC =      1237.65017714
  Ewald energy   TEWEN  =    -22513.04969703
  -Hartree energ DENC   =    -13379.83885458
  -exchange      EXHF   =         0.00000000
  -V(xc)+E(xc)   XCENC  =      1588.67362886
  PAW double counting   =     29784.60368500   -31040.73694357
  entropy T*S    EENTRO =        -0.00000000
  eigenvalues    EBANDS =      -926.17310377
  atomic energy  EATOM  =     34890.38139807
  Solvation  Ediel_sol  =         0.00000000
  ---------------------------------------------------
  free energy    TOTEN  =      -358.48970989 eV

  energy without entropy =     -358.48970989  energy(sigma->0) =     -358.48970989


--------------------------------------------------------------------------------------------------------




--------------------------------------- Iteration      1(   4)  ---------------------------------------


     EDDAV:  cpu time   58.7933: real time   58.9326
    --------------------------------------------
      LOOP:  cpu time   58.7931: real time   58.9324

 eigenvalue-minimisations  : 13312
 total energy-change (2. order) :-0.1077511E+03  (-0.1056471E+03)
 number of electron     396.0000000 magnetization 
 augmentation part      396.0000000 magnetization 

 Free energy of the ion-electron system (eV)
  ---------------------------------------------------
  alpha Z        PSCENC =      1237.65017714
  Ewald energy   TEWEN  =    -22513.04969703
  -Hartree energ DENC   =    -13379.83885458
  -exchange      EXHF   =         0.00000000
  -V(xc)+E(xc)   XCENC  =      1588.67362886
  PAW double counting   =     29784.60368500   -31040.73694357
  entropy T*S    EENTRO =        -0.00000000
  eigenvalues    EBANDS =     -1033.92423374
  atomic energy  EATOM  =     34890.38139807
  Solvation  Ediel_sol  =         0.00000000
  ---------------------------------------------------
  free energy    TOTEN  =      -466.24083985 eV

  energy without entropy =     -466.24083985  energy(sigma->0) =     -466.24083985


--------------------------------------------------------------------------------------------------------




--------------------------------------- Iteration      1(   5)  ---------------------------------------


     EDDAV:  cpu time   63.5270: real time   63.6775
    CHARGE:  cpu time    1.8571: real time    1.8615
    MIXING:  cpu time    0.0046: real time    0.0073
    --------------------------------------------
      LOOP:  cpu time   65.3879: real time   65.5456

 eigenvalue-minimisations  : 14288
 total energy-change (2. order) :-0.3336673E+01  (-0.3330907E+01)
 number of electron     396.0000080 magnetization 
 augmentation part      113.0369584 magnetization 

 Broyden mixing:
  rms(total) = 0.12172E+02    rms(broyden)= 0.12169E+02
  rms(prec ) = 0.15009E+02
  weight for this iteration     100.00

 Free energy of the ion-electron system (eV)
  ---------------------------------------------------
  alpha Z        PSCENC =      1237.65017714
  Ewald energy   TEWEN  =    -22513.04969703
  -Hartree energ DENC   =    -13379.83885458
  -exchange      EXHF   =         0.00000000
  -V(xc)+E(xc)   XCENC  =      1588.67362886
  PAW double counting   =     29784.60368500   -31040.73694357
  entropy T*S    EENTRO =        -0.00000000
  eigenvalues    EBANDS =     -1037.26090657
  atomic energy  EATOM  =     34890.38139807
  Solvation  Ediel_sol  =         0.00000000
  ---------------------------------------------------
  free energy    TOTEN  =      -469.57751268 eV

  energy without entropy =     -469.57751268  energy(sigma->0) =     -469.57751268


--------------------------------------------------------------------------------------------------------




--------------------------------------- Iteration      1(   6)  ---------------------------------------


    POTLOK:  cpu time    0.0794: real time    0.0796
    SETDIJ:  cpu time    0.0091: real time    0.0092
     EDDAV:  cpu time   84.5626: real time   84.7628
    CHARGE:  cpu time    2.8484: real time    2.8552
    MIXING:  cpu time    0.0038: real time    0.0038
    --------------------------------------------
      LOOP:  cpu time   87.5033: real time   87.7105

 eigenvalue-minimisations  : 19280
 total energy-change (2. order) :-0.1033730E+03  (-0.1146088E+03)
 number of electron     396.0000091 magnetization 
 augmentation part      155.2455983 magnetization 

 Broyden mixing:
  rms(total) = 0.20475E+02    rms(broyden)= 0.20473E+02
  rms(prec ) = 0.23003E+02
  weight for this iteration     100.00

 eigenvalues of (default mixing * dielectric matrix)
  average eigenvalue GAMMA=   0.2107
  0.2107

 Free energy of the ion-electron system (eV)
  ---------------------------------------------------
  alpha Z        PSCENC =      1237.65017714
  Ewald energy   TEWEN  =    -22513.04969703
  -Hartree energ DENC   =    -12671.64524602
  -exchange      EXHF   =         0.00000000
  -V(xc)+E(xc)   XCENC  =      1584.41247927
  PAW double counting   =     33059.22880476   -34105.23180178
  entropy T*S    EENTRO =        -0.03801318
  eigenvalues    EBANDS =     -2054.65863120
  atomic energy  EATOM  =     34890.38139807
  Solvation  Ediel_sol  =         0.00000000
  ---------------------------------------------------
  free energy    TOTEN  =      -572.95052997 eV

  energy without entropy =     -572.91251679  energy(sigma->0) =     -572.93152338


--------------------------------------------------------------------------------------------------------




--------------------------------------- Iteration      1(   7)  ---------------------------------------


    POTLOK:  cpu time    0.1130: real time    0.1132
    SETDIJ:  cpu time    0.0096: real time    0.0097
     EDDAV:  cpu time   73.5669: real time   73.7412
    CHARGE:  cpu time    1.9445: real time    1.9491
    MIXING:  cpu time    0.0027: real time    0.0027
    --------------------------------------------
      LOOP:  cpu time   75.6367: real time   75.8158

 eigenvalue-minimisations  : 17984
 total energy-change (2. order) : 0.2199813E+03  (-0.2860393E+02)
 number of electron     396.0000087 magnetization 
 augmentation part      138.5344704 magnetization 

 Broyden mixing:
  rms(total) = 0.60517E+01    rms(broyden)= 0.60509E+01
  rms(prec ) = 0.75532E+01
  weight for this iteration     100.00

 eigenvalues of (default mixing * dielectric matrix)
  average eigenvalue GAMMA=   0.5936
  0.5936  0.5936

 Free energy of the ion-electron system (eV)
  ---------------------------------------------------
  alpha Z        PSCENC =      1237.65017714
  Ewald energy   TEWEN  =    -22513.04969703
  -Hartree energ DENC   =    -12973.05990751
  -exchange      EXHF   =         0.00000000
  -V(xc)+E(xc)   XCENC  =      1588.89008434
  PAW double counting   =     34593.54807324   -35794.07340621
  entropy T*S    EENTRO =        -0.00537317
  eigenvalues    EBANDS =     -1383.25061827
  atomic energy  EATOM  =     34890.38139807
  Solvation  Ediel_sol  =         0.00000000
  ---------------------------------------------------
  free energy    TOTEN  =      -352.96926940 eV

  energy without entropy =     -352.96389622  energy(sigma->0) =     -352.96658281


--------------------------------------------------------------------------------------------------------




--------------------------------------- Iteration      1(   8)  ---------------------------------------


    POTLOK:  cpu time    0.0856: real time    0.0858
    SETDIJ:  cpu time    0.0095: real time    0.0095
     EDDAV:  cpu time   83.4799: real time   83.6775
    CHARGE:  cpu time    2.1614: real time    2.1665
    MIXING:  cpu time    0.0030: real time    0.0030
    --------------------------------------------
      LOOP:  cpu time   85.7393: real time   85.9423

 eigenvalue-minimisations  : 20736
 total energy-change (2. order) : 0.1300367E+01  (-0.1528701E+02)
 number of electron     396.0000082 magnetization 
 augmentation part      129.1398329 magnetization 

 Broyden mixing:
  rms(total) = 0.60405E+01    rms(broyden)= 0.60387E+01
  rms(prec ) = 0.82302E+01
  weight for this iteration     100.00

 eigenvalues of (default mixing * dielectric matrix)
  average eigenvalue GAMMA=   0.5422
  0.8505  0.4894  0.2867

 Free energy of the ion-electron system (eV)
  ---------------------------------------------------
  alpha Z        PSCENC =      1237.65017714
  Ewald energy   TEWEN  =    -22513.04969703
  -Hartree energ DENC   =    -13013.69182104
  -exchange      EXHF   =         0.00000000
  -V(xc)+E(xc)   XCENC  =      1583.88631721
  PAW double counting   =     36073.91853776   -37356.92191344
  entropy T*S    EENTRO =        -0.05684890
  eigenvalues    EBANDS =     -1253.78505264
  atomic energy  EATOM  =     34890.38139807
  Solvation  Ediel_sol  =         0.00000000
  ---------------------------------------------------
  free energy    TOTEN  =      -351.66890288 eV

  energy without entropy =     -351.61205398  energy(sigma->0) =     -351.64047843


--------------------------------------------------------------------------------------------------------




--------------------------------------- Iteration      1(   9)  ---------------------------------------


    POTLOK:  cpu time    0.1001: real time    0.1004
    SETDIJ:  cpu time    0.0163: real time    0.0164
     EDDAV:  cpu time   72.8456: real time   73.0180
    CHARGE:  cpu time    2.1550: real time    2.1601
    MIXING:  cpu time    0.0042: real time    0.0042
    --------------------------------------------
      LOOP:  cpu time   75.1212: real time   75.2990

 eigenvalue-minimisations  : 17824
 total energy-change (2. order) : 0.8311045E+01  (-0.1477908E+02)
 number of electron     396.0000091 magnetization 
 augmentation part      126.0181263 magnetization 

 Broyden mixing:
  rms(total) = 0.53785E+01    rms(broyden)= 0.53777E+01
  rms(prec ) = 0.74750E+01
  weight for this iteration     100.00

 eigenvalues of (default mixing * dielectric matrix)
  average eigenvalue GAMMA=   0.5090
  1.0830  0.3714  0.3714  0.2102

 Free energy of the ion-electron system (eV)
  ---------------------------------------------------
  alpha Z        PSCENC =      1237.65017714
  Ewald energy   TEWEN  =    -22513.04969703
  -Hartree energ DENC   =    -12989.63454491
  -exchange      EXHF   =         0.00000000
  -V(xc)+E(xc)   XCENC  =      1581.49656865
  PAW double counting   =     37073.29728468   -38371.08566820
  entropy T*S    EENTRO =        -0.04994105
  eigenvalues    EBANDS =     -1252.36343508
  atomic energy  EATOM  =     34890.38139807
  Solvation  Ediel_sol  =         0.00000000
  ---------------------------------------------------
  free energy    TOTEN  =      -343.35785773 eV

  energy without entropy =     -343.30791668  energy(sigma->0) =     -343.33288720


--------------------------------------------------------------------------------------------------------




--------------------------------------- Iteration      1(  10)  ---------------------------------------


    POTLOK:  cpu time    0.0907: real time    0.0909
    SETDIJ:  cpu time    0.0093: real time    0.0093
     EDDAV:  cpu time   72.7170: real time   72.8893
    CHARGE:  cpu time    2.0054: real time    2.0101
    MIXING:  cpu time    0.0043: real time    0.0043
    --------------------------------------------
      LOOP:  cpu time   74.8265: real time   75.0039

 eigenvalue-minimisations  : 17952
 total energy-change (2. order) : 0.6910121E+01  (-0.1098493E+02)
 number of electron     396.0000083 magnetization 
 augmentation part      127.0387298 magnetization 

 Broyden mixing:
  rms(total) = 0.29766E+01    rms(broyden)= 0.29761E+01
  rms(prec ) = 0.39058E+01
  weight for this iteration     100.00

 eigenvalues of (default mixing * dielectric matrix)
  average eigenvalue GAMMA=   0.5307
  1.3267  0.4240  0.4240  0.3462  0.1328

 Free energy of the ion-electron system (eV)
  ---------------------------------------------------
  alpha Z        PSCENC =      1237.65017714
  Ewald energy   TEWEN  =    -22513.04969703
  -Hartree energ DENC   =    -12970.97954881
  -exchange      EXHF   =         0.00000000
  -V(xc)+E(xc)   XCENC  =      1581.09647046
  PAW double counting   =     37587.37446168   -38890.04625630
  entropy T*S    EENTRO =        -0.00002367
  eigenvalues    EBANDS =     -1258.87471858
  atomic energy  EATOM  =     34890.38139807
  Solvation  Ediel_sol  =         0.00000000
  ---------------------------------------------------
  free energy    TOTEN  =      -336.44773704 eV

  energy without entropy =     -336.44771336  energy(sigma->0) =     -336.44772520


--------------------------------------------------------------------------------------------------------




--------------------------------------- Iteration      1(  11)  ---------------------------------------


    POTLOK:  cpu time    0.1004: real time    0.1006
    SETDIJ:  cpu time    0.0131: real time    0.0131
     EDDAV:  cpu time   76.2206: real time   76.4011
    CHARGE:  cpu time    2.1764: real time    2.1816
    MIXING:  cpu time    0.0038: real time    0.0038
    --------------------------------------------
      LOOP:  cpu time   78.5143: real time   78.7002

 eigenvalue-minimisations  : 18400
 total energy-change (2. order) : 0.4468341E+01  (-0.1447189E+01)
 number of electron     396.0000084 magnetization 
 augmentation part      128.3191007 magnetization 

 Broyden mixing:
  rms(total) = 0.16843E+01    rms(broyden)= 0.16840E+01
  rms(prec ) = 0.22639E+01
  weight for this iteration     100.00

 eigenvalues of (default mixing * dielectric matrix)
  average eigenvalue GAMMA=   0.5728
  1.6543  0.5088  0.5088  0.3734  0.2460  0.1455

 Free energy of the ion-electron system (eV)
  ---------------------------------------------------
  alpha Z        PSCENC =      1237.65017714
  Ewald energy   TEWEN  =    -22513.04969703
  -Hartree energ DENC   =    -12961.27012770
  -exchange      EXHF   =         0.00000000
  -V(xc)+E(xc)   XCENC  =      1581.53202993
  PAW double counting   =     38182.36067071   -39490.22938956
  entropy T*S    EENTRO =        -0.00000001
  eigenvalues    EBANDS =     -1259.35445756
  atomic energy  EATOM  =     34890.38139807
  Solvation  Ediel_sol  =         0.00000000
  ---------------------------------------------------
  free energy    TOTEN  =      -331.97939601 eV

  energy without entropy =     -331.97939600  energy(sigma->0) =     -331.97939601


--------------------------------------------------------------------------------------------------------




--------------------------------------- Iteration      1(  12)  ---------------------------------------


    POTLOK:  cpu time    0.0894: real time    0.0896
    SETDIJ:  cpu time    0.0094: real time    0.0094
     EDDAV:  cpu time   78.5570: real time   78.7430
    CHARGE:  cpu time    2.1997: real time    2.2049
    MIXING:  cpu time    0.0039: real time    0.0040
    --------------------------------------------
      LOOP:  cpu time   80.8595: real time   81.0510

 eigenvalue-minimisations  : 18720
 total energy-change (2. order) : 0.1712758E+01  (-0.7168443E+00)
 number of electron     396.0000084 magnetization 
 augmentation part      129.6429438 magnetization 

 Broyden mixing:
  rms(total) = 0.83160E+00    rms(broyden)= 0.83124E+00
  rms(prec ) = 0.11128E+01
  weight for this iteration     100.00

 eigenvalues of (default mixing * dielectric matrix)
  average eigenvalue GAMMA=   0.5581
  1.7108  0.5262  0.5262  0.3823  0.3823  0.2343  0.1448

 Free energy of the ion-electron system (eV)
  ---------------------------------------------------
  alpha Z        PSCENC =      1237.65017714
  Ewald energy   TEWEN  =    -22513.04969703
  -Hartree energ DENC   =    -12958.75783368
  -exchange      EXHF   =         0.00000000
  -V(xc)+E(xc)   XCENC  =      1582.56729210
  PAW double counting   =     38927.06989491   -40240.30890166
  entropy T*S    EENTRO =        -0.00000000
  eigenvalues    EBANDS =     -1255.81896779
  atomic energy  EATOM  =     34890.38139807
  Solvation  Ediel_sol  =         0.00000000
  ---------------------------------------------------
  free energy    TOTEN  =      -330.26663795 eV

  energy without entropy =     -330.26663795  energy(sigma->0) =     -330.26663795


--------------------------------------------------------------------------------------------------------




--------------------------------------- Iteration      1(  13)  ---------------------------------------


    POTLOK:  cpu time    0.0980: real time    0.0982
    SETDIJ:  cpu time    0.0140: real time    0.0140
     EDDAV:  cpu time   71.3543: real time   71.5234
    CHARGE:  cpu time    1.8169: real time    1.8213
    MIXING:  cpu time    0.0034: real time    0.0034
    --------------------------------------------
      LOOP:  cpu time   73.2866: real time   73.4603

 eigenvalue-minimisations  : 17808
 total energy-change (2. order) : 0.2868700E+00  (-0.2472562E+00)
 number of electron     396.0000084 magnetization 
 augmentation part      129.5842663 magnetization 

 Broyden mixing:
  rms(total) = 0.51456E+00    rms(broyden)= 0.51442E+00
  rms(prec ) = 0.62603E+00
  weight for this iteration     100.00

 eigenvalues of (default mixing * dielectric matrix)
  average eigenvalue GAMMA=   0.5826
  1.8425  0.5988  0.5988  0.4727  0.4727  0.3037  0.1446  0.2265

 Free energy of the ion-electron system (eV)
  ---------------------------------------------------
  alpha Z        PSCENC =      1237.65017714
  Ewald energy   TEWEN  =    -22513.04969703
  -Hartree energ DENC   =    -12966.46461373
  -exchange      EXHF   =         0.00000000
  -V(xc)+E(xc)   XCENC  =      1583.11334770
  PAW double counting   =     39202.10933002   -40518.42316981
  entropy T*S    EENTRO =        -0.00000000
  eigenvalues    EBANDS =     -1245.29654035
  atomic energy  EATOM  =     34890.38139807
  Solvation  Ediel_sol  =         0.00000000
  ---------------------------------------------------
  free energy    TOTEN  =      -329.97976798 eV

  energy without entropy =     -329.97976798  energy(sigma->0) =     -329.97976798


--------------------------------------------------------------------------------------------------------




--------------------------------------- Iteration      1(  14)  ---------------------------------------


    POTLOK:  cpu time    0.0841: real time    0.0843
    SETDIJ:  cpu time    0.0096: real time    0.0097
     EDDAV:  cpu time   70.7425: real time   70.9099
    CHARGE:  cpu time    2.0137: real time    2.0185
    MIXING:  cpu time    0.0033: real time    0.0033
    --------------------------------------------
      LOOP:  cpu time   72.8531: real time   73.0256

 eigenvalue-minimisations  : 17744
 total energy-change (2. order) : 0.2840820E-01  (-0.6572440E-01)
 number of electron     396.0000085 magnetization 
 augmentation part      129.6118303 magnetization 

 Broyden mixing:
  rms(total) = 0.44519E+00    rms(broyden)= 0.44515E+00
  rms(prec ) = 0.52528E+00
  weight for this iteration     100.00

 eigenvalues of (default mixing * dielectric matrix)
  average eigenvalue GAMMA=   0.6263
  2.1143  0.7709  0.7709  0.5088  0.5088  0.3345  0.1446  0.2533  0.2307

 Free energy of the ion-electron system (eV)
  ---------------------------------------------------
  alpha Z        PSCENC =      1237.65017714
  Ewald energy   TEWEN  =    -22513.04969703
  -Hartree energ DENC   =    -12968.57041477
  -exchange      EXHF   =         0.00000000
  -V(xc)+E(xc)   XCENC  =      1583.22449697
  PAW double counting   =     39468.39645097   -40787.25700709
  entropy T*S    EENTRO =        -0.00000000
  eigenvalues    EBANDS =     -1240.72676404
  atomic energy  EATOM  =     34890.38139807
  Solvation  Ediel_sol  =         0.00000000
  ---------------------------------------------------
  free energy    TOTEN  =      -329.95135978 eV

  energy without entropy =     -329.95135978  energy(sigma->0) =     -329.95135978


--------------------------------------------------------------------------------------------------------




--------------------------------------- Iteration      1(  15)  ---------------------------------------


    POTLOK:  cpu time    0.0752: real time    0.0754
    SETDIJ:  cpu time    0.0088: real time    0.0088
     EDDAV:  cpu time   68.5990: real time   68.7614
    CHARGE:  cpu time    1.8982: real time    1.9027
    MIXING:  cpu time    0.0038: real time    0.0038
    --------------------------------------------
      LOOP:  cpu time   70.5850: real time   70.7522

 eigenvalue-minimisations  : 16432
 total energy-change (2. order) : 0.4259753E-01  (-0.2462998E-01)
 number of electron     396.0000084 magnetization 
 augmentation part      129.7516475 magnetization 

 Broyden mixing:
  rms(total) = 0.25032E+00    rms(broyden)= 0.25028E+00
  rms(prec ) = 0.30988E+00
  weight for this iteration     100.00

 eigenvalues of (default mixing * dielectric matrix)
  average eigenvalue GAMMA=   0.6638
  2.3123  0.9480  0.9480  0.5154  0.5154  0.4158  0.3597  0.1447  0.2239  0.2547

 Free energy of the ion-electron system (eV)
  ---------------------------------------------------
  alpha Z        PSCENC =      1237.65017714
  Ewald energy   TEWEN  =    -22513.04969703
  -Hartree energ DENC   =    -12968.01429161
  -exchange      EXHF   =         0.00000000
  -V(xc)+E(xc)   XCENC  =      1583.20903482
  PAW double counting   =     39826.55743938   -41148.30512016
  entropy T*S    EENTRO =        -0.00000000
  eigenvalues    EBANDS =     -1238.33770285
  atomic energy  EATOM  =     34890.38139807
  Solvation  Ediel_sol  =         0.00000000
  ---------------------------------------------------
  free energy    TOTEN  =      -329.90876224 eV

  energy without entropy =     -329.90876224  energy(sigma->0) =     -329.90876224


--------------------------------------------------------------------------------------------------------




--------------------------------------- Iteration      1(  16)  ---------------------------------------


    POTLOK:  cpu time    0.0886: real time    0.0889
    SETDIJ:  cpu time    0.0096: real time    0.0096
     EDDAV:  cpu time   60.6486: real time   60.7922
    CHARGE:  cpu time    2.0405: real time    2.0454
    MIXING:  cpu time    0.0059: real time    0.0162
    --------------------------------------------
      LOOP:  cpu time   62.7932: real time   62.9522

 eigenvalue-minimisations  : 15136
 total energy-change (2. order) : 0.1147172E-01  (-0.1082507E-01)
 number of electron     396.0000084 magnetization 
 augmentation part      129.7655749 magnetization 

 Broyden mixing:
  rms(total) = 0.18090E+00    rms(broyden)= 0.18086E+00
  rms(prec ) = 0.23789E+00
  weight for this iteration     100.00

 eigenvalues of (default mixing * dielectric matrix)
  average eigenvalue GAMMA=   0.6854
  2.4359  1.0939  1.0939  0.5269  0.5269  0.5659  0.3759  0.1446  0.3062  0.2440
  0.2252

 Free energy of the ion-electron system (eV)
  ---------------------------------------------------
  alpha Z        PSCENC =      1237.65017714
  Ewald energy   TEWEN  =    -22513.04969703
  -Hartree energ DENC   =    -12970.06877955
  -exchange      EXHF   =         0.00000000
  -V(xc)+E(xc)   XCENC  =      1583.26961554
  PAW double counting   =     40051.28760084   -41374.76089916
  entropy T*S    EENTRO =        -0.00000000
  eigenvalues    EBANDS =     -1234.60670639
  atomic energy  EATOM  =     34890.38139807
  Solvation  Ediel_sol  =         0.00000000
  ---------------------------------------------------
  free energy    TOTEN  =      -329.89729053 eV

  energy without entropy =     -329.89729053  energy(sigma->0) =     -329.89729053


--------------------------------------------------------------------------------------------------------




--------------------------------------- Iteration      1(  17)  ---------------------------------------


    POTLOK:  cpu time    0.1086: real time    0.1088
    SETDIJ:  cpu time    0.0098: real time    0.0098
     EDDAV:  cpu time   71.5476: real time   71.7170
    CHARGE:  cpu time    2.0802: real time    2.0851
    MIXING:  cpu time    0.0050: real time    0.0051
    --------------------------------------------
      LOOP:  cpu time   73.7511: real time   73.9258

 eigenvalue-minimisations  : 18016
 total energy-change (2. order) : 0.9868871E-02  (-0.7441243E-02)
 number of electron     396.0000085 magnetization 
 augmentation part      129.7188830 magnetization 

 Broyden mixing:
  rms(total) = 0.12117E+00    rms(broyden)= 0.12114E+00
  rms(prec ) = 0.16513E+00
  weight for this iteration     100.00

 eigenvalues of (default mixing * dielectric matrix)
  average eigenvalue GAMMA=   0.6960
  2.4616  1.6336  0.8774  0.5488  0.5488  0.5292  0.5292  0.1446  0.3354  0.2752
  0.2435  0.2245

 Free energy of the ion-electron system (eV)
  ---------------------------------------------------
  alpha Z        PSCENC =      1237.65017714
  Ewald energy   TEWEN  =    -22513.04969703
  -Hartree energ DENC   =    -12973.44654540
  -exchange      EXHF   =         0.00000000
  -V(xc)+E(xc)   XCENC  =      1583.37486680
  PAW double counting   =     40149.17196357   -41473.19704167
  entropy T*S    EENTRO =        -0.00000000
  eigenvalues    EBANDS =     -1230.77254313
  atomic energy  EATOM  =     34890.38139807
  Solvation  Ediel_sol  =         0.00000000
  ---------------------------------------------------
  free energy    TOTEN  =      -329.88742165 eV

  energy without entropy =     -329.88742165  energy(sigma->0) =     -329.88742165


--------------------------------------------------------------------------------------------------------




--------------------------------------- Iteration      1(  18)  ---------------------------------------


    POTLOK:  cpu time    0.0959: real time    0.0961
    SETDIJ:  cpu time    0.0139: real time    0.0139
     EDDAV:  cpu time   73.6224: real time   73.7967
    CHARGE:  cpu time    2.1837: real time    2.1891
    MIXING:  cpu time    0.0056: real time    0.0056
    --------------------------------------------
      LOOP:  cpu time   75.9216: real time   76.1015

 eigenvalue-minimisations  : 17408
 total energy-change (2. order) : 0.7793922E-02  (-0.2795181E-02)
 number of electron     396.0000084 magnetization 
 augmentation part      129.7179675 magnetization 

 Broyden mixing:
  rms(total) = 0.73887E-01    rms(broyden)= 0.73872E-01
  rms(prec ) = 0.98611E-01
  weight for this iteration     100.00

 eigenvalues of (default mixing * dielectric matrix)
  average eigenvalue GAMMA=   0.6978
  2.4574  1.8557  0.8928  0.6330  0.6330  0.5058  0.5058  0.3534  0.3534  0.1446
  0.2725  0.2243  0.2394

 Free energy of the ion-electron system (eV)
  ---------------------------------------------------
  alpha Z        PSCENC =      1237.65017714
  Ewald energy   TEWEN  =    -22513.04969703
  -Hartree energ DENC   =    -12975.68987764
  -exchange      EXHF   =         0.00000000
  -V(xc)+E(xc)   XCENC  =      1583.46698677
  PAW double counting   =     40171.24644957   -41495.09192683
  entropy T*S    EENTRO =        -0.00000000
  eigenvalues    EBANDS =     -1228.79313778
  atomic energy  EATOM  =     34890.38139807
  Solvation  Ediel_sol  =         0.00000000
  ---------------------------------------------------
  free energy    TOTEN  =      -329.87962773 eV

  energy without entropy =     -329.87962773  energy(sigma->0) =     -329.87962773


--------------------------------------------------------------------------------------------------------




--------------------------------------- Iteration      1(  19)  ---------------------------------------


    POTLOK:  cpu time    0.0897: real time    0.0899
    SETDIJ:  cpu time    0.0098: real time    0.0098
     EDDAV:  cpu time   75.5341: real time   75.7129
    CHARGE:  cpu time    2.1387: real time    2.1438
    MIXING:  cpu time    0.0056: real time    0.0056
    --------------------------------------------
      LOOP:  cpu time   77.7780: real time   77.9621

 eigenvalue-minimisations  : 17872
 total energy-change (2. order) : 0.2786291E-02  (-0.9304278E-03)
 number of electron     396.0000084 magnetization 
 augmentation part      129.7417384 magnetization 

 Broyden mixing:
  rms(total) = 0.49393E-01    rms(broyden)= 0.49386E-01
  rms(prec ) = 0.64248E-01
  weight for this iteration     100.00

 eigenvalues of (default mixing * dielectric matrix)
  average eigenvalue GAMMA=   0.7146
  2.4045  2.1361  0.9066  0.7661  0.7661  0.5126  0.5126  0.4506  0.1446  0.3594
  0.3229  0.2588  0.2241  0.2397

 Free energy of the ion-electron system (eV)
  ---------------------------------------------------
  alpha Z        PSCENC =      1237.65017714
  Ewald energy   TEWEN  =    -22513.04969703
  -Hartree energ DENC   =    -12976.42854024
  -exchange      EXHF   =         0.00000000
  -V(xc)+E(xc)   XCENC  =      1583.51791735
  PAW double counting   =     40172.13628813   -41495.69550247
  entropy T*S    EENTRO =        -0.00000000
  eigenvalues    EBANDS =     -1228.38888240
  atomic energy  EATOM  =     34890.38139807
  Solvation  Ediel_sol  =         0.00000000
  ---------------------------------------------------
  free energy    TOTEN  =      -329.87684144 eV

  energy without entropy =     -329.87684144  energy(sigma->0) =     -329.87684144


--------------------------------------------------------------------------------------------------------




--------------------------------------- Iteration      1(  20)  ---------------------------------------


    POTLOK:  cpu time    0.0988: real time    0.0990
    SETDIJ:  cpu time    0.0125: real time    0.0126
     EDDAV:  cpu time   71.9619: real time   72.1323
    CHARGE:  cpu time    1.8827: real time    1.8872
    MIXING:  cpu time    0.0046: real time    0.0046
    --------------------------------------------
      LOOP:  cpu time   73.9604: real time   74.1356

 eigenvalue-minimisations  : 18688
 total energy-change (2. order) : 0.1284533E-02  (-0.4490392E-03)
 number of electron     396.0000084 magnetization 
 augmentation part      129.7680183 magnetization 

 Broyden mixing:
  rms(total) = 0.29543E-01    rms(broyden)= 0.29537E-01
  rms(prec ) = 0.37356E-01
  weight for this iteration     100.00

 eigenvalues of (default mixing * dielectric matrix)
  average eigenvalue GAMMA=   0.7370
  2.4135  2.4135  0.9325  0.9325  0.6972  0.6972  0.5220  0.5220  0.4173  0.1446
  0.3465  0.2921  0.2622  0.2246  0.2369

 Free energy of the ion-electron system (eV)
  ---------------------------------------------------
  alpha Z        PSCENC =      1237.65017714
  Ewald energy   TEWEN  =    -22513.04969703
  -Hartree energ DENC   =    -12976.92872134
  -exchange      EXHF   =         0.00000000
  -V(xc)+E(xc)   XCENC  =      1583.56192776
  PAW double counting   =     40169.83300075   -41493.08132086
  entropy T*S    EENTRO =        -0.00000000
  eigenvalues    EBANDS =     -1228.24232141
  atomic energy  EATOM  =     34890.38139807
  Solvation  Ediel_sol  =         0.00000000
  ---------------------------------------------------
  free energy    TOTEN  =      -329.87555691 eV

  energy without entropy =     -329.87555691  energy(sigma->0) =     -329.87555691


--------------------------------------------------------------------------------------------------------




--------------------------------------- Iteration      1(  21)  ---------------------------------------


    POTLOK:  cpu time    0.0885: real time    0.0887
    SETDIJ:  cpu time    0.0095: real time    0.0096
     EDDAV:  cpu time   63.0804: real time   63.2297
    CHARGE:  cpu time    1.8055: real time    1.8098
    MIXING:  cpu time    0.0046: real time    0.0046
    --------------------------------------------
      LOOP:  cpu time   64.9885: real time   65.1423

 eigenvalue-minimisations  : 18576
 total energy-change (2. order) : 0.3142796E-03  (-0.3170269E-03)
 number of electron     396.0000085 magnetization 
 augmentation part      129.7912570 magnetization 

 Broyden mixing:
  rms(total) = 0.18328E-01    rms(broyden)= 0.18321E-01
  rms(prec ) = 0.24603E-01
  weight for this iteration     100.00

 eigenvalues of (default mixing * dielectric matrix)
  average eigenvalue GAMMA=   0.7503
  2.5196  2.5196  1.1316  1.1316  0.6964  0.6964  0.5196  0.5196  0.4400  0.1446
  0.3595  0.3357  0.2780  0.2242  0.2507  0.2378

 Free energy of the ion-electron system (eV)
  ---------------------------------------------------
  alpha Z        PSCENC =      1237.65017714
  Ewald energy   TEWEN  =    -22513.04969703
  -Hartree energ DENC   =    -12977.46343897
  -exchange      EXHF   =         0.00000000
  -V(xc)+E(xc)   XCENC  =      1583.60950853
  PAW double counting   =     40168.26814903   -41491.25896796
  entropy T*S    EENTRO =        -0.00000000
  eigenvalues    EBANDS =     -1228.01237144
  atomic energy  EATOM  =     34890.38139807
  Solvation  Ediel_sol  =         0.00000000
  ---------------------------------------------------
  free energy    TOTEN  =      -329.87524263 eV

  energy without entropy =     -329.87524263  energy(sigma->0) =     -329.87524263


--------------------------------------------------------------------------------------------------------




--------------------------------------- Iteration      1(  22)  ---------------------------------------


    POTLOK:  cpu time    0.0860: real time    0.0862
    SETDIJ:  cpu time    0.0097: real time    0.0098
     EDDAV:  cpu time   62.5618: real time   62.7101
    CHARGE:  cpu time    1.9167: real time    1.9212
    MIXING:  cpu time    0.0048: real time    0.0048
    --------------------------------------------
      LOOP:  cpu time   64.5790: real time   64.7321

 eigenvalue-minimisations  : 18208
 total energy-change (2. order) : 0.4938893E-04  (-0.1961263E-03)
 number of electron     396.0000085 magnetization 
 augmentation part      129.7966821 magnetization 

 Broyden mixing:
  rms(total) = 0.11413E-01    rms(broyden)= 0.11407E-01
  rms(prec ) = 0.15968E-01
  weight for this iteration     100.00

 eigenvalues of (default mixing * dielectric matrix)
  average eigenvalue GAMMA=   0.7505
  2.4449  2.4449  1.5196  1.0700  0.7560  0.7560  0.5215  0.5215  0.4909  0.4611
  0.1446  0.3521  0.3094  0.2668  0.2246  0.2426  0.2322

 Free energy of the ion-electron system (eV)
  ---------------------------------------------------
  alpha Z        PSCENC =      1237.65017714
  Ewald energy   TEWEN  =    -22513.04969703
  -Hartree energ DENC   =    -12977.78381389
  -exchange      EXHF   =         0.00000000
  -V(xc)+E(xc)   XCENC  =      1583.63499977
  PAW double counting   =     40166.89415710   -41489.77460353
  entropy T*S    EENTRO =        -0.00000000
  eigenvalues    EBANDS =     -1227.82781086
  atomic energy  EATOM  =     34890.38139807
  Solvation  Ediel_sol  =         0.00000000
  ---------------------------------------------------
  free energy    TOTEN  =      -329.87519324 eV

  energy without entropy =     -329.87519324  energy(sigma->0) =     -329.87519324


--------------------------------------------------------------------------------------------------------




--------------------------------------- Iteration      1(  23)  ---------------------------------------


    POTLOK:  cpu time    0.0852: real time    0.0854
    SETDIJ:  cpu time    0.0099: real time    0.0099
     EDDAV:  cpu time   55.1449: real time   55.2782
    CHARGE:  cpu time    1.9141: real time    1.9186
    MIXING:  cpu time    0.0055: real time    0.0055
    --------------------------------------------
      LOOP:  cpu time   57.1596: real time   57.2977

 eigenvalue-minimisations  : 15056
 total energy-change (2. order) : 0.6345029E-04  (-0.5547488E-04)
 number of electron     396.0000085 magnetization 
 augmentation part      129.7947352 magnetization 

 Broyden mixing:
  rms(total) = 0.67619E-02    rms(broyden)= 0.67602E-02
  rms(prec ) = 0.87573E-02
  weight for this iteration     100.00

 eigenvalues of (default mixing * dielectric matrix)
  average eigenvalue GAMMA=   0.7370
  2.4812  2.0177  1.9119  1.0132  0.7964  0.7964  0.5230  0.5230  0.5151  0.5151
  0.4055  0.1446  0.3392  0.3188  0.2622  0.2244  0.2437  0.2348

 Free energy of the ion-electron system (eV)
  ---------------------------------------------------
  alpha Z        PSCENC =      1237.65017714
  Ewald energy   TEWEN  =    -22513.04969703
  -Hartree energ DENC   =    -12977.83579160
  -exchange      EXHF   =         0.00000000
  -V(xc)+E(xc)   XCENC  =      1583.64000026
  PAW double counting   =     40166.67579315   -41489.55485195
  entropy T*S    EENTRO =        -0.00000000
  eigenvalues    EBANDS =     -1227.78215783
  atomic energy  EATOM  =     34890.38139807
  Solvation  Ediel_sol  =         0.00000000
  ---------------------------------------------------
  free energy    TOTEN  =      -329.87512979 eV

  energy without entropy =     -329.87512979  energy(sigma->0) =     -329.87512979


--------------------------------------------------------------------------------------------------------




--------------------------------------- Iteration      1(  24)  ---------------------------------------


    POTLOK:  cpu time    0.0875: real time    0.0877
    SETDIJ:  cpu time    0.0098: real time    0.0099
     EDDAV:  cpu time   53.3504: real time   53.4797
    CHARGE:  cpu time    1.9170: real time    1.9216
    MIXING:  cpu time    0.0050: real time    0.0050
    --------------------------------------------
      LOOP:  cpu time   55.3697: real time   55.5039

 eigenvalue-minimisations  : 14448
 total energy-change (2. order) : 0.1535861E-04  (-0.1228981E-04)
 number of electron     396.0000085 magnetization 
 augmentation part      129.7941027 magnetization 

 Broyden mixing:
  rms(total) = 0.53471E-02    rms(broyden)= 0.53465E-02
  rms(prec ) = 0.64429E-02
  weight for this iteration     100.00

 eigenvalues of (default mixing * dielectric matrix)
  average eigenvalue GAMMA=   0.7347
  2.5491  1.9835  1.9835  0.8899  0.8899  0.8835  0.5223  0.5223  0.5990  0.5990
  0.1446  0.3926  0.3926  0.3479  0.2962  0.2649  0.2245  0.2416  0.2319

 Free energy of the ion-electron system (eV)
  ---------------------------------------------------
  alpha Z        PSCENC =      1237.65017714
  Ewald energy   TEWEN  =    -22513.04969703
  -Hartree energ DENC   =    -12977.74085546
  -exchange      EXHF   =         0.00000000
  -V(xc)+E(xc)   XCENC  =      1583.63456108
  PAW double counting   =     40167.60050104   -41490.49904245
  entropy T*S    EENTRO =        -0.00000000
  eigenvalues    EBANDS =     -1227.85215683
  atomic energy  EATOM  =     34890.38139807
  Solvation  Ediel_sol  =         0.00000000
  ---------------------------------------------------
  free energy    TOTEN  =      -329.87511443 eV

  energy without entropy =     -329.87511443  energy(sigma->0) =     -329.87511443


--------------------------------------------------------------------------------------------------------




--------------------------------------- Iteration      1(  25)  ---------------------------------------


    POTLOK:  cpu time    0.0854: real time    0.0856
    SETDIJ:  cpu time    0.0097: real time    0.0097
     EDDAV:  cpu time   43.9879: real time   44.0925
    --------------------------------------------
      LOOP:  cpu time   44.0838: real time   44.1886

 eigenvalue-minimisations  : 12112
 total energy-change (2. order) : 0.6025221E-05  (-0.4974495E-05)
 number of electron     396.0000085 magnetization 
 augmentation part      129.7941027 magnetization 

 Free energy of the ion-electron system (eV)
  ---------------------------------------------------
  alpha Z        PSCENC =      1237.65017714
  Ewald energy   TEWEN  =    -22513.04969703
  -Hartree energ DENC   =    -12977.66441860
  -exchange      EXHF   =         0.00000000
  -V(xc)+E(xc)   XCENC  =      1583.62988301
  PAW double counting   =     40167.92474755   -41490.82445281
  entropy T*S    EENTRO =        -0.00000000
  eigenvalues    EBANDS =     -1227.92274574
  atomic energy  EATOM  =     34890.38139807
  Solvation  Ediel_sol  =         0.00000000
  ---------------------------------------------------
  free energy    TOTEN  =      -329.87510841 eV

  energy without entropy =     -329.87510841  energy(sigma->0) =     -329.87510841


--------------------------------------------------------------------------------------------------------




 average (electrostatic) potential at core
  the test charge radii are     0.9791  0.7215
  (the norm of the test charge is              1.0000)
       1 -89.1896       2 -89.3971       3 -89.3533       4 -89.4900       5 -89.3669
       6 -89.3164       7 -89.3111       8 -89.4292       9 -89.2402      10 -89.2222
      11 -89.6083      12 -89.2032      13 -89.2429      14 -89.3373      15 -89.1885
      16 -89.2733      17 -89.3173      18 -89.3781      19 -72.4233      20 -72.2486
      21 -72.8919      22 -72.2184      23 -72.8099      24 -72.3642      25 -72.3970
      26 -72.6078      27 -72.2889      28 -72.5339      29 -72.5678      30 -72.4819
      31 -72.4672      32 -72.5260      33 -72.5650      34 -72.3573      35 -72.3516
      36 -72.4273      37 -72.1472      38 -72.5558      39 -72.8769      40 -72.3632
      41 -71.9487      42 -72.2419      43 -71.9790      44 -72.6938      45 -72.5962
      46 -72.0237      47 -72.2343      48 -71.8255      49 -72.2519      50 -72.2758
      51 -72.3165      52 -72.3525      53 -72.1925      54 -72.2811
 
 
 
 E-fermi :   3.2066     XC(G=0): -11.0377     alpha+bet :-10.5621


 k-point     1 :       0.0000    0.0000    0.0000
  band No.  band energies     occupation 
      1     -17.2187      2.00000
[...]
  0.119  -0.199  -0.081   0.000   0.180  -0.133   0.235   0.077   0.020  -0.205   0.097  -0.023   0.587  -0.008   0.031  -0.100
 -0.003  -0.182   0.111   0.153   0.083   0.023   0.215  -0.107  -0.176  -0.112   0.039  -0.010  -0.008   0.488  -0.035   0.001
  0.113  -0.056   0.035   0.048  -0.005  -0.105   0.063  -0.031  -0.051  -0.006  -0.086   0.020   0.031  -0.035   0.588  -0.006
 -0.020   0.045   0.004   0.010  -0.040   0.025  -0.049  -0.008  -0.011   0.043  -0.020   0.007  -0.100   0.001  -0.006   0.023
  0.010   0.040  -0.007  -0.028  -0.022  -0.011  -0.045   0.013   0.034   0.026  -0.007   0.002   0.001  -0.078   0.007  -0.000
 -0.007   0.011  -0.003   0.001  -0.001   0.012  -0.012   0.003   0.004   0.002   0.019  -0.006  -0.006   0.007  -0.099   0.002


------------------------ aborting loop because EDIFF is reached ----------------------------------------


    CHARGE:  cpu time    1.7457: real time    1.7498
    FORLOC:  cpu time    0.0366: real time    0.0367
    FORNL :  cpu time   13.1194: real time   13.1504
    STRESS:  cpu time   36.2673: real time   36.3531
    FORCOR:  cpu time    0.1141: real time    0.1144
    FORHAR:  cpu time    0.0538: real time    0.0539
    MIXING:  cpu time    0.0052: real time    0.0052
    OFIELD:  cpu time    0.0001: real time    0.0001

  FORCE on cell =-STRESS in cart. coord.  units (eV):
  Direction    XX          YY          ZZ          XY          YZ          ZX
  --------------------------------------------------------------------------------------
  Alpha Z  1237.65018  1237.65018  1237.65018
  Ewald   -1441.80259 -1591.75153-19479.64276    81.89753   -58.51099   -65.18392
  Hartree  8616.73097  8559.68970 -4198.65241    31.53989   -16.71909   -22.84228
  E(xc)   -2021.81805 -2021.64482 -2025.09206    -0.07739     0.15093     0.11167
  Local  -14853.88335-14657.12514 15687.64803  -106.37189    70.64987    84.15196
  n-local  -843.08507  -847.24137  -879.63795     2.51331    -2.78645    -2.40364
  augment  3333.30712  3338.48958  3431.35888    -3.21241     2.31916     2.26883
  Kinetic  5993.34840  5995.72336  6231.59433    -4.28694    -2.23961    -0.79219
  Fock        0.00000     0.00000     0.00000     0.00000     0.00000     0.00000
  -------------------------------------------------------------------------------------
  Total       20.4476090     13.7899490      5.2262265      2.0021150     -7.1361805     -4.6895730
  in kB       58.4510276     39.4196060     14.9395614      5.7231962    -20.3993085    -13.4054969
  external PRESSURE =      37.6033983 kB  Pullay stress =       0.0000000 kB


 VOLUME and BASIS-vectors are now :
 -----------------------------------------------------------------------------
  energy-cutoff  :      500.00
  volume of cell :      560.48
      direct lattice vectors                 reciprocal lattice vectors
     8.362870000  0.000000000  0.000000000     0.119576174  0.069037336  0.000000000
    -4.181435000  7.242457870  0.000000000     0.000000000  0.138074673  0.000000000
     0.000000000  0.000000000  9.253790000     0.000000000  0.000000000  0.108063831

  length of vectors
     8.362870000  8.362870001  9.253790000     0.138074673  0.138074673  0.108063831


 FORCES acting on ions
    electron-ion (+dipol)            ewald-force                    non-local-force                 convergence-correction
 -----------------------------------------------------------------------------------------------
   -.223E+02 0.286E+02 -.169E+02   0.224E+02 -.300E+02 0.158E+02   0.355E+00 -.478E+00 -.457E+00   -.354E-02 -.375E-03 0.107E-01
   -.500E+02 0.404E+02 0.142E+02   0.509E+02 -.439E+02 -.151E+02   -.535E+00 0.315E+00 -.437E+00   -.171E-01 0.119E-01 0.456E-02
   0.931E+02 0.111E+03 0.195E+02   -.968E+02 -.115E+03 -.191E+02   0.549E-02 0.411E+00 0.746E+00   0.619E-02 0.145E-01 0.453E-02
   0.288E+02 -.950E+02 0.192E+02   -.312E+02 0.986E+02 -.222E+02   0.754E+00 -.129E+01 -.190E+01   0.560E-02 -.211E-01 0.121E-01
   0.101E+03 0.137E+02 -.161E+02   -.106E+03 -.145E+02 0.172E+02   0.432E+00 0.193E+00 0.781E+00   0.231E-01 0.358E-02 -.110E-02
   -.815E+01 0.554E+02 0.239E+02   0.779E+01 -.585E+02 -.248E+02   0.313E-01 0.515E-01 -.573E+00   0.573E-03 0.203E-02 0.599E-02
   0.301E+02 -.642E+02 0.192E+02   -.306E+02 0.648E+02 -.207E+02   0.488E+00 -.880E+00 -.107E+01   0.497E-02 -.221E-01 -.150E-02
   -.533E+02 -.307E+01 0.285E+01   0.570E+02 0.257E+01 -.282E+01   0.451E+00 -.192E+00 0.272E+00   0.355E-02 0.674E-02 0.199E-02
   -.432E+01 0.771E+01 0.822E+01   0.407E+01 -.654E+01 -.807E+01   -.547E+00 0.827E+00 0.775E+00   -.192E-01 0.214E-02 -.371E-02
   -.375E+02 0.296E+02 -.225E+02   0.392E+02 -.306E+02 0.218E+02   0.156E+00 -.117E+01 -.441E+00   -.116E-01 -.642E-02 0.115E-01
   -.183E+02 0.663E+01 -.457E+02   0.207E+02 -.804E+01 0.427E+02   -.277E+00 -.191E+00 -.295E+01   -.118E-01 0.233E-03 0.372E-02
   -.548E+02 0.118E+02 0.152E+02   0.569E+02 -.118E+02 -.134E+02   0.245E+00 -.151E-01 0.159E+01   0.201E-02 0.304E-02 -.445E-03
   -.695E+02 -.519E+02 -.250E+02   0.714E+02 0.529E+02 0.237E+02   -.889E+00 -.107E+01 -.105E+01   -.356E-02 -.773E-02 0.179E-02
   0.228E+02 0.702E+02 0.165E+01   -.227E+02 -.742E+02 0.210E+00   0.931E+00 -.168E+00 0.960E+00   0.967E-02 0.743E-02 -.269E-02
   -.451E+02 -.702E+00 0.451E+02   0.471E+02 0.111E+01 -.440E+02   -.230E+00 0.250E+00 0.126E+01   0.132E-01 -.730E-02 -.103E-01
   -.576E+02 -.748E+02 -.130E+02   0.616E+02 0.795E+02 0.103E+02   0.403E-01 -.247E+00 -.234E+00   0.554E-02 -.148E-01 0.129E-01
   0.125E+02 0.807E+01 -.477E+01   -.133E+02 -.771E+01 0.506E+01   -.198E+00 0.506E-01 -.619E-02   -.798E-02 0.162E-01 -.603E-03
   0.153E+02 0.272E+02 -.535E+02   -.131E+02 -.274E+02 0.558E+02   0.841E+00 0.128E+00 0.592E+00   -.385E-02 0.170E-01 0.503E-02
   -.140E+02 0.140E+01 -.370E+03   0.147E+02 0.294E+00 0.398E+03   0.508E+00 -.979E+00 -.291E+02   -.179E-01 -.794E-02 0.166E-01
   0.313E+02 -.408E+02 0.386E+03   -.350E+02 0.447E+02 -.414E+03   0.167E+01 -.222E+01 0.279E+02   -.149E-01 -.704E-02 -.504E-02
   -.656E+02 -.230E+02 -.374E+03   0.714E+02 0.233E+02 0.405E+03   -.207E+01 0.466E+00 -.274E+02   -.120E-01 -.143E-01 0.323E-02
   -.119E+02 0.110E+02 0.363E+03   0.127E+02 -.136E+02 -.390E+03   -.115E+00 0.244E+01 0.283E+02   -.652E-02 -.176E-01 -.203E-01
   0.667E+02 0.296E+02 -.403E+03   -.732E+02 -.323E+02 0.435E+03   0.414E+01 0.283E+01 -.299E+02   0.237E-02 0.310E-02 0.584E-02
   0.281E+02 0.126E+02 0.368E+03   -.321E+02 -.158E+02 -.396E+03   0.261E+01 0.359E+01 0.278E+02   -.117E-01 0.610E-02 -.370E-02
   -.179E+02 -.511E+01 -.358E+03   0.201E+02 0.740E+01 0.385E+03   -.110E+01 -.187E+01 -.271E+02   0.641E-02 -.262E-02 0.488E-02
   -.469E+02 -.171E+02 0.389E+03   0.520E+02 0.239E+02 -.418E+03   -.333E+01 -.633E+01 0.275E+02   -.165E-01 0.140E-01 -.128E-01
   0.524E+02 -.220E+01 -.362E+03   -.562E+02 0.780E+00 0.390E+03   0.226E+01 0.156E+01 -.271E+02   -.486E-02 -.716E-02 0.681E-02
   0.197E+02 0.426E+01 0.376E+03   -.236E+02 -.201E+01 -.405E+03   0.216E+01 -.181E+01 0.278E+02   0.948E-02 -.765E-02 -.569E-02
   0.239E+02 0.216E+01 -.394E+03   -.267E+02 -.231E+01 0.424E+03   0.685E+00 0.189E+00 -.290E+02   -.134E-01 0.265E-02 0.818E-02
   -.370E+02 -.319E+02 0.404E+03   0.448E+02 0.350E+02 -.433E+03   -.508E+01 -.162E+01 0.294E+02   0.185E-02 -.779E-02 -.607E-02
   -.508E+01 -.169E+02 -.369E+03   0.650E+01 0.188E+02 0.397E+03   -.163E+01 -.259E+01 -.288E+02   0.907E-02 -.961E-02 0.224E-01
   0.730E+01 -.227E+02 0.388E+03   -.977E+01 0.243E+02 -.418E+03   0.168E+01 -.341E+00 0.294E+02   0.134E-01 0.596E-02 0.357E-02
   0.496E+02 -.883E+01 -.381E+03   -.568E+02 0.660E+01 0.412E+03   0.352E+01 0.115E+01 -.276E+02   0.185E-01 0.612E-02 0.625E-02
   -.723E+01 -.166E+02 0.367E+03   0.842E+01 0.142E+02 -.394E+03   -.137E+01 0.354E+01 0.279E+02   0.687E-02 -.927E-02 -.169E-01
   -.537E+02 0.404E+02 -.350E+03   0.584E+02 -.447E+02 0.376E+03   -.286E+01 0.299E+01 -.248E+02   -.220E-01 0.133E-01 0.183E-01
   -.829E+01 0.378E+02 0.369E+03   0.915E+01 -.414E+02 -.396E+03   -.191E+01 0.154E+01 0.274E+02   0.126E-01 0.112E-02 0.406E-02
   0.134E+02 -.344E+02 -.379E+03   -.152E+02 0.391E+02 0.406E+03   0.117E+01 -.350E+01 -.284E+02   -.390E-02 0.135E-01 0.640E-02
   0.102E+02 -.235E+01 0.362E+03   -.122E+02 0.423E+01 -.390E+03   0.140E+01 -.214E+01 0.272E+02   0.703E-02 -.764E-03 -.344E-01
   -.122E+01 -.504E+02 -.368E+03   0.505E+00 0.563E+02 0.398E+03   0.230E+00 -.366E+01 -.262E+02   0.439E-02 -.818E-02 0.941E-02
   0.344E+02 -.171E+02 0.354E+03   -.374E+02 0.203E+02 -.382E+03   0.899E-01 -.209E+01 0.272E+02   -.182E-02 0.770E-02 0.351E-02
   -.140E+02 0.255E+02 -.362E+03   0.140E+02 -.271E+02 0.386E+03   -.151E+00 0.158E+01 -.265E+02   0.108E-01 -.335E-02 0.119E-02
   -.169E+02 0.109E+02 0.379E+03   0.156E+02 -.118E+02 -.406E+03   0.204E+01 0.921E+00 0.268E+02   -.178E-01 0.709E-02 -.114E-01
   -.498E+01 -.500E+02 -.338E+03   0.539E+01 0.553E+02 0.363E+03   -.192E+00 -.410E+01 -.266E+02   0.105E-01 -.541E-02 0.870E-02
   -.635E+01 -.211E+02 0.398E+03   0.806E+01 0.243E+02 -.428E+03   -.152E+01 -.149E+01 0.277E+02   0.268E-02 -.695E-02 0.692E-02
   0.480E+02 -.149E+02 -.384E+03   -.515E+02 0.132E+02 0.414E+03   0.120E+01 0.176E+01 -.295E+02   -.257E-02 -.273E-02 -.437E-02
   0.267E+02 -.119E+02 0.332E+03   -.292E+02 0.119E+02 -.356E+03   0.210E+01 0.698E+00 0.266E+02   -.940E-03 0.115E-03 -.579E-02
   -.170E+02 0.268E+02 -.358E+03   0.190E+02 -.292E+02 0.384E+03   -.160E+01 0.115E+01 -.262E+02   0.199E-01 0.396E-02 0.143E-01
   0.390E+01 -.354E+01 0.354E+03   -.414E+01 0.427E+01 -.377E+03   0.512E+00 -.845E+00 0.250E+02   -.308E-02 -.974E-02 0.611E-02
   0.778E+01 0.417E+02 -.354E+03   -.962E+01 -.439E+02 0.380E+03   0.103E+01 0.827E+00 -.243E+02   -.248E-02 -.770E-02 0.138E-02
   0.203E+02 0.361E+02 0.348E+03   -.204E+02 -.375E+02 -.375E+03   0.487E+00 0.554E+00 0.269E+02   0.110E-01 0.555E-02 -.989E-02
   -.724E+01 0.476E+01 -.359E+03   0.733E+01 -.636E+01 0.386E+03   -.808E+00 0.165E+01 -.276E+02   0.729E-03 0.184E-01 0.172E-01
   -.627E+01 -.820E+01 0.378E+03   0.565E+01 0.101E+02 -.406E+03   0.990E+00 -.131E+00 0.264E+02   -.711E-02 0.126E-01 0.914E-03
   0.310E+02 0.186E+02 -.375E+03   -.339E+02 -.183E+02 0.401E+03   0.162E+01 0.120E+00 -.263E+02   0.123E-02 0.903E-02 -.791E-02
   -.252E+02 -.145E+02 0.350E+03   0.285E+02 0.164E+02 -.376E+03   -.154E+01 -.827E+00 0.262E+02   0.169E-01 0.106E-01 -.155E-01
 -----------------------------------------------------------------------------------------------
   -.889E+01 0.104E+02 0.755E+00   0.107E-13 -.238E-12 -.512E-12   0.888E+01 -.104E+02 -.871E+00   0.191E-02 0.997E-02 0.709E-01
 
 
 POSITION                                       TOTAL-FORCE (eV/Angst)
 -----------------------------------------------------------------------------------
     -0.02093      0.05902      0.03486         0.409659     -1.799022     -1.608998
      0.00422      0.04665      4.66181         0.322908     -3.140317     -1.283526
     -1.30549      2.51392      9.23812        -3.689300     -3.633776      1.085910
      6.92775      2.37243      4.74332        -1.630994      2.344100     -4.923632
     -2.67931      4.85571      9.21930        -4.758608     -0.571675      1.877947
     -2.78079      4.91914      4.64796        -0.322866     -3.033357     -1.475401
      2.78226      0.05502      0.03034        -0.039285     -0.247383     -2.584567
      2.73868      0.02335      4.60140         4.172288     -0.682425      0.307406
      1.39618      2.38245      9.22317        -0.817803      2.000483      0.925746
      1.34050      2.47939      4.66730         1.801455     -2.247323     -1.137915
     -0.06408      4.90141      0.20182         2.075983     -1.603950     -5.981958
     -0.04998      4.80791      4.51538         2.337759      0.056716      3.426870
      5.57532      0.02109      0.09129         0.982450     -0.008570     -2.383312
      5.53445      0.05628      4.58601         1.061753     -4.133131      2.822050
      4.16941      2.41308      9.14652         1.727152      0.646542      2.353455
      4.13037      2.31643      4.68491         4.057583      4.495207     -2.938573
      2.79082      4.84571      0.00375        -1.080404      0.424217      0.278609
      2.72175      4.83616      4.61577         3.025040     -0.057504      2.992859
     -0.08044      1.58998      1.02397         1.229876      0.708754     -1.135543
      1.47258      0.76678      3.66849        -1.998774      1.599822     -0.511861
     -0.14211      1.57398      5.45903         3.750128      0.722843      3.677669
      1.31503      0.83194      8.21188         0.713891     -0.207922      1.648343
     -1.30831      4.00288      0.99483        -2.280970      0.141451      1.342939
      0.04352      3.16313      3.65119        -1.372407      0.402902      0.328816
     -1.46060      4.02437      5.53023         1.152828      0.417729      0.352835
     -0.04077      3.30643      8.40087         1.756186      0.451567     -1.122122
     -2.68515      6.45209      0.90731        -1.541174      0.133221      0.760789
     -1.32434      5.64826      3.70421        -1.693036      0.434828     -1.473965
     -2.68125      6.49706      5.51312        -2.062954      0.039709      1.776403
     -1.48524      5.61498      8.29544         2.688560      1.572673     -0.312741
      2.81568      1.70023      0.96039        -0.195479     -0.747249     -1.012043
      4.18882      0.72145      3.66396        -0.774917      1.278243     -0.286791
      2.86401      1.61672      5.48876        -3.579997     -1.071762      2.610514
      4.20567      0.71632      8.27043        -0.168861      1.130331      0.729046
      1.33179      4.07479      0.88721         1.759343     -1.277713      1.853322
      2.84361      3.32091      3.69886        -1.036304     -2.077441      0.161798
      1.37691      3.95403      5.68227        -0.611492      1.260928     -1.451985
      2.78725      3.25450      8.32409        -0.599830     -0.265037     -0.836407
     -0.01865      6.46097      0.85621        -0.479001      2.278491      3.886018
      1.50593      5.59801      3.68817        -2.950658      1.140549     -0.997986
      0.00020      6.42373      5.64069        -0.114606     -0.058020     -1.992657
      1.28193      5.65639      8.40647         0.690347     -0.036748     -0.024271
      5.55366      1.58226      1.01746         0.236028      1.202303     -1.649469
      6.96032      0.71504      3.79696         0.185267      1.670115     -2.026844
      5.66222      1.54901      5.63732        -2.252592      0.080737      0.418126
      7.00082      0.77386      8.17615        -0.424825      0.716230      2.518481
      4.20286      4.11442      0.89972         0.434831     -1.240616     -0.252918
      5.53378      3.20085      3.67117         0.263373     -0.128348      1.707027
      4.21685      4.12919      5.51358        -0.803511     -1.445984      1.079024
      5.60675      3.29173      8.31446         0.369785     -0.900780     -0.523688
      2.85044      6.44652      0.98272        -0.714654      0.063458     -0.102929
      4.15540      5.58169      3.77074         0.362240      1.777362     -1.154699
      2.86020      6.42211      5.59082        -1.332150      0.367344     -0.034848
      4.07709      5.60591      8.28924         1.760742      1.057202      0.299650
 -----------------------------------------------------------------------------------
    total drift:                               -0.012563     -0.005997     -0.045558


--------------------------------------------------------------------------------------------------------



  FREE ENERGIE OF THE ION-ELECTRON SYSTEM (eV)
  ---------------------------------------------------
  free  energy   TOTEN  =      -329.8751084063 eV

  energy  without entropy=     -329.8751084063  energy(sigma->0) =     -329.87510841
 


--------------------------------------------------------------------------------------------------------


    POTLOK:  cpu time    0.0951: real time    0.0953


--------------------------------------------------------------------------------------------------------


     LOOP+:  cpu time 1795.3133: real time 1799.8194
    4ORBIT:  cpu time    0.0000: real time    0.0000

volume of typ            1:    20.5 %

volume of typ            2:    10.5 %
 
total charge     
 
# of ion       s       p       d       tot
------------------------------------------
    1        0.296   0.401   7.812   8.508
    2        0.319   0.450   7.841   8.610
    3        0.308   0.418   7.832   8.558
    4        0.326   0.459   7.844   8.629
    5        0.317   0.447   7.837   8.601
    6        0.316   0.448   7.829   8.593
    7        0.302   0.415   7.828   8.545
    8        0.333   0.484   7.852   8.669
    9        0.290   0.385   7.818   8.493
   10        0.296   0.392   7.829   8.517
   11        0.343   0.500   7.861   8.704
   12        0.296   0.390   7.820   8.506
   13        0.303   0.420   7.818   8.541
   14        0.312   0.433   7.833   8.578
   15        0.289   0.383   7.808   8.480
   16        0.304   0.414   7.835   8.554
   17        0.312   0.438   7.820   8.570
   18        0.328   0.478   7.836   8.642
   19        1.289   2.706   0.008   4.003
   20        1.285   2.729   0.009   4.023
   21        1.278   2.794   0.013   4.086
   22        1.288   2.703   0.007   3.998
   23        1.286   2.751   0.011   4.047
   24        1.287   2.718   0.008   4.013
   25        1.284   2.732   0.009   4.024
   26        1.287   2.741   0.010   4.038
   27        1.281   2.741   0.009   4.031
   28        1.281   2.756   0.010   4.048
   29        1.282   2.767   0.011   4.060
   30        1.292   2.726   0.010   4.027
   31        1.288   2.711   0.008   4.007
   32        1.285   2.737   0.010   4.032
   33        1.279   2.781   0.012   4.071
   34        1.289   2.707   0.008   4.003
   35        1.281   2.744   0.009   4.034
   36        1.291   2.707   0.008   4.006
   37        1.289   2.700   0.007   3.997
   38        1.283   2.732   0.009   4.025
   39        1.276   2.794   0.013   4.083
   40        1.282   2.742   0.009   4.034
   41        1.293   2.677   0.006   3.976
   42        1.290   2.714   0.008   4.011
   43        1.289   2.691   0.006   3.986
   44        1.285   2.754   0.011   4.050
   45        1.288   2.730   0.010   4.027
   46        1.295   2.665   0.006   3.966
   47        1.288   2.705   0.007   4.000
   48        1.290   2.684   0.006   3.980
   49        1.287   2.716   0.008   4.010
   50        1.281   2.735   0.008   4.024
   51        1.284   2.722   0.008   4.015
   52        1.286   2.736   0.009   4.030
   53        1.290   2.704   0.007   4.002
   54        1.291   2.695   0.007   3.994
--------------------------------------------------
tot          51.89  105.90  141.27  299.06
 

 total amount of memory used by VASP MPI-rank0   181706. kBytes
=======================================================================

   base      :      30000. kBytes
   nonlr-proj:      32314. kBytes
   fftplans  :       6058. kBytes
   grid      :      19644. kBytes
   one-center:        839. kBytes
   wavefun   :      92851. kBytes
 
  
  
 General timing and accounting informations for this job:
 ========================================================
  
                  Total CPU time used (sec):     1825.943
                            User time (sec):     1819.701
                          System time (sec):        6.241
                         Elapsed time (sec):     1834.084
  
                   Maximum memory used (kb):      244248.
                   Average memory used (kb):           0.
  
                          Minor page faults:        36699
                          Major page faults:           47
                 Voluntary context switches:         1222
