 vasp.5.4.4.18Apr17-6-g9f103f2a35 (build May 12 2020 04:58:55) complex          
  
 MD_VERSION_INFO: Compiled 2020-05-12T11:58:55-UTC in devlin.sd.materialsdesign.
 com:/home/medea2/data/build/wwolf/vasp-gpu5.4.4/13047/x86_64/src/src/build/std 
 from svn 13047
 
 This VASP executable licensed from Materials Design, Inc.
 
 executed on                        Lin64 date 2023.04.27  09:45:56
 running on   16 total cores
 distrk:  each k-point on   16 cores,    1 groups
 distr:  one band on NCORES_PER_BAND=   1 cores,   16 groups


--------------------------------------------------------------------------------------------------------


 INCAR:
 POTCAR:    PAW_PBE Ni 02Aug2007                  
 POTCAR:    PAW_PBE O 08Apr2002                   

 ----------------------------------------------------------------------------- 
|                                                                             |
|           W    W    AA    RRRRR   N    N  II  N    N   GGGG   !!!           |
|           W    W   A  A   R    R  NN   N  II  NN   N  G    G  !!!           |
|           W    W  A    A  R    R  N N  N  II  N N  N  G       !!!           |
|           W WW W  AAAAAA  RRRRR   N  N N  II  N  N N  G  GGG   !            |
|           WW  WW  A    A  R   R   N   NN  II  N   NN  G    G                |
|           W    W  A    A  R    R  N    N  II  N    N   GGGG   !!!           |
|                                                                             |
|      For optimal performance we recommend to set                            |
|        NCORE= 4 - approx SQRT( number of cores)                             |
|      NCORE specifies how many cores store one orbital (NPAR=cpu/NCORE).     |
|      This setting can  greatly improve the performance of VASP for DFT.     |
|      The default,   NCORE=1            might be grossly inefficient         |
|      on modern multi-core architectures or massively parallel machines.     |
|      Do your own testing !!!!                                               |
|      Unfortunately you need to use the default for GW and RPA calculations. |
|      (for HF NCORE is supported but not extensively tested yet)             |
|                                                                             |
 ----------------------------------------------------------------------------- 

 POTCAR:    PAW_PBE Ni 02Aug2007                  
  local pseudopotential read in
  partial core-charges read in
  partial kinetic energy density read in
  atomic valenz-charges read in
  non local Contribution for L=           2  read in
    real space projection operators read in
  non local Contribution for L=           2  read in
    real space projection operators read in
  non local Contribution for L=           0  read in
    real space projection operators read in
  non local Contribution for L=           0  read in
    real space projection operators read in
  non local Contribution for L=           1  read in
    real space projection operators read in
  non local Contribution for L=           1  read in
    real space projection operators read in
    PAW grid and wavefunctions read in
 
   number of l-projection  operators is LMAX  =           6
   number of lm-projection operators is LMMAX =          18
 
 POTCAR:    PAW_PBE O 08Apr2002                   
  local pseudopotential read in
  partial core-charges read in
  partial kinetic energy density read in
  kinetic energy density of atom read in
  atomic valenz-charges read in
  non local Contribution for L=           0  read in
    real space projection operators read in
  non local Contribution for L=           0  read in
    real space projection operators read in
  non local Contribution for L=           1  read in
    real space projection operators read in
  non local Contribution for L=           1  read in
    real space projection operators read in
    PAW grid and wavefunctions read in
 
   number of l-projection  operators is LMAX  =           4
   number of lm-projection operators is LMMAX =           8
 
 Optimization of the real space projectors (new method)

 maximal supplied QI-value         = 16.25
 optimisation between [QCUT,QGAM] = [ 11.38, 22.75] = [ 36.24,144.96] Ry 
 Optimized for a Real-space Cutoff    1.47 Angstroem

   l    n(q)    QCUT    max X(q) W(low)/X(q) W(high)/X(q)  e(spline) 
   2      9    11.376    60.317    0.17E-03    0.16E-04    0.16E-06
   2      9    11.376    55.921    0.17E-03    0.16E-04    0.17E-06
   0     10    11.376    51.690    0.45E-04    0.60E-04    0.21E-06
   0     10    11.376    30.015    0.37E-04    0.55E-04    0.19E-06
   1     10    11.376    18.849    0.83E-04    0.11E-03    0.92E-07
   1     10    11.376    14.624    0.69E-04    0.92E-04    0.82E-07
 Optimization of the real space projectors (new method)

 maximal supplied QI-value         = 24.76
 optimisation between [QCUT,QGAM] = [ 11.39, 22.77] = [ 36.31,145.25] Ry 
 Optimized for a Real-space Cutoff    1.10 Angstroem

   l    n(q)    QCUT    max X(q) W(low)/X(q) W(high)/X(q)  e(spline) 
   0      7    11.387    20.381    0.22E-03    0.48E-03    0.18E-06
   0      7    11.387    15.268    0.22E-03    0.52E-03    0.19E-06
   1      7    11.387     5.964    0.22E-03    0.73E-03    0.24E-06
   1      7    11.387     5.382    0.19E-03    0.60E-03    0.21E-06

 ----------------------------------------------------------------------------- 
|                                                                             |
|  ADVICE TO THIS USER RUNNING 'VASP/VAMP'   (HEAR YOUR MASTER'S VOICE ...):  |
|                                                                             |
|      You enforced a specific xc-type in the INCAR file,                     |
|      a different type was found on the POTCAR file                          |
|          I HOPE YOU KNOW, WHAT YOU ARE  DOING                               |
|                                                                             |
 ----------------------------------------------------------------------------- 

  PAW_PBE Ni 02Aug2007                  :
 energy of atom  1       EATOM=-1077.6739
 kinetic energy error for atom=    0.0030 (will be added to EATOM!!)
  PAW_PBE O 08Apr2002                   :
 energy of atom  2       EATOM= -432.3788
 kinetic energy error for atom=    0.0224 (will be added to EATOM!!)
 
 
 POSCAR: NiO2_C2_m_scale_1_000_disp_0_04_round_2 
  positions in direct lattice
  No initial velocities read in
 exchange correlation table for  LEXCH =       14
   RHO(1)=    0.500       N(1)  =     2000
   RHO(2)=  100.500       N(2)  =     4000
 


--------------------------------------------------------------------------------------------------------


 ion  position               nearest neighbor table
   1  0.997  0.998  0.000-  51 1.84  46 1.85  54 1.86  22 1.95  27 1.95  19 1.96  17 2.76  13 2.77
                             7 2.78   5 2.80   9 2.80   3 2.87
   2  0.996  0.999  0.497-  44 1.80  21 1.86  52 1.88  20 1.89  29 1.90  53 1.93   4 2.79  14 2.80
                            18 2.80  10 2.83   6 2.85   8 2.88
   3  0.001  0.344  0.997-  23 1.77  26 1.79  50 1.82  19 1.85  43 1.89  46 1.93   5 2.70  11 2.78
                            15 2.78   9 2.81   1 2.87  13 2.88
   4  0.000  0.335  0.499-  25 1.79  48 1.82  45 1.84  24 1.89  44 1.90  21 1.95   6 2.72  12 2.76
                             2 2.79  10 2.79  16 2.81  14 2.82
   5  0.993  0.662  0.005-  54 1.82  47 1.84  27 1.84  23 1.86  30 1.90  50 1.90  17 2.69  15 2.70
                             3 2.70   1 2.80   7 2.80  11 2.85
   6  0.994  0.657  0.500-  48 1.80  49 1.82  52 1.82  28 1.84  25 1.86  29 1.93   4 2.72  18 2.75
                            16 2.75  12 2.80   2 2.85   8 2.95
   7  0.329  0.996  0.996-  22 1.77  30 1.80  27 1.85  39 1.87  31 1.89  34 1.94  11 2.76   1 2.78
                             9 2.80   5 2.80  13 2.81  15 2.87
   8  0.346  0.011  0.498-  33 1.69  32 1.77  41 1.84  20 1.87  28 1.88  29 1.94  16 2.65  14 2.68
                            10 2.77  12 2.84   2 2.88   6 2.95
   9  0.332  0.332  0.997-  38 1.83  35 1.84  22 1.86  31 1.86  19 1.88  26 1.89  15 2.77   7 2.80
                             1 2.80  17 2.81  11 2.81   3 2.81
  10  0.335  0.337  0.499-  24 1.80  37 1.83  33 1.83  21 1.85  20 1.90  36 1.90  18 2.73  12 2.75
                            16 2.77   8 2.77   4 2.79   2 2.83
  11  0.338  0.670  0.005-  30 1.80  39 1.85  42 1.86  35 1.87  23 1.90  26 1.94  13 2.71   7 2.76
                             3 2.78   9 2.81  17 2.82   5 2.85
  12  0.332  0.664  0.499-  40 1.79  24 1.85  37 1.89  41 1.90  28 1.92  25 1.96  10 2.75   4 2.76
                            14 2.78   6 2.80  18 2.82   8 2.84
  13  0.663  0.993  0.995-  42 1.78  46 1.87  51 1.88  39 1.89  34 1.92  43 1.95  11 2.71   1 2.77
                            17 2.80   7 2.81   3 2.88  15 2.90
  14  0.662  0.000  0.500-  45 1.82  32 1.83  41 1.85  53 1.86  40 1.89  44 1.92   8 2.68  16 2.75
                            12 2.78   2 2.80   4 2.82  18 2.87
  15  0.668  0.342  0.998-  38 1.75  50 1.77  47 1.82  43 1.88  31 1.89  34 1.90  17 2.67   5 2.70
                             9 2.77   3 2.78   7 2.87  13 2.90
  16  0.662  0.329  0.505-  45 1.79  49 1.84  33 1.88  32 1.90  48 1.92  36 1.97   8 2.65  18 2.74
                            14 2.75   6 2.75  10 2.77   4 2.81
  17  0.672  0.663  0.002-  47 1.76  54 1.78  51 1.86  38 1.87  35 1.94  42 1.95  15 2.67   5 2.69
                             1 2.76  13 2.80   9 2.81  11 2.82
  18  0.665  0.659  0.492-  36 1.69  52 1.84  37 1.86  49 1.88  40 1.92  53 1.93  10 2.73  16 2.74
                             6 2.75   2 2.80  12 2.82  14 2.87
  19  0.110  0.236  0.102-   3 1.85   9 1.88   1 1.96
  20  0.223  0.110  0.397-   8 1.87   2 1.89  10 1.90
  21  0.117  0.217  0.602-  10 1.85   2 1.86   4 1.95
  22  0.232  0.109  0.898-   7 1.77   9 1.86   1 1.95
  23  0.106  0.549  0.100-   3 1.77   5 1.86  11 1.90
  24  0.227  0.443  0.399-  10 1.80  12 1.85   4 1.89
  25  0.098  0.542  0.605-   4 1.79   6 1.86  12 1.96
  26  0.213  0.441  0.897-   3 1.79   9 1.89  11 1.94
  27  0.114  0.881  0.104-   5 1.84   7 1.85   1 1.95
  28  0.214  0.782  0.404-   6 1.84   8 1.88  12 1.92
  29  0.113  0.890  0.602-   2 1.90   6 1.93   8 1.94
  30  0.225  0.774  0.910-   7 1.80  11 1.80   5 1.90
  31  0.441  0.221  0.100-   9 1.86   7 1.89  15 1.89
  32  0.552  0.106  0.397-   8 1.77  14 1.83  16 1.90
  33  0.429  0.209  0.594-   8 1.69  10 1.83  16 1.88
  34  0.560  0.119  0.891-  15 1.90  13 1.92   7 1.94
  35  0.438  0.546  0.104-   9 1.84  11 1.87  17 1.94
  36  0.561  0.460  0.395-  18 1.69  10 1.90  16 1.97
  37  0.449  0.554  0.599-  10 1.83  18 1.86  12 1.89
  38  0.555  0.438  0.902-  15 1.75   9 1.83  17 1.87
  39  0.443  0.892  0.104-  11 1.85   7 1.87  13 1.89
  40  0.543  0.774  0.399-  12 1.79  14 1.89  18 1.92
  41  0.442  0.891  0.602-   8 1.84  14 1.85  12 1.90
  42  0.556  0.781  0.899-  13 1.78  11 1.86  17 1.95
  43  0.777  0.227  0.100-  15 1.88   3 1.89  13 1.95
  44  0.891  0.107  0.396-   2 1.80   4 1.90  14 1.92
  45  0.775  0.222  0.592-  16 1.79  14 1.82   4 1.84
  46  0.889  0.109  0.897-   1 1.85  13 1.87   3 1.93
  47  0.771  0.555  0.102-  17 1.76  15 1.82   5 1.84
  48  0.891  0.443  0.401-   6 1.80   4 1.82  16 1.92
  49  0.778  0.553  0.601-   6 1.82  16 1.84  18 1.88
  50  0.876  0.437  0.900-  15 1.77   3 1.82   5 1.90
  51  0.778  0.887  0.101-   1 1.84  17 1.86  13 1.88
  52  0.891  0.771  0.400-   6 1.82  18 1.84   2 1.88
  53  0.766  0.885  0.603-  14 1.86   2 1.93  18 1.93
  54  0.885  0.771  0.906-  17 1.78   5 1.82   1 1.86
 
  LATTYP: Found a hexagonal cell.
 ALAT       =     8.3628700013
 C/A-ratio  =     1.1065328050
  
  Lattice vectors:
  
 A1 = (   8.3628700000,   0.0000000000,   0.0000000000)
 A2 = (  -4.1814350000,   7.2424578700,   0.0000000000)
 A3 = (   0.0000000000,   0.0000000000,   9.2537900000)


Analysis of symmetry for initial positions (statically):
=====================================================================
 Subroutine PRICEL returns:
 Original cell was already a primitive cell.
 

 Routine SETGRP: Setting up the symmetry group for a 
 hexagonal supercell.


 Subroutine GETGRP returns: Found  1 space group operations
 (whereof  1 operations were pure point group operations)
 out of a pool of 24 trial point group operations.


The static configuration has the point symmetry C_1 .


Analysis of symmetry for dynamics (positions and initial velocities):
=====================================================================
 Subroutine PRICEL returns:
 Original cell was already a primitive cell.
 

 Routine SETGRP: Setting up the symmetry group for a 
 hexagonal supercell.


 Subroutine GETGRP returns: Found  1 space group operations
 (whereof  1 operations were pure point group operations)
 out of a pool of 24 trial point group operations.


The dynamic configuration has the point symmetry C_1 .


 Subroutine INISYM returns: Found  1 space group operations
 (whereof  1 operations are pure point group operations),
 and found     1 'primitive' translations

 
 
 KPOINTS: Automatic mesh                          

Automatic generation of k-mesh.
Space group operators:
 irot       det(A)        alpha          n_x          n_y          n_z        tau_x        tau_y        tau_z
    1     1.000000     0.000000     1.000000     0.000000     0.000000     0.000000     0.000000     0.000000
 
 Subroutine IBZKPT returns following result:
 ===========================================
 
 Found     26 irreducible k-points:
 
 Following reciprocal coordinates:
            Coordinates               Weight
  0.000000  0.000000  0.000000      1.000000
  0.250000  0.000000  0.000000      2.000000
  0.500000  0.000000  0.000000      1.000000
  0.000000  0.250000  0.000000      2.000000
  0.250000  0.250000  0.000000      2.000000
  0.500000  0.250000  0.000000      2.000000
 -0.250000  0.250000  0.000000      2.000000
  0.000000  0.500000  0.000000      1.000000
  0.250000  0.500000  0.000000      2.000000
  0.500000  0.500000  0.000000      1.000000
  0.000000  0.000000  0.333333      2.000000
  0.250000  0.000000  0.333333      2.000000
  0.500000  0.000000  0.333333      2.000000
 -0.250000  0.000000  0.333333      2.000000
  0.000000  0.250000  0.333333      2.000000
  0.250000  0.250000  0.333333      2.000000
  0.500000  0.250000  0.333333      2.000000
 -0.250000  0.250000  0.333333      2.000000
  0.000000  0.500000  0.333333      2.000000
  0.250000  0.500000  0.333333      2.000000
  0.500000  0.500000  0.333333      2.000000
 -0.250000  0.500000  0.333333      2.000000
  0.000000 -0.250000  0.333333      2.000000
  0.250000 -0.250000  0.333333      2.000000
  0.500000 -0.250000  0.333333      2.000000
 -0.250000 -0.250000  0.333333      2.000000
 
 Following cartesian coordinates:
            Coordinates               Weight
  0.000000  0.000000  0.000000      1.000000
  0.029894  0.017259  0.000000      2.000000
  0.059788  0.034519  0.000000      1.000000
  0.000000  0.034519  0.000000      2.000000
  0.029894  0.051778  0.000000      2.000000
  0.059788  0.069037  0.000000      2.000000
 -0.029894  0.017259  0.000000      2.000000
  0.000000  0.069037  0.000000      1.000000
  0.029894  0.086297  0.000000      2.000000
  0.059788  0.103556  0.000000      1.000000
  0.000000  0.000000  0.036021      2.000000
  0.029894  0.017259  0.036021      2.000000
  0.059788  0.034519  0.036021      2.000000
 -0.029894 -0.017259  0.036021      2.000000
  0.000000  0.034519  0.036021      2.000000
  0.029894  0.051778  0.036021      2.000000
  0.059788  0.069037  0.036021      2.000000
 -0.029894  0.017259  0.036021      2.000000
  0.000000  0.069037  0.036021      2.000000
  0.029894  0.086297  0.036021      2.000000
  0.059788  0.103556  0.036021      2.000000
 -0.029894  0.051778  0.036021      2.000000
  0.000000 -0.034519  0.036021      2.000000
  0.029894 -0.017259  0.036021      2.000000
  0.059788  0.000000  0.036021      2.000000
 -0.029894 -0.051778  0.036021      2.000000
 


--------------------------------------------------------------------------------------------------------




 Dimension of arrays:
   k-points           NKPTS =     26   k-points in BZ     NKDIM =     26   number of bands    NBANDS=    240
   number of dos      NEDOS =    301   number of ions     NIONS =     54
   non local maximal  LDIM  =      6   non local SUM 2l+1 LMDIM =     18
   total plane-waves  NPLWV = 286720
   max r-space proj   IRMAX =   6918   max aug-charges    IRDMAX=  16780
   dimension x,y,z NGX =    64 NGY =   64 NGZ =   70
   dimension x,y,z NGXF=   128 NGYF=  128 NGZF=  140
   support grid    NGXF=   128 NGYF=  128 NGZF=  140
   ions per type =              18  36
   NGX,Y,Z   is equivalent  to a cutoff of  12.72, 12.72, 12.58 a.u.
   NGXF,Y,Z  is equivalent  to a cutoff of  25.45, 25.45, 25.15 a.u.

 SYSTEM =  unknown system                          
 POSCAR =  NiO2_C2_m_scale_1_000_disp_0_04_round_2 

 Startparameter for this run:
   NWRITE =      1    write-flag & timer
   PREC   = accura    normal or accurate (medium, high low for compatibility)
   ISTART =      0    job   : 0-new  1-cont  2-samecut
   ICHARG =      2    charge: 1-file 2-atom 10-const
   ISPIN  =      1    spin polarized calculation?
   LNONCOLLINEAR =      F non collinear calculations
   LSORBIT =      F    spin-orbit coupling
   INIWAV =      1    electr: 0-lowe 1-rand  2-diag
   LASPH  =      F    aspherical Exc in radial PAW
   METAGGA=      F    non-selfconsistent MetaGGA calc.

 Electronic Relaxation 1
   ENCUT  =  500.0 eV  36.75 Ry    6.06 a.u.  15.25 15.25 16.87*2*pi/ulx,y,z
   ENINI  =  500.0     initial cutoff
   ENAUG  =  605.4 eV  augmentation charge cutoff
   NELM   =    120;   NELMIN=  2; NELMDL= -5     # of ELM steps 
   EDIFF  = 0.1E-04   stopping-criterion for ELM
   LREAL  =      T    real-space projection
   NLSPLINE    = F    spline interpolate recip. space projectors
   LCOMPAT=      F    compatible to vasp.4.4
   GGA_COMPAT  = T    GGA compatible to vasp.4.4-vasp.4.6
   LMAXPAW     = -100 max onsite density
   LMAXMIX     =    2 max onsite mixed and CHGCAR
   VOSKOWN=      1    Vosko Wilk Nusair interpolation
   ROPT   =   -0.00025  -0.00025
 Ionic relaxation
   EDIFFG = 0.1E-03   stopping-criterion for IOM
   NSW    =      0    number of steps for IOM
   NBLOCK =      1;   KBLOCK =      1    inner block; outer block 
   IBRION =     -1    ionic relax: 0-MD 1-quasi-New 2-CG
   NFREE  =      0    steps in history (QN), initial steepest desc. (CG)
   ISIF   =      2    stress and relaxation
   IWAVPR =     10    prediction:  0-non 1-charg 2-wave 3-comb
   ISYM   =      2    0-nonsym 1-usesym 2-fastsym
   LCORR  =      T    Harris-Foulkes like correction to forces

   POTIM  = 0.5000    time-step for ionic-motion
   TEIN   =    0.0    initial temperature
   TEBEG  =    0.0;   TEEND  =   0.0 temperature during run
   SMASS  =  -3.00    Nose mass-parameter (am)
   estimated Nose-frequenzy (Omega)   =  0.10E-29 period in steps =****** mass=  -0.160E-26a.u.
   SCALEE = 1.0000    scale energy and forces
   NPACO  =    256;   APACO  = 16.0  distance and # of slots for P.C.
   PSTRESS=    0.0 pullay stress

  Mass of Ions in am
   POMASS =  58.69 16.00
  Ionic Valenz
   ZVAL   =  10.00  6.00
  Atomic Wigner-Seitz radii
   RWIGS  =   1.15  0.73
  virtual crystal weights 
   VCA    =   1.00  1.00
   NELECT =     396.0000    total number of electrons
   NUPDOWN=      -1.0000    fix difference up-down

 DOS related values:
   EMIN   =  10.00;   EMAX   =-10.00  energy-range for DOS
   EFERMI =   0.00
   ISMEAR =     0;   SIGMA  =   0.05  broadening in eV -4-tet -1-fermi 0-gaus

 Electronic relaxation 2 (details)
   IALGO  =     38    algorithm
   LDIAG  =      T    sub-space diagonalisation (order eigenvalues)
   LSUBROT=      F    optimize rotation matrix (better conditioning)
   TURBO    =      0    0=normal 1=particle mesh
   IRESTART =      0    0=no restart 2=restart with 2 vectors
   NREBOOT  =      0    no. of reboots
   NMIN     =      0    reboot dimension
   EREF     =   0.00    reference energy to select bands
   IMIX   =      4    mixing-type and parameters
     AMIX     =   0.40;   BMIX     =  1.00
     AMIX_MAG =   1.60;   BMIX_MAG =  1.00
     AMIN     =   0.10
     WC   =   100.;   INIMIX=   1;  MIXPRE=   1;  MAXMIX= -45

 Intra band minimization:
   WEIMIN = 0.0000     energy-eigenvalue tresh-hold
   EBREAK =  0.10E-07  absolut break condition
   DEPER  =   0.30     relativ break condition  

   TIME   =   0.40     timestep for ELM

  volume/ion in A,a.u.               =      10.38        70.04
  Fermi-wavevector in a.u.,A,eV,Ry     =   1.458096  2.755403 28.926600  2.126045
  Thomas-Fermi vector in A             =   2.574821
 
 Write flags
   LWAVE        =      F    write WAVECAR
   LDOWNSAMPLE  =      F    k-point downsampling of WAVECAR
   LCHARG       =      T    write CHGCAR
   LVTOT        =      F    write LOCPOT, total local potential
   LVHAR        =      F    write LOCPOT, Hartree potential only
   LELF         =      F    write electronic localiz. function (ELF)
   LORBIT       =      0    0 simple, 1 ext, 2 COOP (PROOUT), +10 PAW based schemes


 Dipole corrections
   LMONO  =      F    monopole corrections only (constant potential shift)
   LDIPOL =      F    correct potential (dipole corrections)
   IDIPOL =      0    1-x, 2-y, 3-z, 4-all directions 
   EPSILON=  1.0000000 bulk dielectric constant

 Exchange correlation treatment:
   GGA     =    PS    GGA type
   LEXCH   =    14    internal setting for exchange type
   VOSKOWN=      1    Vosko Wilk Nusair interpolation
   LHFCALC =     F    Hartree Fock is set to
   LHFONE  =     F    Hartree Fock one center treatment
   AEXX    =    0.0000 exact exchange contribution

 Linear response parameters
   LEPSILON=     F    determine dielectric tensor
   LRPA    =     F    only Hartree local field effects (RPA)
   LNABLA  =     F    use nabla operator in PAW spheres
   LVEL    =     F    velocity operator in full k-point grid
   LINTERFAST=   F  fast interpolation
   KINTER  =     0    interpolate to denser k-point grid
   CSHIFT  =0.1000    complex shift for real part using Kramers Kronig
   OMEGAMAX=  -1.0    maximum frequency
   DEG_THRESHOLD= 0.2000000E-02 threshold for treating states as degnerate
   RTIME   =   -0.100 relaxation time in fs
  (WPLASMAI=    0.000 imaginary part of plasma frequency in eV, 0.658/RTIME)
   DFIELD  = 0.0000000 0.0000000 0.0000000 field for delta impulse in time
 
 Orbital magnetization related:
   ORBITALMAG=     F  switch on orbital magnetization
   LCHIMAG   =     F  perturbation theory with respect to B field
   DQ        =  0.001000  dq finite difference perturbation B field
   LLRAUG    =     F  two centre corrections for induced B field



--------------------------------------------------------------------------------------------------------


 Static calculation
 charge density and potential will be updated during run
 non-spin polarized calculation
 Variant of blocked Davidson
 Davidson routine will perform the subspace rotation
 perform sub-space diagonalisation
    after iterative eigenvector-optimisation
 modified Broyden-mixing scheme, WC =      100.0
 initial mixing is a Kerker type mixing with AMIX =  0.4000 and BMIX =      1.0000
 Hartree-type preconditioning will be used
 using additional bands           42
 real space projection scheme for non local part
 use partial core corrections
 calculate Harris-corrections to forces 
   (improved forces if not selfconsistent)
 use gradient corrections 
 use of overlap-Matrix (Vanderbilt PP)
 Gauss-broadening in eV      SIGMA  =   0.05


--------------------------------------------------------------------------------------------------------


  energy-cutoff  :      500.00
  volume of cell :      560.48
      direct lattice vectors                 reciprocal lattice vectors
     8.362870000  0.000000000  0.000000000     0.119576174  0.069037336  0.000000000
    -4.181435000  7.242457870  0.000000000     0.000000000  0.138074673  0.000000000
     0.000000000  0.000000000  9.253790000     0.000000000  0.000000000  0.108063831

  length of vectors
     8.362870000  8.362870001  9.253790000     0.138074673  0.138074673  0.108063831


 
 k-points in units of 2pi/SCALE and weight: Automatic mesh                          
   0.00000000  0.00000000  0.00000000       0.021
   0.02989404  0.01725933  0.00000000       0.042
   0.05978809  0.03451867  0.00000000       0.021
   0.00000000  0.03451867  0.00000000       0.042
   0.02989404  0.05177800  0.00000000       0.042
   0.05978809  0.06903734  0.00000000       0.042
  -0.02989404  0.01725933  0.00000000       0.042
   0.00000000  0.06903734  0.00000000       0.021
   0.02989404  0.08629667  0.00000000       0.042
   0.05978809  0.10355600  0.00000000       0.021
   0.00000000  0.00000000  0.03602128       0.042
   0.02989404  0.01725933  0.03602128       0.042
   0.05978809  0.03451867  0.03602128       0.042
  -0.02989404 -0.01725933  0.03602128       0.042
   0.00000000  0.03451867  0.03602128       0.042
   0.02989404  0.05177800  0.03602128       0.042
   0.05978809  0.06903734  0.03602128       0.042
  -0.02989404  0.01725933  0.03602128       0.042
   0.00000000  0.06903734  0.03602128       0.042
   0.02989404  0.08629667  0.03602128       0.042
   0.05978809  0.10355600  0.03602128       0.042
  -0.02989404  0.05177800  0.03602128       0.042
   0.00000000 -0.03451867  0.03602128       0.042
   0.02989404 -0.01725933  0.03602128       0.042
   0.05978809  0.00000000  0.03602128       0.042
  -0.02989404 -0.05177800  0.03602128       0.042
 
 k-points in reciprocal lattice and weights: Automatic mesh                          
   0.00000000  0.00000000  0.00000000       0.021
   0.25000000  0.00000000  0.00000000       0.042
   0.50000000  0.00000000  0.00000000       0.021
   0.00000000  0.25000000  0.00000000       0.042
   0.25000000  0.25000000  0.00000000       0.042
   0.50000000  0.25000000  0.00000000       0.042
  -0.25000000  0.25000000  0.00000000       0.042
   0.00000000  0.50000000  0.00000000       0.021
   0.25000000  0.50000000  0.00000000       0.042
   0.50000000  0.50000000  0.00000000       0.021
   0.00000000  0.00000000  0.33333333       0.042
   0.25000000  0.00000000  0.33333333       0.042
   0.50000000  0.00000000  0.33333333       0.042
  -0.25000000  0.00000000  0.33333333       0.042
   0.00000000  0.25000000  0.33333333       0.042
   0.25000000  0.25000000  0.33333333       0.042
   0.50000000  0.25000000  0.33333333       0.042
  -0.25000000  0.25000000  0.33333333       0.042
   0.00000000  0.50000000  0.33333333       0.042
   0.25000000  0.50000000  0.33333333       0.042
   0.50000000  0.50000000  0.33333333       0.042
  -0.25000000  0.50000000  0.33333333       0.042
   0.00000000 -0.25000000  0.33333333       0.042
   0.25000000 -0.25000000  0.33333333       0.042
   0.50000000 -0.25000000  0.33333333       0.042
  -0.25000000 -0.25000000  0.33333333       0.042
 
 position of ions in fractional coordinates (direct lattice) 
   0.99709560  0.99815881  0.00035052
   0.99561282  0.99879268  0.49670104
   0.00138998  0.34354397  0.99695001
   0.00038358  0.33492025  0.49943207
   0.99276225  0.66159553  0.00518462
   0.99351081  0.65695723  0.50022096
   0.32865983  0.99613078  0.99595795
   0.34613019  0.01092134  0.49811914
   0.33210772  0.33217258  0.99668525
   0.33521060  0.33670884  0.49885960
   0.33770051  0.67046267  0.00475678
   0.33173880  0.66436874  0.49904983
   0.66329792  0.99342570  0.99530749
   0.66156826  0.00007945  0.49961451
   0.66783005  0.34210948  0.99806571
   0.66226441  0.32949911  0.50548415
   0.67164808  0.66322957  0.00167103
   0.66545199  0.65879056  0.49208590
   0.11033769  0.23554720  0.10202548
   0.22284914  0.10990774  0.39673514
   0.11731205  0.21727831  0.60217192
   0.23212914  0.10901841  0.89844628
   0.10599121  0.54885100  0.10000884
   0.22734618  0.44262389  0.39909468
   0.09830233  0.54219206  0.60536368
   0.21334377  0.44131633  0.89708182
   0.11432545  0.88132072  0.10434057
   0.21425062  0.78155823  0.40354850
   0.11271411  0.89037338  0.60150169
   0.22456070  0.77400005  0.91006860
   0.44098117  0.22093301  0.09964797
   0.55240161  0.10623076  0.39677768
   0.42853225  0.20929950  0.59408912
   0.55975006  0.11888182  0.89105915
   0.43821481  0.54613185  0.10357276
   0.56108893  0.46046158  0.39503508
   0.44890077  0.55353892  0.59937172
   0.55464541  0.43771904  0.90224571
   0.44309128  0.89215107  0.10378151
   0.54332693  0.77368716  0.39872232
   0.44226242  0.89121734  0.60222922
   0.55572197  0.78146570  0.89873923
   0.77691603  0.22679404  0.09998264
   0.89064293  0.10731960  0.39642050
   0.77522313  0.22217793  0.59239107
   0.88898072  0.10923150  0.89701890
   0.77078882  0.55540271  0.10151553
   0.89144577  0.44308207  0.40068848
   0.77848044  0.55252491  0.60106675
   0.87649864  0.43712634  0.89986512
   0.77802789  0.88702010  0.10081095
   0.89116258  0.77078741  0.40028572
   0.76617439  0.88457873  0.60266830
   0.88511574  0.77146889  0.90635768
 
 position of ions in cartesian coordinates  (Angst):
   4.16484470  7.22912313  0.00324364
   4.14979391  7.23371391  4.59636712
  -1.42488256  2.48810273  9.22556603
  -1.39723943  2.42564580  4.62163950
   5.53592293  4.79157775  0.04797738
   5.56157779  4.75798506  4.62893972
  -1.41671668  7.21443521  9.21638572
   2.84897491  0.07909734  4.60948992
   1.38841564  2.40574592  9.22311600
   1.39539654  2.43859959  4.61634198
   0.02064939  4.85579764  0.04401824
  -0.00372624  4.81166261  4.61810233
   1.39312928  7.19484378  9.21036650
   5.53227714  0.00057541  4.62332776
   4.15446734  2.47771350  9.23589049
   4.16065206  2.38638342  4.67764417
   2.84365424  4.80341222  0.01546336
   2.81039858  4.77126288  4.55365958
  -0.06218555  1.70594067  0.94412237
   1.40408632  0.79600218  3.67130367
   0.07253029  1.57362901  5.57237249
   1.48541243  0.78956124  8.31403320
  -1.40859407  3.97503024  0.92546080
   0.05046352  3.20568488  3.69313836
  -1.44505125  3.92680315  5.60190837
  -0.06116933  3.19621493  8.30140678
  -2.72909643  6.38292818  0.96554572
  -1.47628485  5.66040255  3.73435307
  -2.78042497  6.44849169  5.56617032
  -1.35845896  5.60566275  8.42158371
   2.76405118  1.60009802  0.92212139
   4.17546583  0.76937180  3.67169733
   2.70858724  1.51584281  5.49757596
   4.18402038  0.86099657  8.24567425
   1.38111866  3.95533692  0.95844057
   2.76692361  3.33487359  3.65557167
   1.43951177  4.00898231  5.54646003
   2.80813375  3.17016171  8.34919233
  -0.02495694  6.46136654  0.96037230
   1.30864991  5.60339666  3.68969262
  -0.02798425  6.45460404  5.57290273
   1.37978256  5.65973241  8.31674410
   5.54892322  1.64254628  0.92521835
   6.99958111  0.77725768  3.66839206
   5.55406768  1.60911430  5.48186256
   6.97768578  0.79110454  8.30082453
   4.12362637  4.02248073  0.93940340
   5.60232621  3.20900322  3.70788705
   4.19998372  4.00163838  5.56214548
   5.50222880  3.16586910  8.32716285
   2.79752921  6.42420570  0.93288336
   4.22967935  5.58239534  3.70415999
   2.70860836  6.40652418  5.57696589
   4.17626085  5.58733093  8.38724364
 


--------------------------------------------------------------------------------------------------------


 k-point  1 :   0.0000 0.0000 0.0000  plane waves:   14241
 k-point  2 :   0.2500 0.0000 0.0000  plane waves:   14190
 k-point  3 :   0.5000 0.0000 0.0000  plane waves:   14218
 k-point  4 :   0.0000 0.2500 0.0000  plane waves:   14190
 k-point  5 :   0.2500 0.2500 0.0000  plane waves:   14239
 k-point  6 :   0.5000 0.2500 0.0000  plane waves:   14239
 k-point  7 :  -0.2500 0.2500 0.0000  plane waves:   14190
 k-point  8 :   0.0000 0.5000 0.0000  plane waves:   14218
 k-point  9 :   0.2500 0.5000 0.0000  plane waves:   14239
 k-point 10 :   0.5000 0.5000 0.0000  plane waves:   14218
 k-point 11 :   0.0000 0.0000 0.3333  plane waves:   14206
 k-point 12 :   0.2500 0.0000 0.3333  plane waves:   14238
 k-point 13 :   0.5000 0.0000 0.3333  plane waves:   14242
 k-point 14 :  -0.2500 0.0000 0.3333  plane waves:   14238
 k-point 15 :   0.0000 0.2500 0.3333  plane waves:   14238
 k-point 16 :   0.2500 0.2500 0.3333  plane waves:   14221
 k-point 17 :   0.5000 0.2500 0.3333  plane waves:   14221
 k-point 18 :  -0.2500 0.2500 0.3333  plane waves:   14238
 k-point 19 :   0.0000 0.5000 0.3333  plane waves:   14242
 k-point 20 :   0.2500 0.5000 0.3333  plane waves:   14221
 k-point 21 :   0.5000 0.5000 0.3333  plane waves:   14242
 k-point 22 :  -0.2500 0.5000 0.3333  plane waves:   14221
 k-point 23 :   0.0000-0.2500 0.3333  plane waves:   14238
 k-point 24 :   0.2500-0.2500 0.3333  plane waves:   14238
 k-point 25 :   0.5000-0.2500 0.3333  plane waves:   14221
 k-point 26 :  -0.2500-0.2500 0.3333  plane waves:   14221

 maximum and minimum number of plane-waves per node :     14242    14190

 maximum number of plane-waves:     14242
 maximum index in each direction: 
   IXMAX=   15   IYMAX=   15   IZMAX=   16
   IXMIN=  -15   IYMIN=  -15   IZMIN=  -17

 The following grids will avoid any aliasing or wrap around errors in the Hartre
 e energy
  - symmetry arguments have not been applied
  - exchange correlation energies might require even more grid points
  - we recommend to set PREC=Normal or Accurate and rely on VASP defaults
 NGX is ok and might be reduce to    64
 NGY is ok and might be reduce to    64
 NGZ is ok and might be reduce to    70

 serial   3D FFT for wavefunctions
 parallel 3D FFT for charge:
    minimum data exchange during FFTs selected (reduces bandwidth)


 total amount of memory used by VASP MPI-rank0   181683. kBytes
=======================================================================

   base      :      30000. kBytes
   nonlr-proj:      32291. kBytes
   fftplans  :       6058. kBytes
   grid      :      19644. kBytes
   one-center:        839. kBytes
   wavefun   :      92851. kBytes
 
     INWAV:  cpu time    0.0000: real time    0.0000
 Broyden mixing: mesh for mixing (old mesh)
   NGX = 31   NGY = 31   NGZ = 33
  (NGX  =128   NGY  =128   NGZ  =140)
  gives a total of  31713 points

 initial charge density was supplied:
 charge density of overlapping atoms calculated
 number of electron     396.0000000 magnetization 
 keeping initial charge density in first step


--------------------------------------------------------------------------------------------------------


 Maximum index for non-local projection operator         6673
 Maximum index for augmentation-charges         1078 (set IRDMAX)


--------------------------------------------------------------------------------------------------------


 First call to EWALD:  gamma=   0.215
 Maximum number of real-space cells 3x 3x 3
 Maximum number of reciprocal cells 3x 3x 3

    FEWALD:  cpu time    0.0027: real time    0.0027


--------------------------------------- Iteration      1(   1)  ---------------------------------------


    POTLOK:  cpu time    0.0973: real time    0.1174
    SETDIJ:  cpu time    0.0092: real time    0.0092
     EDDAV:  cpu time   36.2035: real time   36.2895
    --------------------------------------------
      LOOP:  cpu time   36.3116: real time   36.4178

 eigenvalue-minimisations  : 12480
 total energy-change (2. order) : 0.5297192E+04  (-0.1769441E+05)
 number of electron     396.0000000 magnetization 
 augmentation part      396.0000000 magnetization 

 Free energy of the ion-electron system (eV)
  ---------------------------------------------------
  alpha Z        PSCENC =      1237.65017714
  Ewald energy   TEWEN  =    -22422.28026072
  -Hartree energ DENC   =    -13470.32858781
  -exchange      EXHF   =         0.00000000
  -V(xc)+E(xc)   XCENC  =      1588.95116771
  PAW double counting   =     29784.60368500   -31040.73694357
  entropy T*S    EENTRO =        -0.00906724
  eigenvalues    EBANDS =      4728.96075067
  atomic energy  EATOM  =     34890.38139807
  Solvation  Ediel_sol  =         0.00000000
  ---------------------------------------------------
  free energy    TOTEN  =      5297.19231924 eV

  energy without entropy =     5297.20138648  energy(sigma->0) =     5297.19685286


--------------------------------------------------------------------------------------------------------




--------------------------------------- Iteration      1(   2)  ---------------------------------------


     EDDAV:  cpu time   37.1526: real time   37.2406
    --------------------------------------------
      LOOP:  cpu time   37.1526: real time   37.2406

 eigenvalue-minimisations  : 12912
 total energy-change (2. order) :-0.4598185E+04  (-0.4278732E+04)
 number of electron     396.0000000 magnetization 
 augmentation part      396.0000000 magnetization 

 Free energy of the ion-electron system (eV)
  ---------------------------------------------------
  alpha Z        PSCENC =      1237.65017714
  Ewald energy   TEWEN  =    -22422.28026072
  -Hartree energ DENC   =    -13470.32858781
  -exchange      EXHF   =         0.00000000
  -V(xc)+E(xc)   XCENC  =      1588.95116771
  PAW double counting   =     29784.60368500   -31040.73694357
  entropy T*S    EENTRO =        -0.02797140
  eigenvalues    EBANDS =       130.79468403
  atomic energy  EATOM  =     34890.38139807
  Solvation  Ediel_sol  =         0.00000000
  ---------------------------------------------------
  free energy    TOTEN  =       699.00734844 eV

  energy without entropy =      699.03531984  energy(sigma->0) =      699.02133414


--------------------------------------------------------------------------------------------------------




--------------------------------------- Iteration      1(   3)  ---------------------------------------


     EDDAV:  cpu time   38.0288: real time   38.1188
    --------------------------------------------
      LOOP:  cpu time   38.0281: real time   38.1181

 eigenvalue-minimisations  : 13328
 total energy-change (2. order) :-0.1060259E+04  (-0.9279632E+03)
 number of electron     396.0000000 magnetization 
 augmentation part      396.0000000 magnetization 

 Free energy of the ion-electron system (eV)
  ---------------------------------------------------
  alpha Z        PSCENC =      1237.65017714
  Ewald energy   TEWEN  =    -22422.28026072
  -Hartree energ DENC   =    -13470.32858781
  -exchange      EXHF   =         0.00000000
  -V(xc)+E(xc)   XCENC  =      1588.95116771
  PAW double counting   =     29784.60368500   -31040.73694357
  entropy T*S    EENTRO =        -0.00000000
  eigenvalues    EBANDS =      -929.49235830
  atomic energy  EATOM  =     34890.38139807
  Solvation  Ediel_sol  =         0.00000000
  ---------------------------------------------------
  free energy    TOTEN  =      -361.25172249 eV

  energy without entropy =     -361.25172249  energy(sigma->0) =     -361.25172249


--------------------------------------------------------------------------------------------------------




--------------------------------------- Iteration      1(   4)  ---------------------------------------


     EDDAV:  cpu time   37.8872: real time   37.9769
    --------------------------------------------
      LOOP:  cpu time   37.8871: real time   37.9768

 eigenvalue-minimisations  : 13296
 total energy-change (2. order) :-0.1087432E+03  (-0.1066238E+03)
 number of electron     396.0000000 magnetization 
 augmentation part      396.0000000 magnetization 

 Free energy of the ion-electron system (eV)
  ---------------------------------------------------
  alpha Z        PSCENC =      1237.65017714
  Ewald energy   TEWEN  =    -22422.28026072
  -Hartree energ DENC   =    -13470.32858781
  -exchange      EXHF   =         0.00000000
  -V(xc)+E(xc)   XCENC  =      1588.95116771
  PAW double counting   =     29784.60368500   -31040.73694357
  entropy T*S    EENTRO =        -0.00000000
  eigenvalues    EBANDS =     -1038.23559894
  atomic energy  EATOM  =     34890.38139807
  Solvation  Ediel_sol  =         0.00000000
  ---------------------------------------------------
  free energy    TOTEN  =      -469.99496313 eV

  energy without entropy =     -469.99496313  energy(sigma->0) =     -469.99496313


--------------------------------------------------------------------------------------------------------




--------------------------------------- Iteration      1(   5)  ---------------------------------------


     EDDAV:  cpu time   39.4522: real time   39.5457
    CHARGE:  cpu time    1.8064: real time    1.8107
    MIXING:  cpu time    0.0028: real time    0.0028
    --------------------------------------------
      LOOP:  cpu time   41.2605: real time   41.3584

 eigenvalue-minimisations  : 14080
 total energy-change (2. order) :-0.3331089E+01  (-0.3325841E+01)
 number of electron     396.0000006 magnetization 
 augmentation part      113.0699834 magnetization 

 Broyden mixing:
  rms(total) = 0.12039E+02    rms(broyden)= 0.12037E+02
  rms(prec ) = 0.14870E+02
  weight for this iteration     100.00

 Free energy of the ion-electron system (eV)
  ---------------------------------------------------
  alpha Z        PSCENC =      1237.65017714
  Ewald energy   TEWEN  =    -22422.28026072
  -Hartree energ DENC   =    -13470.32858781
  -exchange      EXHF   =         0.00000000
  -V(xc)+E(xc)   XCENC  =      1588.95116771
  PAW double counting   =     29784.60368500   -31040.73694357
  entropy T*S    EENTRO =        -0.00000000
  eigenvalues    EBANDS =     -1041.56668755
  atomic energy  EATOM  =     34890.38139807
  Solvation  Ediel_sol  =         0.00000000
  ---------------------------------------------------
  free energy    TOTEN  =      -473.32605174 eV

  energy without entropy =     -473.32605174  energy(sigma->0) =     -473.32605174


--------------------------------------------------------------------------------------------------------




--------------------------------------- Iteration      1(   6)  ---------------------------------------


    POTLOK:  cpu time    0.0756: real time    0.0757
    SETDIJ:  cpu time    0.0090: real time    0.0090
     EDDAV:  cpu time   50.9075: real time   51.0280
    CHARGE:  cpu time    1.8282: real time    1.8326
    MIXING:  cpu time    0.0025: real time    0.0025
    --------------------------------------------
      LOOP:  cpu time   52.8228: real time   52.9478

 eigenvalue-minimisations  : 19008
 total energy-change (2. order) :-0.9783522E+02  (-0.1146602E+03)
 number of electron     396.0000010 magnetization 
 augmentation part      154.9198411 magnetization 

 Broyden mixing:
  rms(total) = 0.20020E+02    rms(broyden)= 0.20019E+02
  rms(prec ) = 0.22464E+02
  weight for this iteration     100.00

 eigenvalues of (default mixing * dielectric matrix)
  average eigenvalue GAMMA=   0.2206
  0.2206

 Free energy of the ion-electron system (eV)
  ---------------------------------------------------
  alpha Z        PSCENC =      1237.65017714
  Ewald energy   TEWEN  =    -22422.28026072
  -Hartree energ DENC   =    -12764.60842852
  -exchange      EXHF   =         0.00000000
  -V(xc)+E(xc)   XCENC  =      1584.60698973
  PAW double counting   =     33029.11479630   -34075.37735903
  entropy T*S    EENTRO =        -0.03701107
  eigenvalues    EBANDS =     -2050.61157492
  atomic energy  EATOM  =     34890.38139807
  Solvation  Ediel_sol  =         0.00000000
  ---------------------------------------------------
  free energy    TOTEN  =      -571.16127302 eV

  energy without entropy =     -571.12426195  energy(sigma->0) =     -571.14276749


--------------------------------------------------------------------------------------------------------




--------------------------------------- Iteration      1(   7)  ---------------------------------------


    POTLOK:  cpu time    0.0758: real time    0.0760
    SETDIJ:  cpu time    0.0091: real time    0.0092
     EDDAV:  cpu time   47.6656: real time   47.7786
    CHARGE:  cpu time    1.8067: real time    1.8110
    MIXING:  cpu time    0.0027: real time    0.0027
    --------------------------------------------
      LOOP:  cpu time   49.5600: real time   49.6775

 eigenvalue-minimisations  : 17616
 total energy-change (2. order) : 0.2188246E+03  (-0.2790162E+02)
 number of electron     396.0000012 magnetization 
 augmentation part      137.6731289 magnetization 

 Broyden mixing:
  rms(total) = 0.54016E+01    rms(broyden)= 0.54009E+01
  rms(prec ) = 0.66653E+01
  weight for this iteration     100.00

 eigenvalues of (default mixing * dielectric matrix)
  average eigenvalue GAMMA=   0.6057
  0.6211  0.5902

 Free energy of the ion-electron system (eV)
  ---------------------------------------------------
  alpha Z        PSCENC =      1237.65017714
  Ewald energy   TEWEN  =    -22422.28026072
  -Hartree energ DENC   =    -13067.73701862
  -exchange      EXHF   =         0.00000000
  -V(xc)+E(xc)   XCENC  =      1589.01453396
  PAW double counting   =     34572.57275216   -35776.03492318
  entropy T*S    EENTRO =        -0.00000139
  eigenvalues    EBANDS =     -1375.90328477
  atomic energy  EATOM  =     34890.38139807
  Solvation  Ediel_sol  =         0.00000000
  ---------------------------------------------------
  free energy    TOTEN  =      -352.33662736 eV

  energy without entropy =     -352.33662597  energy(sigma->0) =     -352.33662666


--------------------------------------------------------------------------------------------------------




--------------------------------------- Iteration      1(   8)  ---------------------------------------


    POTLOK:  cpu time    0.0749: real time    0.0750
    SETDIJ:  cpu time    0.0092: real time    0.0092
     EDDAV:  cpu time   51.1524: real time   51.2735
    CHARGE:  cpu time    1.7957: real time    1.8000
    MIXING:  cpu time    0.0027: real time    0.0027
    --------------------------------------------
      LOOP:  cpu time   53.0348: real time   53.1603

 eigenvalue-minimisations  : 19216
 total energy-change (2. order) : 0.7626894E+01  (-0.1224536E+02)
 number of electron     396.0000003 magnetization 
 augmentation part      127.4632082 magnetization 

 Broyden mixing:
  rms(total) = 0.46310E+01    rms(broyden)= 0.46296E+01
  rms(prec ) = 0.61813E+01
  weight for this iteration     100.00

 eigenvalues of (default mixing * dielectric matrix)
  average eigenvalue GAMMA=   0.5686
  0.9277  0.4298  0.3484

 Free energy of the ion-electron system (eV)
  ---------------------------------------------------
  alpha Z        PSCENC =      1237.65017714
  Ewald energy   TEWEN  =    -22422.28026072
  -Hartree energ DENC   =    -13103.39436802
  -exchange      EXHF   =         0.00000000
  -V(xc)+E(xc)   XCENC  =      1583.82620311
  PAW double counting   =     36123.60255433   -37407.36868685
  entropy T*S    EENTRO =        -0.03562497
  eigenvalues    EBANDS =     -1247.09112574
  atomic energy  EATOM  =     34890.38139807
  Solvation  Ediel_sol  =         0.00000000
  ---------------------------------------------------
  free energy    TOTEN  =      -344.70973366 eV

  energy without entropy =     -344.67410869  energy(sigma->0) =     -344.69192117


--------------------------------------------------------------------------------------------------------




--------------------------------------- Iteration      1(   9)  ---------------------------------------


    POTLOK:  cpu time    0.0752: real time    0.0754
    SETDIJ:  cpu time    0.0093: real time    0.0093
     EDDAV:  cpu time   46.6861: real time   46.7966
    CHARGE:  cpu time    1.8266: real time    1.8310
    MIXING:  cpu time    0.0025: real time    0.0025
    --------------------------------------------
      LOOP:  cpu time   48.5997: real time   48.7148

 eigenvalue-minimisations  : 17088
 total energy-change (2. order) : 0.6359408E+00  (-0.1312080E+02)
 number of electron     396.0000007 magnetization 
 augmentation part      126.4021128 magnetization 

 Broyden mixing:
  rms(total) = 0.63158E+01    rms(broyden)= 0.63153E+01
  rms(prec ) = 0.90471E+01
  weight for this iteration     100.00

 eigenvalues of (default mixing * dielectric matrix)
  average eigenvalue GAMMA=   0.4998
  1.0796  0.3986  0.3986  0.1222

 Free energy of the ion-electron system (eV)
  ---------------------------------------------------
  alpha Z        PSCENC =      1237.65017714
  Ewald energy   TEWEN  =    -22422.28026072
  -Hartree energ DENC   =    -13067.53648277
  -exchange      EXHF   =         0.00000000
  -V(xc)+E(xc)   XCENC  =      1581.68470202
  PAW double counting   =     37009.52553957   -38303.69414403
  entropy T*S    EENTRO =        -0.05424146
  eigenvalues    EBANDS =     -1269.75048069
  atomic energy  EATOM  =     34890.38139807
  Solvation  Ediel_sol  =         0.00000000
  ---------------------------------------------------
  free energy    TOTEN  =      -344.07379288 eV

  energy without entropy =     -344.01955142  energy(sigma->0) =     -344.04667215


--------------------------------------------------------------------------------------------------------




--------------------------------------- Iteration      1(  10)  ---------------------------------------


    POTLOK:  cpu time    0.0743: real time    0.0745
    SETDIJ:  cpu time    0.0091: real time    0.0091
     EDDAV:  cpu time   46.8734: real time   46.9844
    CHARGE:  cpu time    1.8329: real time    1.8372
    MIXING:  cpu time    0.0030: real time    0.0030
    --------------------------------------------
      LOOP:  cpu time   48.7926: real time   48.9082

 eigenvalue-minimisations  : 17120
 total energy-change (2. order) : 0.6158784E+01  (-0.1273852E+02)
 number of electron     396.0000008 magnetization 
 augmentation part      127.6834393 magnetization 

 Broyden mixing:
  rms(total) = 0.21132E+01    rms(broyden)= 0.21125E+01
  rms(prec ) = 0.26963E+01
  weight for this iteration     100.00

 eigenvalues of (default mixing * dielectric matrix)
  average eigenvalue GAMMA=   0.5556
  1.4207  0.4547  0.4547  0.3487  0.0992

 Free energy of the ion-electron system (eV)
  ---------------------------------------------------
  alpha Z        PSCENC =      1237.65017714
  Ewald energy   TEWEN  =    -22422.28026072
  -Hartree energ DENC   =    -13054.50797213
  -exchange      EXHF   =         0.00000000
  -V(xc)+E(xc)   XCENC  =      1581.34294375
  PAW double counting   =     37383.77225159   -38681.40576202
  entropy T*S    EENTRO =        -0.00000000
  eigenvalues    EBANDS =     -1272.86778418
  atomic energy  EATOM  =     34890.38139807
  Solvation  Ediel_sol  =         0.00000000
  ---------------------------------------------------
  free energy    TOTEN  =      -337.91500850 eV

  energy without entropy =     -337.91500850  energy(sigma->0) =     -337.91500850


--------------------------------------------------------------------------------------------------------




--------------------------------------- Iteration      1(  11)  ---------------------------------------


    POTLOK:  cpu time    0.0758: real time    0.0760
    SETDIJ:  cpu time    0.0092: real time    0.0092
     EDDAV:  cpu time   47.1807: real time   47.2924
    CHARGE:  cpu time    1.8137: real time    1.8180
    MIXING:  cpu time    0.0029: real time    0.0029
    --------------------------------------------
      LOOP:  cpu time   49.0824: real time   49.1986

 eigenvalue-minimisations  : 17584
 total energy-change (2. order) : 0.2630320E+01  (-0.6122221E+00)
 number of electron     396.0000009 magnetization 
 augmentation part      128.8914027 magnetization 

 Broyden mixing:
  rms(total) = 0.13880E+01    rms(broyden)= 0.13877E+01
  rms(prec ) = 0.17760E+01
  weight for this iteration     100.00

 eigenvalues of (default mixing * dielectric matrix)
  average eigenvalue GAMMA=   0.5875
  1.7534  0.5134  0.5134  0.3771  0.2670  0.1011

 Free energy of the ion-electron system (eV)
  ---------------------------------------------------
  alpha Z        PSCENC =      1237.65017714
  Ewald energy   TEWEN  =    -22422.28026072
  -Hartree energ DENC   =    -13045.07817706
  -exchange      EXHF   =         0.00000000
  -V(xc)+E(xc)   XCENC  =      1581.86178053
  PAW double counting   =     38156.48122438   -39461.60513267
  entropy T*S    EENTRO =        -0.00000000
  eigenvalues    EBANDS =     -1272.69569832
  atomic energy  EATOM  =     34890.38139807
  Solvation  Ediel_sol  =         0.00000000
  ---------------------------------------------------
  free energy    TOTEN  =      -335.28468864 eV

  energy without entropy =     -335.28468864  energy(sigma->0) =     -335.28468864


--------------------------------------------------------------------------------------------------------




--------------------------------------- Iteration      1(  12)  ---------------------------------------


    POTLOK:  cpu time    0.0735: real time    0.0736
    SETDIJ:  cpu time    0.0092: real time    0.0092
     EDDAV:  cpu time   49.5783: real time   49.6957
    CHARGE:  cpu time    1.8514: real time    1.8558
    MIXING:  cpu time    0.0029: real time    0.0029
    --------------------------------------------
      LOOP:  cpu time   51.5153: real time   51.6373

 eigenvalue-minimisations  : 18752
 total energy-change (2. order) : 0.9908240E+00  (-0.4031941E+00)
 number of electron     396.0000009 magnetization 
 augmentation part      129.7945356 magnetization 

 Broyden mixing:
  rms(total) = 0.54043E+00    rms(broyden)= 0.54018E+00
  rms(prec ) = 0.66713E+00
  weight for this iteration     100.00

 eigenvalues of (default mixing * dielectric matrix)
  average eigenvalue GAMMA=   0.6214
  1.9215  0.5495  0.5495  0.5036  0.4746  0.2504  0.1008

 Free energy of the ion-electron system (eV)
  ---------------------------------------------------
  alpha Z        PSCENC =      1237.65017714
  Ewald energy   TEWEN  =    -22422.28026072
  -Hartree energ DENC   =    -13048.31029834
  -exchange      EXHF   =         0.00000000
  -V(xc)+E(xc)   XCENC  =      1582.86755909
  PAW double counting   =     38912.21066015   -40224.63131886
  entropy T*S    EENTRO =        -0.00000000
  eigenvalues    EBANDS =     -1262.18178116
  atomic energy  EATOM  =     34890.38139807
  Solvation  Ediel_sol  =         0.00000000
  ---------------------------------------------------
  free energy    TOTEN  =      -334.29386464 eV

  energy without entropy =     -334.29386464  energy(sigma->0) =     -334.29386464


--------------------------------------------------------------------------------------------------------




--------------------------------------- Iteration      1(  13)  ---------------------------------------


    POTLOK:  cpu time    0.0750: real time    0.0752
    SETDIJ:  cpu time    0.0092: real time    0.0092
     EDDAV:  cpu time   48.3669: real time   48.4814
    CHARGE:  cpu time    1.8513: real time    1.8557
    MIXING:  cpu time    0.0033: real time    0.0033
    --------------------------------------------
      LOOP:  cpu time   50.3057: real time   50.4248

 eigenvalue-minimisations  : 18144
 total energy-change (2. order) : 0.1133646E-02  (-0.1233892E+00)
 number of electron     396.0000009 magnetization 
 augmentation part      129.7215468 magnetization 

 Broyden mixing:
  rms(total) = 0.45570E+00    rms(broyden)= 0.45563E+00
  rms(prec ) = 0.55418E+00
  weight for this iteration     100.00

 eigenvalues of (default mixing * dielectric matrix)
  average eigenvalue GAMMA=   0.6370
  2.1418  0.5560  0.5560  0.6421  0.5518  0.1008  0.3010  0.2466

 Free energy of the ion-electron system (eV)
  ---------------------------------------------------
  alpha Z        PSCENC =      1237.65017714
  Ewald energy   TEWEN  =    -22422.28026072
  -Hartree energ DENC   =    -13057.94572299
  -exchange      EXHF   =         0.00000000
  -V(xc)+E(xc)   XCENC  =      1583.49086571
  PAW double counting   =     39323.72272567   -40641.17471845
  entropy T*S    EENTRO =        -0.00000000
  eigenvalues    EBANDS =     -1248.13719541
  atomic energy  EATOM  =     34890.38139807
  Solvation  Ediel_sol  =         0.00000000
  ---------------------------------------------------
  free energy    TOTEN  =      -334.29273099 eV

  energy without entropy =     -334.29273099  energy(sigma->0) =     -334.29273099


--------------------------------------------------------------------------------------------------------




--------------------------------------- Iteration      1(  14)  ---------------------------------------


    POTLOK:  cpu time    0.0763: real time    0.0765
    SETDIJ:  cpu time    0.0092: real time    0.0093
     EDDAV:  cpu time   43.7985: real time   43.9022
    CHARGE:  cpu time    1.8393: real time    1.8436
    MIXING:  cpu time    0.0030: real time    0.0031
    --------------------------------------------
      LOOP:  cpu time   45.7263: real time   45.8346

 eigenvalue-minimisations  : 16048
 total energy-change (2. order) : 0.2945254E-01  (-0.4834552E-01)
 number of electron     396.0000009 magnetization 
 augmentation part      129.7052052 magnetization 

 Broyden mixing:
  rms(total) = 0.29108E+00    rms(broyden)= 0.29103E+00
  rms(prec ) = 0.37346E+00
  weight for this iteration     100.00

 eigenvalues of (default mixing * dielectric matrix)
  average eigenvalue GAMMA=   0.6672
  2.3797  0.7954  0.7954  0.5190  0.5190  0.1008  0.3583  0.2931  0.2437

 Free energy of the ion-electron system (eV)
  ---------------------------------------------------
  alpha Z        PSCENC =      1237.65017714
  Ewald energy   TEWEN  =    -22422.28026072
  -Hartree energ DENC   =    -13062.33010686
  -exchange      EXHF   =         0.00000000
  -V(xc)+E(xc)   XCENC  =      1583.71647247
  PAW double counting   =     39655.13209570   -40976.21140800
  entropy T*S    EENTRO =        -0.00000000
  eigenvalues    EBANDS =     -1240.32164624
  atomic energy  EATOM  =     34890.38139807
  Solvation  Ediel_sol  =         0.00000000
  ---------------------------------------------------
  free energy    TOTEN  =      -334.26327845 eV

  energy without entropy =     -334.26327845  energy(sigma->0) =     -334.26327845


--------------------------------------------------------------------------------------------------------




--------------------------------------- Iteration      1(  15)  ---------------------------------------


    POTLOK:  cpu time    0.0752: real time    0.0754
    SETDIJ:  cpu time    0.0091: real time    0.0091
     EDDAV:  cpu time   41.7742: real time   41.8732
    CHARGE:  cpu time    1.8477: real time    1.8521
    MIXING:  cpu time    0.0034: real time    0.0034
    --------------------------------------------
      LOOP:  cpu time   43.7098: real time   43.8133

 eigenvalue-minimisations  : 15152
 total energy-change (2. order) : 0.2969678E-01  (-0.1247909E-01)
 number of electron     396.0000009 magnetization 
 augmentation part      129.7481812 magnetization 

 Broyden mixing:
  rms(total) = 0.18048E+00    rms(broyden)= 0.18046E+00
  rms(prec ) = 0.23662E+00
  weight for this iteration     100.00

 eigenvalues of (default mixing * dielectric matrix)
  average eigenvalue GAMMA=   0.6922
  2.4716  0.9727  0.9727  0.5201  0.5201  0.4315  0.4315  0.1008  0.2631  0.2380

 Free energy of the ion-electron system (eV)
  ---------------------------------------------------
  alpha Z        PSCENC =      1237.65017714
  Ewald energy   TEWEN  =    -22422.28026072
  -Hartree energ DENC   =    -13064.03527699
  -exchange      EXHF   =         0.00000000
  -V(xc)+E(xc)   XCENC  =      1583.77857051
  PAW double counting   =     39926.81380559   -41250.08856327
  entropy T*S    EENTRO =        -0.00000000
  eigenvalues    EBANDS =     -1236.45343199
  atomic energy  EATOM  =     34890.38139807
  Solvation  Ediel_sol  =         0.00000000
  ---------------------------------------------------
  free energy    TOTEN  =      -334.23358167 eV

  energy without entropy =     -334.23358167  energy(sigma->0) =     -334.23358167


--------------------------------------------------------------------------------------------------------




--------------------------------------- Iteration      1(  16)  ---------------------------------------


    POTLOK:  cpu time    0.0751: real time    0.0753
    SETDIJ:  cpu time    0.0091: real time    0.0091
     EDDAV:  cpu time   45.8132: real time   45.9217
    CHARGE:  cpu time    1.8056: real time    1.8099
    MIXING:  cpu time    0.0037: real time    0.0037
    --------------------------------------------
      LOOP:  cpu time   47.7067: real time   47.8197

 eigenvalue-minimisations  : 17216
 total energy-change (2. order) : 0.6373429E-02  (-0.4689335E-02)
 number of electron     396.0000009 magnetization 
 augmentation part      129.7569375 magnetization 

 Broyden mixing:
  rms(total) = 0.12986E+00    rms(broyden)= 0.12984E+00
  rms(prec ) = 0.17933E+00
  weight for this iteration     100.00

 eigenvalues of (default mixing * dielectric matrix)
  average eigenvalue GAMMA=   0.7170
  2.5753  1.1608  1.1608  0.5314  0.5314  0.5500  0.4355  0.1008  0.3361  0.2653
  0.2397

 Free energy of the ion-electron system (eV)
  ---------------------------------------------------
  alpha Z        PSCENC =      1237.65017714
  Ewald energy   TEWEN  =    -22422.28026072
  -Hartree energ DENC   =    -13065.08344567
  -exchange      EXHF   =         0.00000000
  -V(xc)+E(xc)   XCENC  =      1583.77504103
  PAW double counting   =     40020.79790328   -41344.16819748
  entropy T*S    EENTRO =        -0.00000000
  eigenvalues    EBANDS =     -1235.29982389
  atomic energy  EATOM  =     34890.38139807
  Solvation  Ediel_sol  =         0.00000000
  ---------------------------------------------------
  free energy    TOTEN  =      -334.22720824 eV

  energy without entropy =     -334.22720824  energy(sigma->0) =     -334.22720824


--------------------------------------------------------------------------------------------------------




--------------------------------------- Iteration      1(  17)  ---------------------------------------


    POTLOK:  cpu time    0.0739: real time    0.0741
    SETDIJ:  cpu time    0.0091: real time    0.0091
     EDDAV:  cpu time   44.5927: real time   44.6983
    CHARGE:  cpu time    1.7070: real time    1.7111
    MIXING:  cpu time    0.0034: real time    0.0034
    --------------------------------------------
      LOOP:  cpu time   46.3861: real time   46.4960

 eigenvalue-minimisations  : 17744
 total energy-change (2. order) : 0.6664561E-02  (-0.2531507E-02)
 number of electron     396.0000009 magnetization 
 augmentation part      129.7545393 magnetization 

 Broyden mixing:
  rms(total) = 0.96580E-01    rms(broyden)= 0.96570E-01
  rms(prec ) = 0.13281E+00
  weight for this iteration     100.00

 eigenvalues of (default mixing * dielectric matrix)
  average eigenvalue GAMMA=   0.7375
  2.6280  1.7116  0.9385  0.6075  0.6075  0.5352  0.5352  0.1008  0.3738  0.3134
  0.2603  0.2377

 Free energy of the ion-electron system (eV)
  ---------------------------------------------------
  alpha Z        PSCENC =      1237.65017714
  Ewald energy   TEWEN  =    -22422.28026072
  -Hartree energ DENC   =    -13066.28550003
  -exchange      EXHF   =         0.00000000
  -V(xc)+E(xc)   XCENC  =      1583.77703027
  PAW double counting   =     40063.54943480   -41386.51684600
  entropy T*S    EENTRO =        -0.00000000
  eigenvalues    EBANDS =     -1234.49597720
  atomic energy  EATOM  =     34890.38139807
  Solvation  Ediel_sol  =         0.00000000
  ---------------------------------------------------
  free energy    TOTEN  =      -334.22054368 eV

  energy without entropy =     -334.22054368  energy(sigma->0) =     -334.22054368


--------------------------------------------------------------------------------------------------------




--------------------------------------- Iteration      1(  18)  ---------------------------------------


    POTLOK:  cpu time    0.0761: real time    0.0763
    SETDIJ:  cpu time    0.0093: real time    0.0093
     EDDAV:  cpu time   37.3663: real time   37.4548
    CHARGE:  cpu time    1.2527: real time    1.2556
    MIXING:  cpu time    0.0031: real time    0.0031
    --------------------------------------------
      LOOP:  cpu time   38.7076: real time   38.7992

 eigenvalue-minimisations  : 17824
 total energy-change (2. order) : 0.3632139E-02  (-0.7729057E-03)
 number of electron     396.0000009 magnetization 
 augmentation part      129.7573520 magnetization 

 Broyden mixing:
  rms(total) = 0.69594E-01    rms(broyden)= 0.69590E-01
  rms(prec ) = 0.96502E-01
  weight for this iteration     100.00

 eigenvalues of (default mixing * dielectric matrix)
  average eigenvalue GAMMA=   0.7664
  2.6788  2.1227  0.8160  0.8070  0.8070  0.5220  0.5220  0.1008  0.3968  0.3968
  0.2941  0.2609  0.2386

 Free energy of the ion-electron system (eV)
  ---------------------------------------------------
  alpha Z        PSCENC =      1237.65017714
  Ewald energy   TEWEN  =    -22422.28026072
  -Hartree energ DENC   =    -13067.19120832
  -exchange      EXHF   =         0.00000000
  -V(xc)+E(xc)   XCENC  =      1583.78861305
  PAW double counting   =     40067.95169533   -41390.36696300
  entropy T*S    EENTRO =        -0.00000000
  eigenvalues    EBANDS =     -1234.15036309
  atomic energy  EATOM  =     34890.38139807
  Solvation  Ediel_sol  =         0.00000000
  ---------------------------------------------------
  free energy    TOTEN  =      -334.21691154 eV

  energy without entropy =     -334.21691154  energy(sigma->0) =     -334.21691154


--------------------------------------------------------------------------------------------------------




--------------------------------------- Iteration      1(  19)  ---------------------------------------


    POTLOK:  cpu time    0.0588: real time    0.0589
    SETDIJ:  cpu time    0.0079: real time    0.0079
     EDDAV:  cpu time   34.3733: real time   34.4546
    CHARGE:  cpu time    1.2116: real time    1.2145
    MIXING:  cpu time    0.0030: real time    0.0030
    --------------------------------------------
      LOOP:  cpu time   35.6546: real time   35.7389

 eigenvalue-minimisations  : 17376
 total energy-change (2. order) : 0.1853079E-02  (-0.4316910E-03)
 number of electron     396.0000009 magnetization 
 augmentation part      129.7621858 magnetization 

 Broyden mixing:
  rms(total) = 0.52640E-01    rms(broyden)= 0.52635E-01
  rms(prec ) = 0.73126E-01
  weight for this iteration     100.00

 eigenvalues of (default mixing * dielectric matrix)
  average eigenvalue GAMMA=   0.7984
  2.6379  2.6379  0.9638  0.9638  0.8165  0.5235  0.5235  0.4900  0.1008  0.4107
  0.3394  0.2379  0.2723  0.2592

 Free energy of the ion-electron system (eV)
  ---------------------------------------------------
  alpha Z        PSCENC =      1237.65017714
  Ewald energy   TEWEN  =    -22422.28026072
  -Hartree energ DENC   =    -13067.94610586
  -exchange      EXHF   =         0.00000000
  -V(xc)+E(xc)   XCENC  =      1583.81569992
  PAW double counting   =     40061.94109017   -41383.91411017
  entropy T*S    EENTRO =        -0.00000000
  eigenvalues    EBANDS =     -1233.86294701
  atomic energy  EATOM  =     34890.38139807
  Solvation  Ediel_sol  =         0.00000000
  ---------------------------------------------------
  free energy    TOTEN  =      -334.21505846 eV

  energy without entropy =     -334.21505846  energy(sigma->0) =     -334.21505846


--------------------------------------------------------------------------------------------------------




--------------------------------------- Iteration      1(  20)  ---------------------------------------


    POTLOK:  cpu time    0.0583: real time    0.0585
    SETDIJ:  cpu time    0.0077: real time    0.0077
     EDDAV:  cpu time   36.0883: real time   36.1737
    CHARGE:  cpu time    1.2093: real time    1.2121
    MIXING:  cpu time    0.0030: real time    0.0030
    --------------------------------------------
      LOOP:  cpu time   37.3665: real time   37.4550

 eigenvalue-minimisations  : 18560
 total energy-change (2. order) : 0.1507043E-02  (-0.2131887E-03)
 number of electron     396.0000009 magnetization 
 augmentation part      129.7638341 magnetization 

 Broyden mixing:
  rms(total) = 0.36092E-01    rms(broyden)= 0.36088E-01
  rms(prec ) = 0.50346E-01
  weight for this iteration     100.00

 eigenvalues of (default mixing * dielectric matrix)
  average eigenvalue GAMMA=   0.8130
  2.9012  2.6176  1.1128  1.1128  0.7941  0.5265  0.5265  0.5696  0.1008  0.4699
  0.3883  0.3162  0.2385  0.2679  0.2528

 Free energy of the ion-electron system (eV)
  ---------------------------------------------------
  alpha Z        PSCENC =      1237.65017714
  Ewald energy   TEWEN  =    -22422.28026072
  -Hartree energ DENC   =    -13068.59324277
  -exchange      EXHF   =         0.00000000
  -V(xc)+E(xc)   XCENC  =      1583.85035022
  PAW double counting   =     40050.78138179   -41372.41174539
  entropy T*S    EENTRO =        -0.00000000
  eigenvalues    EBANDS =     -1233.59160976
  atomic energy  EATOM  =     34890.38139807
  Solvation  Ediel_sol  =         0.00000000
  ---------------------------------------------------
  free energy    TOTEN  =      -334.21355142 eV

  energy without entropy =     -334.21355142  energy(sigma->0) =     -334.21355142


--------------------------------------------------------------------------------------------------------




--------------------------------------- Iteration      1(  21)  ---------------------------------------


    POTLOK:  cpu time    0.0587: real time    0.0589
    SETDIJ:  cpu time    0.0084: real time    0.0084
     EDDAV:  cpu time   34.6706: real time   34.7527
    CHARGE:  cpu time    1.2208: real time    1.2237
    MIXING:  cpu time    0.0031: real time    0.0031
    --------------------------------------------
      LOOP:  cpu time   35.9617: real time   36.0468

 eigenvalue-minimisations  : 17136
 total energy-change (2. order) : 0.7923735E-03  (-0.1202140E-03)
 number of electron     396.0000009 magnetization 
 augmentation part      129.7665127 magnetization 

 Broyden mixing:
  rms(total) = 0.23438E-01    rms(broyden)= 0.23436E-01
  rms(prec ) = 0.32949E-01
  weight for this iteration     100.00

 eigenvalues of (default mixing * dielectric matrix)
  average eigenvalue GAMMA=   0.8379
  3.3175  2.5500  1.4681  1.0942  0.7277  0.7277  0.5258  0.5258  0.5210  0.1008
  0.3864  0.3864  0.3152  0.2381  0.2663  0.2549

 Free energy of the ion-electron system (eV)
  ---------------------------------------------------
  alpha Z        PSCENC =      1237.65017714
  Ewald energy   TEWEN  =    -22422.28026072
  -Hartree energ DENC   =    -13069.10335647
  -exchange      EXHF   =         0.00000000
  -V(xc)+E(xc)   XCENC  =      1583.88505339
  PAW double counting   =     40048.56220437   -41370.08440045
  entropy T*S    EENTRO =        -0.00000000
  eigenvalues    EBANDS =     -1233.22357437
  atomic energy  EATOM  =     34890.38139807
  Solvation  Ediel_sol  =         0.00000000
  ---------------------------------------------------
  free energy    TOTEN  =      -334.21275904 eV

  energy without entropy =     -334.21275904  energy(sigma->0) =     -334.21275904


--------------------------------------------------------------------------------------------------------




--------------------------------------- Iteration      1(  22)  ---------------------------------------


    POTLOK:  cpu time    0.0584: real time    0.0585
    SETDIJ:  cpu time    0.0077: real time    0.0077
     EDDAV:  cpu time   37.0664: real time   37.1541
    CHARGE:  cpu time    1.2142: real time    1.2171
    MIXING:  cpu time    0.0032: real time    0.0032
    --------------------------------------------
      LOOP:  cpu time   38.3500: real time   38.4407

 eigenvalue-minimisations  : 18544
 total energy-change (2. order) : 0.2845183E-03  (-0.9093869E-04)
 number of electron     396.0000009 magnetization 
 augmentation part      129.7665760 magnetization 

 Broyden mixing:
  rms(total) = 0.17281E-01    rms(broyden)= 0.17278E-01
  rms(prec ) = 0.24058E-01
  weight for this iteration     100.00

 eigenvalues of (default mixing * dielectric matrix)
  average eigenvalue GAMMA=   0.8642
  3.7967  2.3937  1.9380  1.0917  0.7973  0.7973  0.5260  0.5260  0.5347  0.1008
  0.4169  0.4169  0.3278  0.2815  0.2620  0.2385  0.2461

 Free energy of the ion-electron system (eV)
  ---------------------------------------------------
  alpha Z        PSCENC =      1237.65017714
  Ewald energy   TEWEN  =    -22422.28026072
  -Hartree energ DENC   =    -13069.40192440
  -exchange      EXHF   =         0.00000000
  -V(xc)+E(xc)   XCENC  =      1583.90788348
  PAW double counting   =     40048.38832714   -41369.87639004
  entropy T*S    EENTRO =        -0.00000000
  eigenvalues    EBANDS =     -1232.98168520
  atomic energy  EATOM  =     34890.38139807
  Solvation  Ediel_sol  =         0.00000000
  ---------------------------------------------------
  free energy    TOTEN  =      -334.21247453 eV

  energy without entropy =     -334.21247453  energy(sigma->0) =     -334.21247453


--------------------------------------------------------------------------------------------------------




--------------------------------------- Iteration      1(  23)  ---------------------------------------


    POTLOK:  cpu time    0.0587: real time    0.0589
    SETDIJ:  cpu time    0.0077: real time    0.0077
     EDDAV:  cpu time   37.0387: real time   37.1263
    CHARGE:  cpu time    1.2140: real time    1.2168
    MIXING:  cpu time    0.0035: real time    0.0035
    --------------------------------------------
      LOOP:  cpu time   38.3225: real time   38.4132

 eigenvalue-minimisations  : 18576
 total energy-change (2. order) : 0.2281036E-03  (-0.4310971E-04)
 number of electron     396.0000009 magnetization 
 augmentation part      129.7685640 magnetization 

 Broyden mixing:
  rms(total) = 0.92282E-02    rms(broyden)= 0.92264E-02
  rms(prec ) = 0.12552E-01
  weight for this iteration     100.00

 eigenvalues of (default mixing * dielectric matrix)
  average eigenvalue GAMMA=   0.8675
  3.8193  2.2712  2.2712  0.9444  0.8760  0.8760  0.5279  0.5279  0.6052  0.6052
  0.1008  0.4516  0.3885  0.3229  0.2382  0.2756  0.2627  0.2509

 Free energy of the ion-electron system (eV)
  ---------------------------------------------------
  alpha Z        PSCENC =      1237.65017714
  Ewald energy   TEWEN  =    -22422.28026072
  -Hartree energ DENC   =    -13069.57412113
  -exchange      EXHF   =         0.00000000
  -V(xc)+E(xc)   XCENC  =      1583.92446460
  PAW double counting   =     40050.14827522   -41371.64801289
  entropy T*S    EENTRO =        -0.00000000
  eigenvalues    EBANDS =     -1232.81416670
  atomic energy  EATOM  =     34890.38139807
  Solvation  Ediel_sol  =         0.00000000
  ---------------------------------------------------
  free energy    TOTEN  =      -334.21224642 eV

  energy without entropy =     -334.21224642  energy(sigma->0) =     -334.21224642


--------------------------------------------------------------------------------------------------------




--------------------------------------- Iteration      1(  24)  ---------------------------------------


    POTLOK:  cpu time    0.0588: real time    0.0589
    SETDIJ:  cpu time    0.0076: real time    0.0076
     EDDAV:  cpu time   29.2569: real time   29.3262
    CHARGE:  cpu time    1.2014: real time    1.2042
    MIXING:  cpu time    0.0035: real time    0.0035
    --------------------------------------------
      LOOP:  cpu time   30.5282: real time   30.6005

 eigenvalue-minimisations  : 13808
 total energy-change (2. order) : 0.3616369E-06  (-0.4406625E-04)
 number of electron     396.0000009 magnetization 
 augmentation part      129.7699292 magnetization 

 Broyden mixing:
  rms(total) = 0.78643E-02    rms(broyden)= 0.78638E-02
  rms(prec ) = 0.10724E-01
  weight for this iteration     100.00

 eigenvalues of (default mixing * dielectric matrix)
  average eigenvalue GAMMA=   0.8693
  3.8456  2.3220  2.3220  1.1131  1.1131  0.7800  0.7800  0.5256  0.5256  0.5772
  0.1008  0.4354  0.3767  0.3767  0.3084  0.2709  0.2600  0.2383  0.2463

 Free energy of the ion-electron system (eV)
  ---------------------------------------------------
  alpha Z        PSCENC =      1237.65017714
  Ewald energy   TEWEN  =    -22422.28026072
  -Hartree energ DENC   =    -13069.43727440
  -exchange      EXHF   =         0.00000000
  -V(xc)+E(xc)   XCENC  =      1583.91866391
  PAW double counting   =     40049.92319338   -41371.43147972
  entropy T*S    EENTRO =        -0.00000000
  eigenvalues    EBANDS =     -1232.93666372
  atomic energy  EATOM  =     34890.38139807
  Solvation  Ediel_sol  =         0.00000000
  ---------------------------------------------------
  free energy    TOTEN  =      -334.21224606 eV

  energy without entropy =     -334.21224606  energy(sigma->0) =     -334.21224606


--------------------------------------------------------------------------------------------------------




--------------------------------------- Iteration      1(  25)  ---------------------------------------


    POTLOK:  cpu time    0.0587: real time    0.0588
    SETDIJ:  cpu time    0.0077: real time    0.0077
     EDDAV:  cpu time   28.3796: real time   28.4468
    CHARGE:  cpu time    1.2130: real time    1.2159
    MIXING:  cpu time    0.0036: real time    0.0036
    --------------------------------------------
      LOOP:  cpu time   29.6625: real time   29.7328

 eigenvalue-minimisations  : 13248
 total energy-change (2. order) : 0.2860304E-04  (-0.1025550E-04)
 number of electron     396.0000009 magnetization 
 augmentation part      129.7694274 magnetization 

 Broyden mixing:
  rms(total) = 0.58722E-02    rms(broyden)= 0.58718E-02
  rms(prec ) = 0.81851E-02
  weight for this iteration     100.00

 eigenvalues of (default mixing * dielectric matrix)
  average eigenvalue GAMMA=   0.8697
  3.9482  2.3659  2.3659  1.2465  1.2465  0.7784  0.7784  0.5243  0.5243  0.6033
  0.1008  0.4253  0.4253  0.4041  0.3187  0.3187  0.2382  0.2716  0.2604  0.2500

 Free energy of the ion-electron system (eV)
  ---------------------------------------------------
  alpha Z        PSCENC =      1237.65017714
  Ewald energy   TEWEN  =    -22422.28026072
  -Hartree energ DENC   =    -13069.26122192
  -exchange      EXHF   =         0.00000000
  -V(xc)+E(xc)   XCENC  =      1583.90701307
  PAW double counting   =     40049.41368068   -41370.92268038
  entropy T*S    EENTRO =        -0.00000000
  eigenvalues    EBANDS =     -1233.10032340
  atomic energy  EATOM  =     34890.38139807
  Solvation  Ediel_sol  =         0.00000000
  ---------------------------------------------------
  free energy    TOTEN  =      -334.21221746 eV

  energy without entropy =     -334.21221746  energy(sigma->0) =     -334.21221746


--------------------------------------------------------------------------------------------------------




--------------------------------------- Iteration      1(  26)  ---------------------------------------


    POTLOK:  cpu time    0.0607: real time    0.0609
    SETDIJ:  cpu time    0.0082: real time    0.0083
     EDDAV:  cpu time   22.7702: real time   22.8254
    CHARGE:  cpu time    1.3003: real time    1.3034
    MIXING:  cpu time    0.0045: real time    0.0082
    --------------------------------------------
      LOOP:  cpu time   24.1439: real time   24.2060

 eigenvalue-minimisations  :  9296
 total energy-change (2. order) : 0.2424158E-04  (-0.2953730E-05)
 number of electron     396.0000009 magnetization 
 augmentation part      129.7682328 magnetization 

 Broyden mixing:
  rms(total) = 0.38629E-02    rms(broyden)= 0.38625E-02
  rms(prec ) = 0.54987E-02
[...]
  0.142   0.101  -0.079  -0.096  -0.165  -0.159  -0.121   0.076   0.120   0.176  -0.098   0.028   0.577  -0.013   0.001  -0.099
 -0.090   0.129  -0.006   0.171  -0.070   0.115  -0.134   0.006  -0.203   0.077  -0.036   0.009  -0.013   0.421  -0.006   0.002
  0.073  -0.122  -0.037  -0.009   0.082  -0.069   0.139   0.037   0.008  -0.100  -0.136   0.034   0.001  -0.006   0.584  -0.001
 -0.027  -0.022   0.018   0.024   0.037   0.031   0.025  -0.016  -0.027  -0.037   0.023  -0.008  -0.099   0.002  -0.001   0.023
  0.024  -0.024   0.002  -0.036   0.010  -0.027   0.024  -0.002   0.041  -0.013   0.008  -0.002   0.002  -0.066   0.001  -0.001
 -0.017   0.024   0.008  -0.004  -0.020   0.014  -0.027  -0.008   0.002   0.022   0.031  -0.010  -0.001   0.001  -0.100   0.000


------------------------ aborting loop because EDIFF is reached ----------------------------------------


    CHARGE:  cpu time    1.8798: real time    1.8843
    FORLOC:  cpu time    0.0346: real time    0.0360
    FORNL :  cpu time   11.1110: real time   11.1374
    STRESS:  cpu time   33.0836: real time   33.1629
    FORCOR:  cpu time    0.0977: real time    0.0979
    FORHAR:  cpu time    0.0453: real time    0.0454
    MIXING:  cpu time    0.0048: real time    0.0048
    OFIELD:  cpu time    0.0001: real time    0.0001

  FORCE on cell =-STRESS in cart. coord.  units (eV):
  Direction    XX          YY          ZZ          XY          YZ          ZX
  --------------------------------------------------------------------------------------
  Alpha Z  1237.65018  1237.65018  1237.65018
  Ewald   -1357.71670 -1322.47425-19742.23560   -65.61615    35.88497    42.45940
  Hartree  8729.00023  8732.23796 -4392.02854   -26.00837    14.82461    17.27209
  E(xc)   -2021.86749 -2021.94722 -2025.40881     0.04929    -0.05807    -0.07712
  Local  -15057.79229-15090.97901 16135.58304    86.59094   -47.91381   -58.09449
  n-local  -848.26463  -845.91163  -883.53456    -1.62699     1.31450     1.57331
  augment  3337.18075  3334.81247  3432.07784     2.51213    -1.33209    -0.85181
  Kinetic  5989.57697  5987.38250  6244.34221     2.30361     0.42194     1.00897
  Fock        0.00000     0.00000     0.00000     0.00000     0.00000     0.00000
  -------------------------------------------------------------------------------------
  Total        7.7670139     10.7710001      6.4457525     -1.7955368      3.1420418      3.2903577
  in kB       22.2025931     30.7897135     18.4256681     -5.1326768      8.9817629      9.4057350
  external PRESSURE =      23.8059915 kB  Pullay stress =       0.0000000 kB


 VOLUME and BASIS-vectors are now :
 -----------------------------------------------------------------------------
  energy-cutoff  :      500.00
  volume of cell :      560.48
      direct lattice vectors                 reciprocal lattice vectors
     8.362870000  0.000000000  0.000000000     0.119576174  0.069037336  0.000000000
    -4.181435000  7.242457870  0.000000000     0.000000000  0.138074673  0.000000000
     0.000000000  0.000000000  9.253790000     0.000000000  0.000000000  0.108063831

  length of vectors
     8.362870000  8.362870001  9.253790000     0.138074673  0.138074673  0.108063831


 FORCES acting on ions
    electron-ion (+dipol)            ewald-force                    non-local-force                 convergence-correction
 -----------------------------------------------------------------------------------------------
   -.289E+02 -.486E+02 -.439E+01   0.295E+02 0.501E+02 0.458E+01   0.373E+00 -.457E+00 0.255E+00   0.313E-02 -.832E-02 0.388E-02
   0.866E+01 0.260E+02 -.929E+01   -.755E+01 -.267E+02 0.102E+02   0.310E+00 -.109E-02 0.217E+00   0.273E-02 0.318E-02 0.145E-02
   -.458E+01 0.716E+02 0.345E+02   0.441E+01 -.748E+02 -.343E+02   -.963E-01 -.752E-02 -.397E-02   0.464E-02 0.782E-03 0.492E-02
   -.449E+02 0.431E+02 0.334E+01   0.463E+02 -.446E+02 -.358E+01   -.306E+00 -.139E+00 -.657E-01   0.185E-01 -.493E-02 -.146E-02
   -.331E+02 -.217E+02 0.339E+01   0.348E+02 0.223E+02 -.328E+01   -.140E+00 -.242E+00 -.525E+00   -.146E-02 0.115E-01 0.183E-02
   -.258E+02 -.518E+02 -.336E+02   0.269E+02 0.545E+02 0.344E+02   -.262E+00 -.198E+00 0.340E+00   0.729E-02 0.179E-01 -.715E-03
   -.240E+02 -.183E+02 0.179E+02   0.257E+02 0.196E+02 -.171E+02   0.149E+00 -.128E+00 0.722E+00   -.413E-02 -.891E-02 0.536E-02
   0.418E+02 0.795E+02 0.165E+02   -.451E+02 -.846E+02 -.173E+02   -.293E+00 0.295E+00 0.222E+00   -.141E-01 -.132E-01 -.400E-02
   0.412E+02 0.167E+02 0.355E+02   -.421E+02 -.170E+02 -.348E+02   0.338E+00 0.798E-01 -.491E-01   -.117E-02 -.918E-03 0.432E-02
   0.522E+01 0.131E+02 0.252E+01   -.556E+01 -.141E+02 -.294E+01   0.552E+00 -.142E+00 -.225E+00   -.175E-01 -.778E-02 -.307E-02
   -.321E+02 0.209E+02 -.163E+02   0.326E+02 -.223E+02 0.167E+02   -.684E+00 -.123E+00 -.457E+00   0.494E-03 0.693E-02 0.781E-03
   0.456E+02 -.367E+01 -.371E+02   -.469E+02 0.402E+01 0.374E+02   0.116E+00 -.175E+00 0.738E+00   -.296E-02 -.452E-03 -.580E-02
   0.245E+01 -.429E+02 0.102E+01   -.293E+01 0.458E+02 -.697E+00   0.144E+00 -.546E-01 0.729E+00   0.119E-02 -.117E-01 0.353E-02
   -.553E+02 0.215E+02 0.652E+01   0.572E+02 -.228E+02 -.658E+01   -.502E+00 0.282E+00 -.503E+00   0.112E-01 -.112E-01 -.120E-02
   -.688E+01 0.802E+02 -.245E+02   0.739E+01 -.846E+02 0.255E+02   -.136E+00 0.560E+00 0.347E+00   -.364E-02 0.357E-02 0.505E-02
   0.261E+02 -.131E+02 -.991E+01   -.263E+02 0.140E+02 0.914E+01   -.816E-01 -.505E-01 -.147E+01   -.144E-02 -.168E-02 -.243E-03
   0.930E+02 -.286E+02 0.196E+02   -.968E+02 0.289E+02 -.195E+02   0.288E+00 -.126E+00 -.173E+00   0.227E-03 0.807E-02 -.396E-03
   0.333E+01 -.889E+02 -.342E+01   -.392E+01 0.928E+02 0.502E+01   -.295E+00 -.420E+00 0.920E+00   -.431E-02 0.161E-01 -.431E-03
   -.359E+01 0.356E+02 -.354E+03   0.379E+01 -.365E+02 0.381E+03   0.411E+00 -.170E+00 -.271E+02   -.402E-02 -.385E-02 0.308E-03
   0.178E+02 0.940E+01 0.370E+03   -.185E+02 -.986E+01 -.397E+03   0.514E+00 0.851E+00 0.265E+02   -.755E-02 -.294E-02 -.738E-03
   0.220E+02 0.707E+01 -.371E+03   -.227E+02 -.747E+01 0.398E+03   -.391E+00 0.714E+00 -.274E+02   0.858E-03 -.546E-02 -.275E-02
   0.441E+02 0.566E+01 0.367E+03   -.472E+02 -.503E+01 -.395E+03   0.106E+01 -.669E+00 0.279E+02   0.164E-02 -.115E-01 0.542E-02
   -.146E+02 -.186E+02 -.379E+03   0.160E+02 0.205E+02 0.408E+03   -.138E+01 -.695E+00 -.281E+02   0.544E-02 0.200E-02 -.488E-02
   0.244E+02 0.184E+01 0.367E+03   -.258E+02 -.218E+01 -.396E+03   0.386E+00 0.730E+00 0.283E+02   0.497E-03 -.633E-03 -.184E-02
   -.259E+02 -.321E+02 -.383E+03   0.272E+02 0.346E+02 0.411E+03   -.591E+00 -.130E+01 -.284E+02   0.720E-02 0.864E-03 0.276E-02
   -.241E+02 -.143E+02 0.380E+03   0.259E+02 0.165E+02 -.407E+03   -.726E+00 -.112E+01 0.273E+02   -.441E-02 0.625E-02 0.464E-02
   0.163E+02 -.295E+02 -.367E+03   -.168E+02 0.313E+02 0.395E+03   -.557E+00 -.112E+01 -.278E+02   0.164E-02 0.416E-02 -.609E-02
   -.689E+01 0.817E+00 0.344E+03   0.686E+01 0.490E+00 -.370E+03   0.135E+01 -.192E+01 0.256E+02   0.325E-02 0.184E-02 -.615E-02
   0.419E+01 0.103E+02 -.360E+03   -.318E+01 -.100E+02 0.385E+03   -.120E+01 -.404E+00 -.249E+02   -.497E-02 0.583E-02 0.188E-02
   0.143E+02 0.139E+02 0.380E+03   -.159E+02 -.166E+02 -.409E+03   0.749E+00 0.228E+01 0.268E+02   0.384E-02 0.484E-02 0.863E-02
   -.487E+01 0.210E+02 -.371E+03   0.588E+01 -.221E+02 0.397E+03   -.899E+00 0.107E+01 -.269E+02   -.886E-04 -.814E-02 -.176E-02
   -.200E+02 -.190E+02 0.403E+03   0.222E+02 0.216E+02 -.434E+03   -.152E+01 -.121E+01 0.299E+02   -.884E-03 -.141E-01 -.103E-01
   0.832E+01 -.339E+02 -.388E+03   -.103E+02 0.371E+02 0.419E+03   0.309E+01 -.201E+00 -.290E+02   -.154E-01 -.766E-02 0.545E-02
   -.758E+01 0.160E+02 0.349E+03   0.758E+01 -.156E+02 -.374E+03   -.691E-01 -.995E+00 0.261E+02   -.441E-02 -.714E-02 0.660E-02
   0.159E+01 -.152E+02 -.353E+03   -.753E+00 0.153E+02 0.380E+03   -.420E+00 0.733E+00 -.274E+02   0.322E-03 0.106E-01 -.562E-02
   -.133E+02 0.530E+02 0.382E+03   0.146E+02 -.596E+02 -.411E+03   -.756E+00 0.330E+01 0.290E+02   -.121E-01 0.282E-03 -.112E-01
   0.107E+02 -.203E+02 -.393E+03   -.106E+02 0.226E+02 0.421E+03   -.472E+00 -.200E+01 -.280E+02   -.815E-02 -.980E-03 0.334E-02
   0.393E+02 -.188E+02 0.394E+03   -.417E+02 0.202E+02 -.423E+03   0.151E+01 -.196E+00 0.284E+02   0.210E-02 0.109E-01 0.709E-02
   -.123E+02 -.214E+02 -.372E+03   0.121E+02 0.240E+02 0.400E+03   0.726E+00 -.259E+01 -.281E+02   -.428E-02 -.518E-02 -.741E-02
   -.190E+02 -.200E+02 0.361E+03   0.208E+02 0.215E+02 -.388E+03   -.895E+00 -.104E+01 0.270E+02   -.513E-02 0.170E-02 -.538E-02
   0.287E+01 0.351E+02 -.383E+03   -.331E+01 -.372E+02 0.411E+03   0.699E+00 0.183E+01 -.281E+02   -.266E-03 -.479E-02 0.176E-02
   -.104E+02 0.302E+02 0.376E+03   0.115E+02 -.338E+02 -.405E+03   -.667E+00 0.240E+01 0.282E+02   0.150E-02 -.410E-02 0.103E-01
   -.503E+01 0.393E+02 -.359E+03   0.516E+01 -.415E+02 0.385E+03   -.625E-01 0.183E+01 -.260E+02   0.399E-02 -.656E-03 -.199E-02
   0.110E+02 0.470E+00 0.365E+03   -.130E+02 0.588E+00 -.392E+03   0.111E+01 -.703E+00 0.275E+02   0.824E-02 -.390E-02 0.152E-03
   -.286E+02 0.118E+02 -.370E+03   0.311E+02 -.123E+02 0.399E+03   -.204E+01 0.139E+00 -.274E+02   0.150E-01 -.866E-02 0.680E-02
   -.871E+01 -.758E+01 0.357E+03   0.880E+01 0.962E+01 -.384E+03   -.172E+00 -.190E+01 0.267E+02   0.373E-02 -.375E-02 0.496E-02
   -.103E+02 0.488E+01 -.404E+03   0.113E+02 -.608E+01 0.435E+03   -.170E+00 0.954E+00 -.300E+02   -.683E-02 0.772E-02 -.921E-02
   0.852E+01 0.174E+02 0.384E+03   -.110E+02 -.194E+02 -.413E+03   0.174E+01 0.140E+01 0.282E+02   0.128E-01 0.327E-02 -.102E-01
   0.161E+02 -.190E+02 -.389E+03   -.176E+02 0.208E+02 0.418E+03   0.815E+00 -.217E+01 -.284E+02   0.855E-03 0.126E-01 0.126E-01
   -.235E+02 -.116E+02 0.395E+03   0.247E+02 0.132E+02 -.425E+03   -.460E+00 0.674E-01 0.290E+02   0.267E-02 0.242E-02 0.607E-02
   0.143E+02 -.213E+02 -.372E+03   -.157E+02 0.219E+02 0.400E+03   0.113E+01 -.561E+00 -.279E+02   0.316E-02 -.610E-02 -.822E-02
   0.206E+01 -.324E+02 0.355E+03   -.100E+01 0.343E+02 -.383E+03   -.169E+01 -.143E+01 0.272E+02   0.165E-02 0.136E-01 -.510E-02
   -.179E+02 0.577E+01 -.362E+03   0.188E+02 -.749E+01 0.388E+03   -.948E-01 0.176E+01 -.268E+02   0.494E-02 0.667E-02 0.262E-02
   -.117E+02 -.349E+02 0.396E+03   0.132E+02 0.365E+02 -.426E+03   -.902E+00 -.941E+00 0.286E+02   -.637E-02 0.152E-02 0.970E-02
 -----------------------------------------------------------------------------------------------
   0.138E+01 0.433E+01 -.176E+01   -.114E-12 0.000E+00 0.114E-12   -.138E+01 -.432E+01 0.174E+01   -.794E-03 -.358E-02 0.160E-01
 
 
 POSITION                                       TOTAL-FORCE (eV/Angst)
 -----------------------------------------------------------------------------------
      4.16484      7.22912      0.00324         0.976143      0.993020      0.449844
      4.14979      7.23371      4.59637         1.428674     -0.763798      1.140158
     -1.42488      2.48810      9.22557        -0.263553     -3.278354      0.207587
     -1.39724      2.42565      4.62164         1.071687     -1.701593     -0.305924
      5.53592      4.79158      0.04798         1.543227      0.377049     -0.418698
      5.56158      4.75799      4.62894         0.879843      2.467131      1.125012
     -1.41672      7.21444      9.21639         1.776835      1.141151      1.509870
      2.84897      0.07910      4.60949        -3.572940     -4.813983     -0.542040
      1.38842      2.40575      9.22312        -0.542808     -0.195635      0.647295
      1.39540      2.43860      4.61634         0.195546     -1.176636     -0.645323
      0.02065      4.85580      0.04402        -0.179993     -1.513875     -0.014300
     -0.00373      4.81166      4.61810        -1.168104      0.178846      1.077643
      1.39313      7.19484      9.21037        -0.332520      2.850807      1.054560
      5.53228      0.00058      4.62333         1.400708     -0.992686     -0.559025
      4.15447      2.47771      9.23589         0.365419     -3.881643      1.398677
      4.16065      2.38638      4.67764        -0.277008      0.802153     -2.237819
      2.84365      4.80341      0.01546        -3.516242      0.249015     -0.124480
      2.81040      4.77126      4.55366        -0.895353      3.417539      2.525181
     -0.06219      1.70594      0.94412         0.608028     -1.093832     -0.731567
      1.40409      0.79600      3.67130        -0.219994      0.382693     -0.123183
      0.07253      1.57363      5.57237        -1.106468      0.303176     -0.445012
      1.48541      0.78956      8.31403        -2.063919     -0.050357     -0.430876
     -1.40859      3.97503      0.92546        -0.009288      1.146437      0.749681
      0.05046      3.20568      3.69314        -0.939280      0.392058     -0.004577
     -1.44505      3.92680      5.60191         0.735397      1.175175     -0.287341
     -0.06117      3.19621      8.30141         1.101640      1.072534     -0.183206
     -2.72910      6.38293      0.96555        -0.975332      0.616064     -0.132392
     -1.47628      5.66040      3.73435         1.325133     -0.606281     -0.321906
     -2.78042      6.44849      5.56617        -0.194986     -0.159726     -0.489020
     -1.35846      5.60566      8.42158        -0.893225     -0.433995     -1.436437
      2.76405      1.60010      0.92212         0.106881      0.000998     -0.233779
      4.17547      0.76937      3.67170         0.595439      1.359113     -0.518233
      2.70859      1.51584      5.49758         1.143952      3.009040      1.900465
      4.18402      0.86100      8.24567        -0.071309     -0.628915      0.850954
      1.38112      3.95534      0.95844         0.416611      0.844769     -0.540566
      2.76692      3.33487      3.65557         0.526357     -3.333150     -0.725107
      1.43951      4.00898      5.54646        -0.423576      0.309030      0.048167
      2.80813      3.17016      8.34919        -0.935335      1.239662     -1.250503
     -0.02496      6.46137      0.96037         0.496112     -0.001105     -0.373077
      1.30865      5.60340      3.68969         0.969031      0.454337     -0.287288
     -0.02798      6.45460      5.57290         0.257704     -0.289793     -0.041393
      1.37978      5.65973      8.31674         0.438693     -1.299606     -0.025843
      5.54892      1.64255      0.92522         0.070446     -0.369919     -0.466974
      6.99958      0.77726      3.66839        -0.907754      0.351502      0.073919
      5.55407      1.60911      5.48186         0.498191     -0.352850      1.472217
      6.97769      0.79110      8.30082        -0.078794      0.128204      0.197033
      4.12363      4.02248      0.93940         0.911263     -0.237273      1.184977
      5.60233      3.20900      3.70789        -0.750838     -0.621705     -0.498281
      4.19998      4.00164      5.56215        -0.737740     -0.312542      0.201492
      5.50223      3.16587      8.32716         0.724827      1.613015     -0.880668
      2.79753      6.42421      0.93288        -0.246379      0.017720      0.030804
      4.22968      5.58240      3.70416        -0.641501      0.467893     -0.644829
      2.70861      6.40652      5.57697         0.808085      0.046734     -0.860033
      4.17626      5.58733      8.38724         0.572363      0.702389     -1.065835
 -----------------------------------------------------------------------------------
    total drift:                                0.000562      0.006625     -0.002884


--------------------------------------------------------------------------------------------------------



  FREE ENERGIE OF THE ION-ELECTRON SYSTEM (eV)
  ---------------------------------------------------
  free  energy   TOTEN  =      -334.2121750418 eV

  energy  without entropy=     -334.2121750418  energy(sigma->0) =     -334.21217504
 


--------------------------------------------------------------------------------------------------------


    POTLOK:  cpu time    0.0812: real time    0.0814


--------------------------------------------------------------------------------------------------------


     LOOP+:  cpu time 1191.2028: real time 1194.4843
    4ORBIT:  cpu time    0.0000: real time    0.0000

volume of typ            1:    20.5 %

volume of typ            2:    10.5 %
 
total charge     
 
# of ion       s       p       d       tot
------------------------------------------
    1        0.289   0.381   7.812   8.481
    2        0.299   0.409   7.808   8.516
    3        0.320   0.458   7.828   8.606
    4        0.307   0.424   7.823   8.554
    5        0.309   0.430   7.831   8.570
    6        0.316   0.451   7.826   8.593
    7        0.315   0.445   7.824   8.584
    8        0.331   0.480   7.843   8.654
    9        0.307   0.428   7.818   8.553
   10        0.313   0.443   7.829   8.585
   11        0.305   0.420   7.819   8.543
   12        0.297   0.400   7.815   8.512
   13        0.300   0.409   7.812   8.521
   14        0.308   0.429   7.822   8.559
   15        0.325   0.471   7.837   8.633
   16        0.299   0.401   7.830   8.530
   17        0.313   0.436   7.834   8.583
   18        0.318   0.448   7.833   8.599
   19        1.288   2.705   0.007   4.000
   20        1.287   2.712   0.008   4.007
   21        1.288   2.710   0.008   4.006
   22        1.283   2.735   0.009   4.027
   23        1.285   2.739   0.009   4.033
   24        1.285   2.732   0.009   4.026
   25        1.285   2.724   0.008   4.018
   26        1.285   2.723   0.008   4.016
   27        1.288   2.714   0.008   4.009
   28        1.283   2.725   0.008   4.016
   29        1.288   2.695   0.006   3.990
   30        1.282   2.750   0.010   4.041
   31        1.287   2.717   0.008   4.011
   32        1.285   2.742   0.010   4.038
   33        1.282   2.769   0.011   4.062
   34        1.288   2.696   0.006   3.991
   35        1.285   2.720   0.008   4.013
   36        1.285   2.742   0.010   4.037
   37        1.286   2.725   0.008   4.020
   38        1.282   2.755   0.010   4.047
   39        1.287   2.719   0.008   4.014
   40        1.285   2.723   0.008   4.017
   41        1.286   2.722   0.008   4.017
   42        1.285   2.729   0.009   4.023
   43        1.286   2.711   0.007   4.003
   44        1.284   2.723   0.008   4.015
   45        1.281   2.753   0.010   4.044
   46        1.285   2.713   0.007   4.006
   47        1.284   2.756   0.011   4.051
   48        1.287   2.730   0.009   4.025
   49        1.285   2.732   0.009   4.026
   50        1.283   2.750   0.010   4.043
   51        1.286   2.722   0.008   4.016
   52        1.282   2.738   0.009   4.029
   53        1.286   2.707   0.007   4.000
   54        1.283   2.749   0.010   4.042
--------------------------------------------------
tot          51.83  105.97  141.15  298.95
 

 total amount of memory used by VASP MPI-rank0   181683. kBytes
=======================================================================

   base      :      30000. kBytes
   nonlr-proj:      32291. kBytes
   fftplans  :       6058. kBytes
   grid      :      19644. kBytes
   one-center:        839. kBytes
   wavefun   :      92851. kBytes
 
  
  
 General timing and accounting informations for this job:
 ========================================================
  
                  Total CPU time used (sec):     1217.391
                            User time (sec):     1214.155
                          System time (sec):        3.235
                         Elapsed time (sec):     1223.828
  
                   Maximum memory used (kb):      246412.
                   Average memory used (kb):           0.
  
                          Minor page faults:        36841
                          Major page faults:           18
                 Voluntary context switches:         1151
