 vasp.5.4.4.18Apr17-6-g9f103f2a35 (build May 12 2020 04:58:55) complex          
  
 MD_VERSION_INFO: Compiled 2020-05-12T11:58:55-UTC in devlin.sd.materialsdesign.
 com:/home/medea2/data/build/wwolf/vasp-gpu5.4.4/13047/x86_64/src/src/build/std 
 from svn 13047
 
 This VASP executable licensed from Materials Design, Inc.
 
 executed on                        Lin64 date 2023.04.27  10:29:44
 running on   16 total cores
 distrk:  each k-point on   16 cores,    1 groups
 distr:  one band on NCORES_PER_BAND=   1 cores,   16 groups


--------------------------------------------------------------------------------------------------------


 INCAR:
 POTCAR:    PAW_PBE Ni 02Aug2007                  
 POTCAR:    PAW_PBE O 08Apr2002                   

 ----------------------------------------------------------------------------- 
|                                                                             |
|           W    W    AA    RRRRR   N    N  II  N    N   GGGG   !!!           |
|           W    W   A  A   R    R  NN   N  II  NN   N  G    G  !!!           |
|           W    W  A    A  R    R  N N  N  II  N N  N  G       !!!           |
|           W WW W  AAAAAA  RRRRR   N  N N  II  N  N N  G  GGG   !            |
|           WW  WW  A    A  R   R   N   NN  II  N   NN  G    G                |
|           W    W  A    A  R    R  N    N  II  N    N   GGGG   !!!           |
|                                                                             |
|      For optimal performance we recommend to set                            |
|        NCORE= 4 - approx SQRT( number of cores)                             |
|      NCORE specifies how many cores store one orbital (NPAR=cpu/NCORE).     |
|      This setting can  greatly improve the performance of VASP for DFT.     |
|      The default,   NCORE=1            might be grossly inefficient         |
|      on modern multi-core architectures or massively parallel machines.     |
|      Do your own testing !!!!                                               |
|      Unfortunately you need to use the default for GW and RPA calculations. |
|      (for HF NCORE is supported but not extensively tested yet)             |
|                                                                             |
 ----------------------------------------------------------------------------- 

 POTCAR:    PAW_PBE Ni 02Aug2007                  
  local pseudopotential read in
  partial core-charges read in
  partial kinetic energy density read in
  atomic valenz-charges read in
  non local Contribution for L=           2  read in
    real space projection operators read in
  non local Contribution for L=           2  read in
    real space projection operators read in
  non local Contribution for L=           0  read in
    real space projection operators read in
  non local Contribution for L=           0  read in
    real space projection operators read in
  non local Contribution for L=           1  read in
    real space projection operators read in
  non local Contribution for L=           1  read in
    real space projection operators read in
    PAW grid and wavefunctions read in
 
   number of l-projection  operators is LMAX  =           6
   number of lm-projection operators is LMMAX =          18
 
 POTCAR:    PAW_PBE O 08Apr2002                   
  local pseudopotential read in
  partial core-charges read in
  partial kinetic energy density read in
  kinetic energy density of atom read in
  atomic valenz-charges read in
  non local Contribution for L=           0  read in
    real space projection operators read in
  non local Contribution for L=           0  read in
    real space projection operators read in
  non local Contribution for L=           1  read in
    real space projection operators read in
  non local Contribution for L=           1  read in
    real space projection operators read in
    PAW grid and wavefunctions read in
 
   number of l-projection  operators is LMAX  =           4
   number of lm-projection operators is LMMAX =           8
 
 Optimization of the real space projectors (new method)

 maximal supplied QI-value         = 16.25
 optimisation between [QCUT,QGAM] = [ 11.38, 22.75] = [ 36.24,144.96] Ry 
 Optimized for a Real-space Cutoff    1.47 Angstroem

   l    n(q)    QCUT    max X(q) W(low)/X(q) W(high)/X(q)  e(spline) 
   2      9    11.376    60.317    0.17E-03    0.16E-04    0.16E-06
   2      9    11.376    55.921    0.17E-03    0.16E-04    0.17E-06
   0     10    11.376    51.690    0.45E-04    0.60E-04    0.21E-06
   0     10    11.376    30.015    0.37E-04    0.55E-04    0.19E-06
   1     10    11.376    18.849    0.83E-04    0.11E-03    0.92E-07
   1     10    11.376    14.624    0.69E-04    0.92E-04    0.82E-07
 Optimization of the real space projectors (new method)

 maximal supplied QI-value         = 24.76
 optimisation between [QCUT,QGAM] = [ 11.39, 22.77] = [ 36.31,145.25] Ry 
 Optimized for a Real-space Cutoff    1.10 Angstroem

   l    n(q)    QCUT    max X(q) W(low)/X(q) W(high)/X(q)  e(spline) 
   0      7    11.387    20.381    0.22E-03    0.48E-03    0.18E-06
   0      7    11.387    15.268    0.22E-03    0.52E-03    0.19E-06
   1      7    11.387     5.964    0.22E-03    0.73E-03    0.24E-06
   1      7    11.387     5.382    0.19E-03    0.60E-03    0.21E-06

 ----------------------------------------------------------------------------- 
|                                                                             |
|  ADVICE TO THIS USER RUNNING 'VASP/VAMP'   (HEAR YOUR MASTER'S VOICE ...):  |
|                                                                             |
|      You enforced a specific xc-type in the INCAR file,                     |
|      a different type was found on the POTCAR file                          |
|          I HOPE YOU KNOW, WHAT YOU ARE  DOING                               |
|                                                                             |
 ----------------------------------------------------------------------------- 

  PAW_PBE Ni 02Aug2007                  :
 energy of atom  1       EATOM=-1077.6739
 kinetic energy error for atom=    0.0030 (will be added to EATOM!!)
  PAW_PBE O 08Apr2002                   :
 energy of atom  2       EATOM= -432.3788
 kinetic energy error for atom=    0.0224 (will be added to EATOM!!)
 
 
 POSCAR: NiO2_C2_m_scale_0_975_disp_0_06_round_2 
  positions in direct lattice
  No initial velocities read in
 exchange correlation table for  LEXCH =       14
   RHO(1)=    0.500       N(1)  =     2000
   RHO(2)=  100.500       N(2)  =     4000
 


--------------------------------------------------------------------------------------------------------


 ion  position               nearest neighbor table
   1  0.007  0.002  0.002-  54 1.58  46 1.61  51 1.66  27 1.68  22 1.79  19 1.91  17 2.51   5 2.59
                            13 2.60   3 2.73   9 2.74   7 2.80
   2  0.978  0.991  0.517-  53 1.60  52 1.62  44 1.64  29 1.72  21 1.93  20 2.07  14 2.51  18 2.56
                             6 2.61   8 2.74   4 2.79  10 2.98
   3  0.003  0.334  0.003-  46 1.63  43 1.67  26 1.71  50 1.74  19 1.78  23 1.94  15 2.68   9 2.72
                             1 2.73  11 2.73  13 2.73   5 2.85
   4  0.004  0.345  0.510-  48 1.68  24 1.76  25 1.81  21 1.84  45 1.86  44 1.92  16 2.57  14 2.77
                            12 2.78   6 2.78   2 2.79  10 2.86
   5  0.991  0.677  0.991-  54 1.55  50 1.62  47 1.69  30 1.86  27 1.97  23 2.03  17 2.46  15 2.56
                             1 2.59  11 2.79   7 2.81   3 2.85
   6  0.002  0.683  0.523-  49 1.71  25 1.75  52 1.82  29 1.89  28 1.92  48 2.01   2 2.61   8 2.64
                            16 2.65  18 2.76   4 2.78  12 2.90
   7  0.351  0.003  0.999-  34 1.69  30 1.71  39 1.77  31 1.79  22 1.84  27 1.90  11 2.60  13 2.76
                             1 2.80   9 2.80  15 2.80   5 2.81
   8  0.323  0.010  0.522-  20 1.67  29 1.68  33 1.77  28 1.78  41 1.91  32 1.98  10 2.61   6 2.64
                             2 2.74  12 2.86  16 2.87  14 2.91
   9  0.340  0.341  0.999-  22 1.70  26 1.75  38 1.76  19 1.77  35 1.84  31 1.89   3 2.72   1 2.74
                            11 2.76  15 2.77   7 2.80  17 2.91
  10  0.354  0.343  0.499-  36 1.64  33 1.77  37 1.88  20 1.91  24 1.95  21 2.05   8 2.61  18 2.63
                            12 2.72  16 2.74   4 2.86   2 2.98
  11  0.331  0.674  0.006-  23 1.68  26 1.72  30 1.74  42 1.80  39 1.84  35 1.86   7 2.60  13 2.72
                             3 2.73   9 2.76   5 2.79  17 2.92
  12  0.353  0.676  0.502-  40 1.76  24 1.78  37 1.81  28 1.87  41 1.99  25 2.00  18 2.50  14 2.62
                            10 2.72   4 2.78   8 2.86   6 2.90
  13  0.681  0.987  0.002-  51 1.61  42 1.62  34 1.75  46 1.78  39 1.87  43 1.88  17 2.45   1 2.60
                            11 2.72   3 2.73   7 2.76  15 2.98
  14  0.674  0.997  0.515-  40 1.70  53 1.82  41 1.85  45 1.87  32 1.91  44 2.06   2 2.51  18 2.54
                            12 2.62   4 2.77  16 2.78   8 2.91
  15  0.686  0.355  0.004-  38 1.60  50 1.72  47 1.78  31 1.78  34 1.86  43 2.01   5 2.56   3 2.68
                            17 2.72   9 2.77   7 2.80  13 2.98
  16  0.690  0.346  0.522-  45 1.78  33 1.87  49 1.88  48 1.89  36 1.97  32 2.07   4 2.57   6 2.65
                            10 2.74  14 2.78  18 2.84   8 2.87
  17  0.698  0.695  0.003-  51 1.72  54 1.74  42 1.76  38 1.85  47 1.85  35 1.93  13 2.45   5 2.46
                             1 2.51  15 2.72   9 2.91  11 2.92
  18  0.662  0.679  0.513-  40 1.70  36 1.80  37 1.90  53 1.90  49 2.01  52 2.07  12 2.50  14 2.54
                             2 2.56  10 2.63   6 2.76  16 2.84
  19  0.127  0.241  0.102-   9 1.77   3 1.78   1 1.91
  20  0.233  0.101  0.404-   8 1.67  10 1.91   2 2.07
  21  0.108  0.229  0.620-   4 1.84   2 1.93  10 2.05
  22  0.235  0.125  0.915-   9 1.70   1 1.79   7 1.84
  23  0.131  0.573  0.108-  11 1.68   3 1.94   5 2.03
  24  0.217  0.457  0.408-   4 1.76  12 1.78  10 1.95
  25  0.105  0.565  0.610-   6 1.75   4 1.81  12 2.00
  26  0.223  0.454  0.925-   3 1.71  11 1.72   9 1.75
  27  0.121  0.916  0.104-   1 1.68   7 1.90   5 1.97
  28  0.236  0.799  0.414-   8 1.78  12 1.87   6 1.92
  29  0.117  0.924  0.614-   8 1.68   2 1.72   6 1.89
  30  0.232  0.790  0.909-   7 1.71  11 1.74   5 1.86
  31  0.462  0.225  0.094-  15 1.78   7 1.79   9 1.89
  32  0.552  0.100  0.397-  14 1.91   8 1.98  16 2.07
  33  0.450  0.233  0.610-   8 1.77  10 1.77  16 1.87
  34  0.574  0.109  0.930-   7 1.69  13 1.75  15 1.86
  35  0.456  0.566  0.102-   9 1.84  11 1.86  17 1.93
  36  0.559  0.457  0.414-  10 1.64  18 1.80  16 1.97
  37  0.434  0.554  0.624-  12 1.81  10 1.88  18 1.90
  38  0.574  0.450  0.932-  15 1.60   9 1.76  17 1.85
  39  0.456  0.900  0.108-   7 1.77  11 1.84  13 1.87
  40  0.574  0.795  0.413-  18 1.70  14 1.70  12 1.76
  41  0.456  0.908  0.627-  14 1.85   8 1.91  12 1.99
  42  0.561  0.783  0.921-  13 1.62  17 1.76  11 1.80
  43  0.805  0.219  0.103-   3 1.67  13 1.88  15 2.01
  44  0.927  0.114  0.402-   2 1.64   4 1.92  14 2.06
  45  0.784  0.223  0.622-  16 1.78   4 1.86  14 1.87
  46  0.917  0.121  0.934-   1 1.61   3 1.63  13 1.78
  47  0.801  0.571  0.106-   5 1.69  15 1.78  17 1.85
  48  0.910  0.446  0.403-   4 1.68  16 1.89   6 2.01
  49  0.800  0.575  0.629-   6 1.71  16 1.88  18 2.01
  50  0.908  0.465  0.927-   5 1.62  15 1.72   3 1.74
  51  0.802  0.911  0.091-  13 1.61   1 1.66  17 1.72
  52  0.922  0.814  0.407-   2 1.62   6 1.82  18 2.07
  53  0.798  0.906  0.625-   2 1.60  14 1.82  18 1.90
  54  0.921  0.804  0.921-   5 1.55   1 1.58  17 1.74
 
  LATTYP: Found a hexagonal cell.
 ALAT       =     8.1537982509
 C/A-ratio  =     1.1065328050
  
  Lattice vectors:
  
 A1 = (   8.1537982500,   0.0000000000,   0.0000000000)
 A2 = (  -4.0768991200,   7.0613964200,   0.0000000000)
 A3 = (   0.0000000000,   0.0000000000,   9.0224452500)


Analysis of symmetry for initial positions (statically):
=====================================================================
 Subroutine PRICEL returns:
 Original cell was already a primitive cell.
 

 Routine SETGRP: Setting up the symmetry group for a 
 hexagonal supercell.


 Subroutine GETGRP returns: Found  1 space group operations
 (whereof  1 operations were pure point group operations)
 out of a pool of 24 trial point group operations.


The static configuration has the point symmetry C_1 .


Analysis of symmetry for dynamics (positions and initial velocities):
=====================================================================
 Subroutine PRICEL returns:
 Original cell was already a primitive cell.
 

 Routine SETGRP: Setting up the symmetry group for a 
 hexagonal supercell.


 Subroutine GETGRP returns: Found  1 space group operations
 (whereof  1 operations were pure point group operations)
 out of a pool of 24 trial point group operations.


The dynamic configuration has the point symmetry C_1 .


 Subroutine INISYM returns: Found  1 space group operations
 (whereof  1 operations are pure point group operations),
 and found     1 'primitive' translations

 
 
 KPOINTS: Automatic mesh                          

Automatic generation of k-mesh.
Space group operators:
 irot       det(A)        alpha          n_x          n_y          n_z        tau_x        tau_y        tau_z
    1     1.000000     0.000001     1.000000     0.000000     0.000000     0.000000     0.000000     0.000000
 
 Subroutine IBZKPT returns following result:
 ===========================================
 
 Found     26 irreducible k-points:
 
 Following reciprocal coordinates:
            Coordinates               Weight
  0.000000  0.000000  0.000000      1.000000
  0.250000 -0.000000  0.000000      2.000000
  0.500000 -0.000000  0.000000      1.000000
  0.000000  0.250000  0.000000      2.000000
  0.250000  0.250000  0.000000      2.000000
  0.500000  0.250000  0.000000      2.000000
 -0.250000  0.250000  0.000000      2.000000
  0.000000  0.500000  0.000000      1.000000
  0.250000  0.500000  0.000000      2.000000
  0.500000  0.500000  0.000000      1.000000
  0.000000  0.000000  0.333333      2.000000
  0.250000 -0.000000  0.333333      2.000000
  0.500000 -0.000000  0.333333      2.000000
 -0.250000  0.000000  0.333333      2.000000
  0.000000  0.250000  0.333333      2.000000
  0.250000  0.250000  0.333333      2.000000
  0.500000  0.250000  0.333333      2.000000
 -0.250000  0.250000  0.333333      2.000000
  0.000000  0.500000  0.333333      2.000000
  0.250000  0.500000  0.333333      2.000000
  0.500000  0.500000  0.333333      2.000000
 -0.250000  0.500000  0.333333      2.000000
  0.000000 -0.250000  0.333333      2.000000
  0.250000 -0.250000  0.333333      2.000000
  0.500000 -0.250000  0.333333      2.000000
 -0.250000 -0.250000  0.333333      2.000000
 
 Following cartesian coordinates:
            Coordinates               Weight
  0.000000  0.000000  0.000000      1.000000
  0.030661  0.017702  0.000000      2.000000
  0.061321  0.035404  0.000000      1.000000
  0.000000  0.035404  0.000000      2.000000
  0.030661  0.053106  0.000000      2.000000
  0.061321  0.070808  0.000000      2.000000
 -0.030661  0.017702  0.000000      2.000000
  0.000000  0.070808  0.000000      1.000000
  0.030661  0.088509  0.000000      2.000000
  0.061321  0.106211  0.000000      1.000000
  0.000000  0.000000  0.036945      2.000000
  0.030661  0.017702  0.036945      2.000000
  0.061321  0.035404  0.036945      2.000000
 -0.030661 -0.017702  0.036945      2.000000
  0.000000  0.035404  0.036945      2.000000
  0.030661  0.053106  0.036945      2.000000
  0.061321  0.070808  0.036945      2.000000
 -0.030661  0.017702  0.036945      2.000000
  0.000000  0.070808  0.036945      2.000000
  0.030661  0.088509  0.036945      2.000000
  0.061321  0.106211  0.036945      2.000000
 -0.030661  0.053106  0.036945      2.000000
  0.000000 -0.035404  0.036945      2.000000
  0.030661 -0.017702  0.036945      2.000000
  0.061321 -0.000000  0.036945      2.000000
 -0.030661 -0.053106  0.036945      2.000000
 


--------------------------------------------------------------------------------------------------------




 Dimension of arrays:
   k-points           NKPTS =     26   k-points in BZ     NKDIM =     26   number of bands    NBANDS=    240
   number of dos      NEDOS =    301   number of ions     NIONS =     54
   non local maximal  LDIM  =      6   non local SUM 2l+1 LMDIM =     18
   total plane-waves  NPLWV = 252000
   max r-space proj   IRMAX =   6562   max aug-charges    IRDMAX=  15922
   dimension x,y,z NGX =    60 NGY =   60 NGZ =   70
   dimension x,y,z NGXF=   120 NGYF=  120 NGZF=  140
   support grid    NGXF=   120 NGYF=  120 NGZF=  140
   ions per type =              18  36
   NGX,Y,Z   is equivalent  to a cutoff of  12.23, 12.23, 12.90 a.u.
   NGXF,Y,Z  is equivalent  to a cutoff of  24.47, 24.47, 25.80 a.u.

 SYSTEM =  unknown system                          
 POSCAR =  NiO2_C2_m_scale_0_975_disp_0_06_round_2 

 Startparameter for this run:
   NWRITE =      1    write-flag & timer
   PREC   = accura    normal or accurate (medium, high low for compatibility)
   ISTART =      0    job   : 0-new  1-cont  2-samecut
   ICHARG =      2    charge: 1-file 2-atom 10-const
   ISPIN  =      1    spin polarized calculation?
   LNONCOLLINEAR =      F non collinear calculations
   LSORBIT =      F    spin-orbit coupling
   INIWAV =      1    electr: 0-lowe 1-rand  2-diag
   LASPH  =      F    aspherical Exc in radial PAW
   METAGGA=      F    non-selfconsistent MetaGGA calc.

 Electronic Relaxation 1
   ENCUT  =  500.0 eV  36.75 Ry    6.06 a.u.  14.87 14.87 16.45*2*pi/ulx,y,z
   ENINI  =  500.0     initial cutoff
   ENAUG  =  605.4 eV  augmentation charge cutoff
   NELM   =    120;   NELMIN=  2; NELMDL= -5     # of ELM steps 
   EDIFF  = 0.1E-04   stopping-criterion for ELM
   LREAL  =      T    real-space projection
   NLSPLINE    = F    spline interpolate recip. space projectors
   LCOMPAT=      F    compatible to vasp.4.4
   GGA_COMPAT  = T    GGA compatible to vasp.4.4-vasp.4.6
   LMAXPAW     = -100 max onsite density
   LMAXMIX     =    2 max onsite mixed and CHGCAR
   VOSKOWN=      1    Vosko Wilk Nusair interpolation
   ROPT   =   -0.00025  -0.00025
 Ionic relaxation
   EDIFFG = 0.1E-03   stopping-criterion for IOM
   NSW    =      0    number of steps for IOM
   NBLOCK =      1;   KBLOCK =      1    inner block; outer block 
   IBRION =     -1    ionic relax: 0-MD 1-quasi-New 2-CG
   NFREE  =      0    steps in history (QN), initial steepest desc. (CG)
   ISIF   =      2    stress and relaxation
   IWAVPR =     10    prediction:  0-non 1-charg 2-wave 3-comb
   ISYM   =      2    0-nonsym 1-usesym 2-fastsym
   LCORR  =      T    Harris-Foulkes like correction to forces

   POTIM  = 0.5000    time-step for ionic-motion
   TEIN   =    0.0    initial temperature
   TEBEG  =    0.0;   TEEND  =   0.0 temperature during run
   SMASS  =  -3.00    Nose mass-parameter (am)
   estimated Nose-frequenzy (Omega)   =  0.10E-29 period in steps =****** mass=  -0.152E-26a.u.
   SCALEE = 1.0000    scale energy and forces
   NPACO  =    256;   APACO  = 16.0  distance and # of slots for P.C.
   PSTRESS=    0.0 pullay stress

  Mass of Ions in am
   POMASS =  58.69 16.00
  Ionic Valenz
   ZVAL   =  10.00  6.00
  Atomic Wigner-Seitz radii
   RWIGS  =   1.15  0.73
  virtual crystal weights 
   VCA    =   1.00  1.00
   NELECT =     396.0000    total number of electrons
   NUPDOWN=      -1.0000    fix difference up-down

 DOS related values:
   EMIN   =  10.00;   EMAX   =-10.00  energy-range for DOS
   EFERMI =   0.00
   ISMEAR =     0;   SIGMA  =   0.05  broadening in eV -4-tet -1-fermi 0-gaus

 Electronic relaxation 2 (details)
   IALGO  =     38    algorithm
   LDIAG  =      T    sub-space diagonalisation (order eigenvalues)
   LSUBROT=      F    optimize rotation matrix (better conditioning)
   TURBO    =      0    0=normal 1=particle mesh
   IRESTART =      0    0=no restart 2=restart with 2 vectors
   NREBOOT  =      0    no. of reboots
   NMIN     =      0    reboot dimension
   EREF     =   0.00    reference energy to select bands
   IMIX   =      4    mixing-type and parameters
     AMIX     =   0.40;   BMIX     =  1.00
     AMIX_MAG =   1.60;   BMIX_MAG =  1.00
     AMIN     =   0.10
     WC   =   100.;   INIMIX=   1;  MIXPRE=   1;  MAXMIX= -45

 Intra band minimization:
   WEIMIN = 0.0000     energy-eigenvalue tresh-hold
   EBREAK =  0.10E-07  absolut break condition
   DEPER  =   0.30     relativ break condition  

   TIME   =   0.40     timestep for ELM

  volume/ion in A,a.u.               =       9.62        64.92
  Fermi-wavevector in a.u.,A,eV,Ry     =   1.495483  2.826054 30.429034  2.236471
  Thomas-Fermi vector in A             =   2.607622
 
 Write flags
   LWAVE        =      F    write WAVECAR
   LDOWNSAMPLE  =      F    k-point downsampling of WAVECAR
   LCHARG       =      T    write CHGCAR
   LVTOT        =      F    write LOCPOT, total local potential
   LVHAR        =      F    write LOCPOT, Hartree potential only
   LELF         =      F    write electronic localiz. function (ELF)
   LORBIT       =      0    0 simple, 1 ext, 2 COOP (PROOUT), +10 PAW based schemes


 Dipole corrections
   LMONO  =      F    monopole corrections only (constant potential shift)
   LDIPOL =      F    correct potential (dipole corrections)
   IDIPOL =      0    1-x, 2-y, 3-z, 4-all directions 
   EPSILON=  1.0000000 bulk dielectric constant

 Exchange correlation treatment:
   GGA     =    PS    GGA type
   LEXCH   =    14    internal setting for exchange type
   VOSKOWN=      1    Vosko Wilk Nusair interpolation
   LHFCALC =     F    Hartree Fock is set to
   LHFONE  =     F    Hartree Fock one center treatment
   AEXX    =    0.0000 exact exchange contribution

 Linear response parameters
   LEPSILON=     F    determine dielectric tensor
   LRPA    =     F    only Hartree local field effects (RPA)
   LNABLA  =     F    use nabla operator in PAW spheres
   LVEL    =     F    velocity operator in full k-point grid
   LINTERFAST=   F  fast interpolation
   KINTER  =     0    interpolate to denser k-point grid
   CSHIFT  =0.1000    complex shift for real part using Kramers Kronig
   OMEGAMAX=  -1.0    maximum frequency
   DEG_THRESHOLD= 0.2000000E-02 threshold for treating states as degnerate
   RTIME   =   -0.100 relaxation time in fs
  (WPLASMAI=    0.000 imaginary part of plasma frequency in eV, 0.658/RTIME)
   DFIELD  = 0.0000000 0.0000000 0.0000000 field for delta impulse in time
 
 Orbital magnetization related:
   ORBITALMAG=     F  switch on orbital magnetization
   LCHIMAG   =     F  perturbation theory with respect to B field
   DQ        =  0.001000  dq finite difference perturbation B field
   LLRAUG    =     F  two centre corrections for induced B field



--------------------------------------------------------------------------------------------------------


 Static calculation
 charge density and potential will be updated during run
 non-spin polarized calculation
 Variant of blocked Davidson
 Davidson routine will perform the subspace rotation
 perform sub-space diagonalisation
    after iterative eigenvector-optimisation
 modified Broyden-mixing scheme, WC =      100.0
 initial mixing is a Kerker type mixing with AMIX =  0.4000 and BMIX =      1.0000
 Hartree-type preconditioning will be used
 using additional bands           42
 real space projection scheme for non local part
 use partial core corrections
 calculate Harris-corrections to forces 
   (improved forces if not selfconsistent)
 use gradient corrections 
 use of overlap-Matrix (Vanderbilt PP)
 Gauss-broadening in eV      SIGMA  =   0.05


--------------------------------------------------------------------------------------------------------


  energy-cutoff  :      500.00
  volume of cell :      519.49
      direct lattice vectors                 reciprocal lattice vectors
     8.153798250  0.000000000  0.000000000     0.122642230  0.070807524  0.000000000
    -4.076899120  7.061396420  0.000000000     0.000000000  0.141615049  0.000000000
     0.000000000  0.000000000  9.022445250     0.000000000  0.000000000  0.110834699

  length of vectors
     8.153798250  8.153798246  9.022445250     0.141615049  0.141615049  0.110834699


 
 k-points in units of 2pi/SCALE and weight: Automatic mesh                          
   0.00000000  0.00000000  0.00000000       0.021
   0.03066056  0.01770188  0.00000000       0.042
   0.06132111  0.03540376  0.00000000       0.021
   0.00000000  0.03540376  0.00000000       0.042
   0.03066056  0.05310564  0.00000000       0.042
   0.06132111  0.07080752  0.00000000       0.042
  -0.03066056  0.01770188  0.00000000       0.042
   0.00000000  0.07080752  0.00000000       0.021
   0.03066056  0.08850941  0.00000000       0.042
   0.06132111  0.10621129  0.00000000       0.021
   0.00000000  0.00000000  0.03694490       0.042
   0.03066056  0.01770188  0.03694490       0.042
   0.06132111  0.03540376  0.03694490       0.042
  -0.03066056 -0.01770188  0.03694490       0.042
   0.00000000  0.03540376  0.03694490       0.042
   0.03066056  0.05310564  0.03694490       0.042
   0.06132111  0.07080752  0.03694490       0.042
  -0.03066056  0.01770188  0.03694490       0.042
   0.00000000  0.07080752  0.03694490       0.042
   0.03066056  0.08850941  0.03694490       0.042
   0.06132111  0.10621129  0.03694490       0.042
  -0.03066056  0.05310564  0.03694490       0.042
   0.00000000 -0.03540376  0.03694490       0.042
   0.03066056 -0.01770188  0.03694490       0.042
   0.06132111 -0.00000000  0.03694490       0.042
  -0.03066056 -0.05310564  0.03694490       0.042
 
 k-points in reciprocal lattice and weights: Automatic mesh                          
   0.00000000  0.00000000  0.00000000       0.021
   0.25000000 -0.00000000  0.00000000       0.042
   0.50000000 -0.00000000  0.00000000       0.021
   0.00000000  0.25000000  0.00000000       0.042
   0.25000000  0.25000000  0.00000000       0.042
   0.50000000  0.25000000  0.00000000       0.042
  -0.25000000  0.25000000  0.00000000       0.042
   0.00000000  0.50000000  0.00000000       0.021
   0.25000000  0.50000000  0.00000000       0.042
   0.50000000  0.50000000  0.00000000       0.021
   0.00000000  0.00000000  0.33333333       0.042
   0.25000000 -0.00000000  0.33333333       0.042
   0.50000000 -0.00000000  0.33333333       0.042
  -0.25000000  0.00000000  0.33333333       0.042
   0.00000000  0.25000000  0.33333333       0.042
   0.25000000  0.25000000  0.33333333       0.042
   0.50000000  0.25000000  0.33333333       0.042
  -0.25000000  0.25000000  0.33333333       0.042
   0.00000000  0.50000000  0.33333333       0.042
   0.25000000  0.50000000  0.33333333       0.042
   0.50000000  0.50000000  0.33333333       0.042
  -0.25000000  0.50000000  0.33333333       0.042
   0.00000000 -0.25000000  0.33333333       0.042
   0.25000000 -0.25000000  0.33333333       0.042
   0.50000000 -0.25000000  0.33333333       0.042
  -0.25000000 -0.25000000  0.33333333       0.042
 
 position of ions in fractional coordinates (direct lattice) 
   0.00733628  0.00166425  0.00237765
   0.97814817  0.99078228  0.51654254
   0.00275609  0.33356286  0.00334564
   0.00436482  0.34462534  0.50953929
   0.99059316  0.67660658  0.99149120
   0.00162034  0.68338858  0.52324540
   0.35133798  0.00345287  0.99887849
   0.32316421  0.00951766  0.52168360
   0.33953388  0.34077206  0.99927503
   0.35387528  0.34297114  0.49907513
   0.33066824  0.67437860  0.00620364
   0.35306227  0.67582003  0.50209400
   0.68105279  0.98682045  0.00219196
   0.67396287  0.99712388  0.51495499
   0.68589470  0.35500233  0.00430283
   0.68999024  0.34559877  0.52184992
   0.69837058  0.69525018  0.00328140
   0.66150526  0.67904674  0.51283054
   0.12655850  0.24050308  0.10215975
   0.23268291  0.10136329  0.40350644
   0.10834554  0.22888700  0.61995046
   0.23459375  0.12501709  0.91540500
   0.13089966  0.57285916  0.10821573
   0.21740493  0.45667529  0.40768165
   0.10548901  0.56544498  0.61004221
   0.22335044  0.45380115  0.92507785
   0.12078646  0.91582347  0.10387450
   0.23580929  0.79894342  0.41418954
   0.11709437  0.92398053  0.61375084
   0.23238344  0.78974525  0.90937562
   0.46247964  0.22508386  0.09403210
   0.55245768  0.10011326  0.39712840
   0.45041885  0.23262757  0.61012333
   0.57385823  0.10943795  0.92950690
   0.45577576  0.56646685  0.10209966
   0.55891074  0.45724496  0.41444556
   0.43353095  0.55406854  0.62370216
   0.57365836  0.44978792  0.93161713
   0.45570047  0.90033936  0.10812022
   0.57436992  0.79462122  0.41250356
   0.45596897  0.90768673  0.62712101
   0.56108595  0.78254618  0.92127798
   0.80465504  0.21915227  0.10291685
   0.92651970  0.11405441  0.40195520
   0.78420038  0.22316171  0.62203788
   0.91703887  0.12097049  0.93413833
   0.80067454  0.57073182  0.10593799
   0.91025098  0.44636405  0.40306060
   0.80040567  0.57485582  0.62859167
   0.90818372  0.46482938  0.92698922
   0.80188308  0.91102585  0.09071093
   0.92210876  0.81355158  0.40723669
   0.79820433  0.90560515  0.62466912
   0.92094250  0.80387592  0.92082244
 
 position of ions in cartesian coordinates  (Angst):
   0.05303357  0.01175193  0.02145222
   3.93630343  6.99630644  4.66047679
  -1.33742953  2.35541959  0.03018585
  -1.36941288  2.43353614  4.59729035
   5.31864000  4.77778728  8.94567507
  -2.77289437  4.82567767  4.72095297
   2.85066200  0.02438208  9.01232649
   2.59621323  0.06720797  4.70686172
   1.37919745  2.40632660  9.01590425
   1.48716890  2.42185518  4.50287804
  -0.05317140  4.76205463  0.05597200
   0.12354843  4.77223314  4.53011563
   1.52999962  6.96833039  0.01977684
   1.43018380  7.04108700  4.64615320
   4.14533832  2.50681218  0.03882205
   4.21706989  2.44040992  4.70836233
   2.85990797  4.90943713  0.02960625
   2.62537537  4.79501822  4.62698547
   0.05142568  1.69828759  0.92173075
   1.48400160  0.71576637  3.64061476
  -0.04972153  1.61626184  5.59346908
   1.40314804  0.88279523  8.25919149
  -1.26815959  4.04518562  0.97637050
  -0.08914315  3.22476526  3.67828537
  -1.44512604  3.99283116  5.50407244
  -0.02894708  3.20446982  8.34646425
  -2.74885147  6.46699257  0.93720199
  -1.33447035  5.64165621  3.73700245
  -2.81221154  6.52459281  5.53753335
  -1.32490403  5.57670428  8.20479174
   2.85332149  1.58940636  0.84839947
   4.09647680  0.70693942  3.58306925
   2.72422530  1.64267549  5.50480434
   4.23295675  0.77278475  8.38642511
   1.40687539  4.00004699  0.92118859
   2.69310384  3.22878792  3.73931237
   1.27604236  3.91249760  5.62731859
   2.84375456  3.17613081  8.40546455
   0.04509695  6.35765313  0.97550877
   1.44370590  5.61113544  3.72179079
   0.01733176  6.40953583  5.65816498
   1.38461980  5.52586879  8.31218013
   5.66753316  1.54752105  0.92856164
   7.08966638  0.80538340  3.62661878
   5.48440391  1.57583330  5.61230272
   6.98416545  0.85422059  8.42821194
   4.20172261  4.03016363  0.95581971
   5.60222165  3.15195350  3.63659220
   4.18271716  4.05928483  5.67143393
   5.51008434  3.28234452  8.36370948
   2.82423237  6.43311468  0.81843440
   4.20192107  5.74481021  3.67427074
   2.81633623  6.39483696  5.63604293
   4.23185831  5.67648654  8.30807005
 


--------------------------------------------------------------------------------------------------------


 k-point  1 :   0.0000 0.0000 0.0000  plane waves:   13143
 k-point  2 :   0.2500-0.0000 0.0000  plane waves:   13176
 k-point  3 :   0.5000-0.0000 0.0000  plane waves:   13192
 k-point  4 :   0.0000 0.2500 0.0000  plane waves:   13176
 k-point  5 :   0.2500 0.2500 0.0000  plane waves:   13219
 k-point  6 :   0.5000 0.2500 0.0000  plane waves:   13219
 k-point  7 :  -0.2500 0.2500 0.0000  plane waves:   13176
 k-point  8 :   0.0000 0.5000 0.0000  plane waves:   13192
 k-point  9 :   0.2500 0.5000 0.0000  plane waves:   13219
 k-point 10 :   0.5000 0.5000 0.0000  plane waves:   13192
 k-point 11 :   0.0000 0.0000 0.3333  plane waves:   13173
 k-point 12 :   0.2500-0.0000 0.3333  plane waves:   13192
 k-point 13 :   0.5000-0.0000 0.3333  plane waves:   13188
 k-point 14 :  -0.2500 0.0000 0.3333  plane waves:   13192
 k-point 15 :   0.0000 0.2500 0.3333  plane waves:   13192
 k-point 16 :   0.2500 0.2500 0.3333  plane waves:   13183
 k-point 17 :   0.5000 0.2500 0.3333  plane waves:   13183
 k-point 18 :  -0.2500 0.2500 0.3333  plane waves:   13192
 k-point 19 :   0.0000 0.5000 0.3333  plane waves:   13188
 k-point 20 :   0.2500 0.5000 0.3333  plane waves:   13183
 k-point 21 :   0.5000 0.5000 0.3333  plane waves:   13188
 k-point 22 :  -0.2500 0.5000 0.3333  plane waves:   13183
 k-point 23 :   0.0000-0.2500 0.3333  plane waves:   13192
 k-point 24 :   0.2500-0.2500 0.3333  plane waves:   13192
 k-point 25 :   0.5000-0.2500 0.3333  plane waves:   13183
 k-point 26 :  -0.2500-0.2500 0.3333  plane waves:   13183

 maximum and minimum number of plane-waves per node :     13219    13143

 maximum number of plane-waves:     13219
 maximum index in each direction: 
   IXMAX=   15   IYMAX=   15   IZMAX=   16
   IXMIN=  -15   IYMIN=  -15   IZMIN=  -16

 The following grids will avoid any aliasing or wrap around errors in the Hartre
 e energy
  - symmetry arguments have not been applied
  - exchange correlation energies might require even more grid points
  - we recommend to set PREC=Normal or Accurate and rely on VASP defaults
 WARNING: aliasing errors must be expected set NGX to    64 to avoid them
 WARNING: aliasing errors must be expected set NGY to    64 to avoid them
 NGZ is ok and might be reduce to    70

 serial   3D FFT for wavefunctions
 parallel 3D FFT for charge:
    minimum data exchange during FFTs selected (reduces bandwidth)


 total amount of memory used by VASP MPI-rank0   171206. kBytes
=======================================================================

   base      :      30000. kBytes
   nonlr-proj:      30637. kBytes
   fftplans  :       5529. kBytes
   grid      :      17740. kBytes
   one-center:        839. kBytes
   wavefun   :      86461. kBytes
 
     INWAV:  cpu time    0.0000: real time    0.0000
 Broyden mixing: mesh for mixing (old mesh)
   NGX = 29   NGY = 29   NGZ = 33
  (NGX  =120   NGY  =120   NGZ  =140)
  gives a total of  27753 points

 initial charge density was supplied:
 charge density of overlapping atoms calculated
 number of electron     396.0000000 magnetization 
 keeping initial charge density in first step


--------------------------------------------------------------------------------------------------------


 Maximum index for non-local projection operator         6337
 Maximum index for augmentation-charges         1299 (set IRDMAX)


--------------------------------------------------------------------------------------------------------


 First call to EWALD:  gamma=   0.220
 Maximum number of real-space cells 3x 3x 3
 Maximum number of reciprocal cells 3x 3x 3

    FEWALD:  cpu time    0.0027: real time    0.0027


--------------------------------------- Iteration      1(   1)  ---------------------------------------


    POTLOK:  cpu time    0.0905: real time    0.1007
    SETDIJ:  cpu time    0.0093: real time    0.0094
     EDDAV:  cpu time   33.1881: real time   33.2688
    --------------------------------------------
      LOOP:  cpu time   33.2895: real time   33.3804

 eigenvalue-minimisations  : 12480
 total energy-change (2. order) : 0.5491772E+04  (-0.1776440E+05)
 number of electron     396.0000000 magnetization 
 augmentation part      396.0000000 magnetization 

 Free energy of the ion-electron system (eV)
  ---------------------------------------------------
  alpha Z        PSCENC =      1335.31602646
  Ewald energy   TEWEN  =    -22377.17004342
  -Hartree energ DENC   =    -13745.52064660
  -exchange      EXHF   =         0.00000000
  -V(xc)+E(xc)   XCENC  =      1602.62555203
  PAW double counting   =     29784.60368500   -31040.73694357
  entropy T*S    EENTRO =        -0.00643862
  eigenvalues    EBANDS =      5042.27904344
  atomic energy  EATOM  =     34890.38139807
  Solvation  Ediel_sol  =         0.00000000
  ---------------------------------------------------
  free energy    TOTEN  =      5491.77163279 eV

  energy without entropy =     5491.77807140  energy(sigma->0) =     5491.77485209


--------------------------------------------------------------------------------------------------------




--------------------------------------- Iteration      1(   2)  ---------------------------------------


     EDDAV:  cpu time   32.8447: real time   32.9225
    --------------------------------------------
      LOOP:  cpu time   32.8446: real time   32.9224

 eigenvalue-minimisations  : 12944
 total energy-change (2. order) :-0.4727174E+04  (-0.4389607E+04)
 number of electron     396.0000000 magnetization 
 augmentation part      396.0000000 magnetization 

 Free energy of the ion-electron system (eV)
  ---------------------------------------------------
  alpha Z        PSCENC =      1335.31602646
  Ewald energy   TEWEN  =    -22377.17004342
  -Hartree energ DENC   =    -13745.52064660
  -exchange      EXHF   =         0.00000000
  -V(xc)+E(xc)   XCENC  =      1602.62555203
  PAW double counting   =     29784.60368500   -31040.73694357
  entropy T*S    EENTRO =        -0.02374429
  eigenvalues    EBANDS =       315.12217070
  atomic energy  EATOM  =     34890.38139807
  Solvation  Ediel_sol  =         0.00000000
  ---------------------------------------------------
  free energy    TOTEN  =       764.59745437 eV

  energy without entropy =      764.62119867  energy(sigma->0) =      764.60932652


--------------------------------------------------------------------------------------------------------




--------------------------------------- Iteration      1(   3)  ---------------------------------------


     EDDAV:  cpu time   33.6834: real time   33.7632
    --------------------------------------------
      LOOP:  cpu time   33.6831: real time   33.7629

 eigenvalue-minimisations  : 13312
 total energy-change (2. order) :-0.1100129E+04  (-0.9644940E+03)
 number of electron     396.0000000 magnetization 
 augmentation part      396.0000000 magnetization 

 Free energy of the ion-electron system (eV)
  ---------------------------------------------------
  alpha Z        PSCENC =      1335.31602646
  Ewald energy   TEWEN  =    -22377.17004342
  -Hartree energ DENC   =    -13745.52064660
  -exchange      EXHF   =         0.00000000
  -V(xc)+E(xc)   XCENC  =      1602.62555203
  PAW double counting   =     29784.60368500   -31040.73694357
  entropy T*S    EENTRO =        -0.00000006
  eigenvalues    EBANDS =      -785.03086708
  atomic energy  EATOM  =     34890.38139807
  Solvation  Ediel_sol  =         0.00000000
  ---------------------------------------------------
  free energy    TOTEN  =      -335.53183917 eV

  energy without entropy =     -335.53183911  energy(sigma->0) =     -335.53183914


--------------------------------------------------------------------------------------------------------




--------------------------------------- Iteration      1(   4)  ---------------------------------------


     EDDAV:  cpu time   33.5775: real time   33.6569
    --------------------------------------------
      LOOP:  cpu time   33.5771: real time   33.6566

 eigenvalue-minimisations  : 13296
 total energy-change (2. order) :-0.1125849E+03  (-0.1104045E+03)
 number of electron     396.0000000 magnetization 
 augmentation part      396.0000000 magnetization 

 Free energy of the ion-electron system (eV)
  ---------------------------------------------------
  alpha Z        PSCENC =      1335.31602646
  Ewald energy   TEWEN  =    -22377.17004342
  -Hartree energ DENC   =    -13745.52064660
  -exchange      EXHF   =         0.00000000
  -V(xc)+E(xc)   XCENC  =      1602.62555203
  PAW double counting   =     29784.60368500   -31040.73694357
  entropy T*S    EENTRO =        -0.00000000
  eigenvalues    EBANDS =      -897.61577839
  atomic energy  EATOM  =     34890.38139807
  Solvation  Ediel_sol  =         0.00000000
  ---------------------------------------------------
  free energy    TOTEN  =      -448.11675043 eV

  energy without entropy =     -448.11675043  energy(sigma->0) =     -448.11675043


--------------------------------------------------------------------------------------------------------




--------------------------------------- Iteration      1(   5)  ---------------------------------------


     EDDAV:  cpu time   34.4321: real time   34.5134
    CHARGE:  cpu time    1.3830: real time    1.3864
    MIXING:  cpu time    0.0023: real time    0.0023
    --------------------------------------------
      LOOP:  cpu time   35.8165: real time   35.9013

 eigenvalue-minimisations  : 13984
 total energy-change (2. order) :-0.3333366E+01  (-0.3327129E+01)
 number of electron     396.0000055 magnetization 
 augmentation part      114.3514309 magnetization 

 Broyden mixing:
  rms(total) = 0.14469E+02    rms(broyden)= 0.14466E+02
  rms(prec ) = 0.16890E+02
  weight for this iteration     100.00

 Free energy of the ion-electron system (eV)
  ---------------------------------------------------
  alpha Z        PSCENC =      1335.31602646
  Ewald energy   TEWEN  =    -22377.17004342
  -Hartree energ DENC   =    -13745.52064660
  -exchange      EXHF   =         0.00000000
  -V(xc)+E(xc)   XCENC  =      1602.62555203
  PAW double counting   =     29784.60368500   -31040.73694357
  entropy T*S    EENTRO =        -0.00000000
  eigenvalues    EBANDS =      -900.94914427
  atomic energy  EATOM  =     34890.38139807
  Solvation  Ediel_sol  =         0.00000000
  ---------------------------------------------------
  free energy    TOTEN  =      -451.45011631 eV

  energy without entropy =     -451.45011631  energy(sigma->0) =     -451.45011631


--------------------------------------------------------------------------------------------------------




--------------------------------------- Iteration      1(   6)  ---------------------------------------


    POTLOK:  cpu time    0.0676: real time    0.0677
    SETDIJ:  cpu time    0.0093: real time    0.0093
     EDDAV:  cpu time   44.7127: real time   44.8184
    CHARGE:  cpu time    1.3964: real time    1.3997
    MIXING:  cpu time    0.0025: real time    0.0026
    --------------------------------------------
      LOOP:  cpu time   46.1885: real time   46.2977

 eigenvalue-minimisations  : 19312
 total energy-change (2. order) :-0.6590800E+02  (-0.1044457E+03)
 number of electron     396.0000053 magnetization 
 augmentation part      154.1656784 magnetization 

 Broyden mixing:
  rms(total) = 0.20990E+02    rms(broyden)= 0.20988E+02
  rms(prec ) = 0.23551E+02
  weight for this iteration     100.00

 eigenvalues of (default mixing * dielectric matrix)
  average eigenvalue GAMMA=   0.2305
  0.2305

 Free energy of the ion-electron system (eV)
  ---------------------------------------------------
  alpha Z        PSCENC =      1335.31602646
  Ewald energy   TEWEN  =    -22377.17004342
  -Hartree energ DENC   =    -13096.30605591
  -exchange      EXHF   =         0.00000000
  -V(xc)+E(xc)   XCENC  =      1600.72145594
  PAW double counting   =     34626.50886317   -35693.67197898
  entropy T*S    EENTRO =        -0.03241035
  eigenvalues    EBANDS =     -1803.10536921
  atomic energy  EATOM  =     34890.38139807
  Solvation  Ediel_sol  =         0.00000000
  ---------------------------------------------------
  free energy    TOTEN  =      -517.35811422 eV

  energy without entropy =     -517.32570387  energy(sigma->0) =     -517.34190905


--------------------------------------------------------------------------------------------------------




--------------------------------------- Iteration      1(   7)  ---------------------------------------


    POTLOK:  cpu time    0.0691: real time    0.0692
    SETDIJ:  cpu time    0.0093: real time    0.0093
     EDDAV:  cpu time   41.9851: real time   42.0844
    CHARGE:  cpu time    1.3937: real time    1.3970
    MIXING:  cpu time    0.0021: real time    0.0021
    --------------------------------------------
      LOOP:  cpu time   43.4593: real time   43.5621

 eigenvalue-minimisations  : 17552
 total energy-change (2. order) : 0.1856223E+03  (-0.3057689E+02)
 number of electron     396.0000043 magnetization 
 augmentation part      136.4647148 magnetization 

 Broyden mixing:
  rms(total) = 0.60735E+01    rms(broyden)= 0.60718E+01
  rms(prec ) = 0.74143E+01
  weight for this iteration     100.00

 eigenvalues of (default mixing * dielectric matrix)
  average eigenvalue GAMMA=   0.6459
  0.8336  0.4581

 Free energy of the ion-electron system (eV)
  ---------------------------------------------------
  alpha Z        PSCENC =      1335.31602646
  Ewald energy   TEWEN  =    -22377.17004342
  -Hartree energ DENC   =    -13399.55484215
  -exchange      EXHF   =         0.00000000
  -V(xc)+E(xc)   XCENC  =      1605.57066311
  PAW double counting   =     36470.97096713   -37692.82176626
  entropy T*S    EENTRO =        -0.00031868
  eigenvalues    EBANDS =     -1164.42787276
  atomic energy  EATOM  =     34890.38139807
  Solvation  Ediel_sol  =         0.00000000
  ---------------------------------------------------
  free energy    TOTEN  =      -331.73578849 eV

  energy without entropy =     -331.73546981  energy(sigma->0) =     -331.73562915


--------------------------------------------------------------------------------------------------------




--------------------------------------- Iteration      1(   8)  ---------------------------------------


    POTLOK:  cpu time    0.0672: real time    0.0674
    SETDIJ:  cpu time    0.0093: real time    0.0094
     EDDAV:  cpu time   47.6670: real time   47.7797
    CHARGE:  cpu time    1.4350: real time    1.4384
    MIXING:  cpu time    0.0024: real time    0.0024
    --------------------------------------------
      LOOP:  cpu time   49.1809: real time   49.2973

 eigenvalue-minimisations  : 20560
 total energy-change (2. order) :-0.1560301E+02  (-0.1753830E+02)
 number of electron     396.0000048 magnetization 
 augmentation part      129.3026122 magnetization 

 Broyden mixing:
  rms(total) = 0.86862E+01    rms(broyden)= 0.86850E+01
  rms(prec ) = 0.11417E+02
  weight for this iteration     100.00

 eigenvalues of (default mixing * dielectric matrix)
  average eigenvalue GAMMA=   0.6156
  1.1267  0.4409  0.2793

 Free energy of the ion-electron system (eV)
  ---------------------------------------------------
  alpha Z        PSCENC =      1335.31602646
  Ewald energy   TEWEN  =    -22377.17004342
  -Hartree energ DENC   =    -13424.21785491
  -exchange      EXHF   =         0.00000000
  -V(xc)+E(xc)   XCENC  =      1601.12983259
  PAW double counting   =     38795.04637502   -40111.24155860
  entropy T*S    EENTRO =        -0.04728853
  eigenvalues    EBANDS =     -1056.53568970
  atomic energy  EATOM  =     34890.38139807
  Solvation  Ediel_sol  =         0.00000000
  ---------------------------------------------------
  free energy    TOTEN  =      -347.33880303 eV

  energy without entropy =     -347.29151450  energy(sigma->0) =     -347.31515876


--------------------------------------------------------------------------------------------------------




--------------------------------------- Iteration      1(   9)  ---------------------------------------


    POTLOK:  cpu time    0.0680: real time    0.0682
    SETDIJ:  cpu time    0.0093: real time    0.0093
     EDDAV:  cpu time   39.7968: real time   39.8910
    CHARGE:  cpu time    1.4502: real time    1.4536
    MIXING:  cpu time    0.0023: real time    0.0023
    --------------------------------------------
      LOOP:  cpu time   41.3265: real time   41.4244

 eigenvalue-minimisations  : 16208
 total energy-change (2. order) :-0.1284372E+02  (-0.2322435E+02)
 number of electron     396.0000054 magnetization 
 augmentation part      125.1453086 magnetization 

 Broyden mixing:
  rms(total) = 0.11017E+02    rms(broyden)= 0.11016E+02
  rms(prec ) = 0.15742E+02
  weight for this iteration     100.00

 eigenvalues of (default mixing * dielectric matrix)
  average eigenvalue GAMMA=   0.5773
  1.4100  0.3783  0.3783  0.1425

 Free energy of the ion-electron system (eV)
  ---------------------------------------------------
  alpha Z        PSCENC =      1335.31602646
  Ewald energy   TEWEN  =    -22377.17004342
  -Hartree energ DENC   =    -13392.04999215
  -exchange      EXHF   =         0.00000000
  -V(xc)+E(xc)   XCENC  =      1598.44214648
  PAW double counting   =     40460.66678371   -41794.80141167
  entropy T*S    EENTRO =        -0.04130750
  eigenvalues    EBANDS =     -1080.92611948
  atomic energy  EATOM  =     34890.38139807
  Solvation  Ediel_sol  =         0.00000000
  ---------------------------------------------------
  free energy    TOTEN  =      -360.18251952 eV

  energy without entropy =     -360.14121201  energy(sigma->0) =     -360.16186577


--------------------------------------------------------------------------------------------------------




--------------------------------------- Iteration      1(  10)  ---------------------------------------


    POTLOK:  cpu time    0.0669: real time    0.0671
    SETDIJ:  cpu time    0.0091: real time    0.0091
     EDDAV:  cpu time   43.1375: real time   43.2395
    CHARGE:  cpu time    1.4443: real time    1.4477
    MIXING:  cpu time    0.0023: real time    0.0023
    --------------------------------------------
      LOOP:  cpu time   44.6601: real time   44.7657

 eigenvalue-minimisations  : 17984
 total energy-change (2. order) : 0.3394550E+02  (-0.1710067E+02)
 number of electron     396.0000056 magnetization 
 augmentation part      127.7578033 magnetization 

 Broyden mixing:
  rms(total) = 0.40624E+01    rms(broyden)= 0.40611E+01
  rms(prec ) = 0.56148E+01
  weight for this iteration     100.00

 eigenvalues of (default mixing * dielectric matrix)
  average eigenvalue GAMMA=   0.5556
  1.5188  0.3913  0.3913  0.3617  0.1150

 Free energy of the ion-electron system (eV)
  ---------------------------------------------------
  alpha Z        PSCENC =      1335.31602646
  Ewald energy   TEWEN  =    -22377.17004342
  -Hartree energ DENC   =    -13357.68428792
  -exchange      EXHF   =         0.00000000
  -V(xc)+E(xc)   XCENC  =      1597.53599021
  PAW double counting   =     41630.66577068   -42974.81233951
  entropy T*S    EENTRO =        -0.03080745
  eigenvalues    EBANDS =     -1070.43873061
  atomic energy  EATOM  =     34890.38139807
  Solvation  Ediel_sol  =         0.00000000
  ---------------------------------------------------
  free energy    TOTEN  =      -326.23702349 eV

  energy without entropy =     -326.20621604  energy(sigma->0) =     -326.22161976


--------------------------------------------------------------------------------------------------------




--------------------------------------- Iteration      1(  11)  ---------------------------------------


    POTLOK:  cpu time    0.0673: real time    0.0675
    SETDIJ:  cpu time    0.0100: real time    0.0100
     EDDAV:  cpu time   42.1551: real time   42.2548
    CHARGE:  cpu time    1.4309: real time    1.4343
    MIXING:  cpu time    0.0026: real time    0.0026
    --------------------------------------------
      LOOP:  cpu time   43.6659: real time   43.7692

 eigenvalue-minimisations  : 17520
 total energy-change (2. order) : 0.7572480E+01  (-0.4628510E+01)
 number of electron     396.0000052 magnetization 
 augmentation part      128.7144358 magnetization 

 Broyden mixing:
  rms(total) = 0.26087E+01    rms(broyden)= 0.26079E+01
  rms(prec ) = 0.34173E+01
  weight for this iteration     100.00

 eigenvalues of (default mixing * dielectric matrix)
  average eigenvalue GAMMA=   0.5626
  1.7010  0.5052  0.5052  0.3577  0.1893  0.1173

 Free energy of the ion-electron system (eV)
  ---------------------------------------------------
  alpha Z        PSCENC =      1335.31602646
  Ewald energy   TEWEN  =    -22377.17004342
  -Hartree energ DENC   =    -13346.17919356
  -exchange      EXHF   =         0.00000000
  -V(xc)+E(xc)   XCENC  =      1597.87284052
  PAW double counting   =     42145.59273894   -43492.25460475
  entropy T*S    EENTRO =        -0.00000538
  eigenvalues    EBANDS =     -1072.22370085
  atomic energy  EATOM  =     34890.38139807
  Solvation  Ediel_sol  =         0.00000000
  ---------------------------------------------------
  free energy    TOTEN  =      -318.66454396 eV

  energy without entropy =     -318.66453858  energy(sigma->0) =     -318.66454127


--------------------------------------------------------------------------------------------------------




--------------------------------------- Iteration      1(  12)  ---------------------------------------


    POTLOK:  cpu time    0.0682: real time    0.0684
    SETDIJ:  cpu time    0.0092: real time    0.0093
     EDDAV:  cpu time   45.2826: real time   45.3899
    CHARGE:  cpu time    1.4041: real time    1.4075
    MIXING:  cpu time    0.0026: real time    0.0026
    --------------------------------------------
      LOOP:  cpu time   46.7668: real time   46.8775

 eigenvalue-minimisations  : 19104
 total energy-change (2. order) : 0.3921484E+01  (-0.1227260E+01)
 number of electron     396.0000050 magnetization 
 augmentation part      129.1465511 magnetization 

 Broyden mixing:
  rms(total) = 0.12428E+01    rms(broyden)= 0.12423E+01
  rms(prec ) = 0.15393E+01
  weight for this iteration     100.00

 eigenvalues of (default mixing * dielectric matrix)
  average eigenvalue GAMMA=   0.5784
  1.8544  0.5528  0.5528  0.3776  0.3776  0.2171  0.1167

 Free energy of the ion-electron system (eV)
  ---------------------------------------------------
  alpha Z        PSCENC =      1335.31602646
  Ewald energy   TEWEN  =    -22377.17004342
  -Hartree energ DENC   =    -13352.83629453
  -exchange      EXHF   =         0.00000000
  -V(xc)+E(xc)   XCENC  =      1598.71407773
  PAW double counting   =     42737.14835186   -44087.67659248
  entropy T*S    EENTRO =        -0.00003750
  eigenvalues    EBANDS =     -1058.61994587
  atomic energy  EATOM  =     34890.38139807
  Solvation  Ediel_sol  =         0.00000000
  ---------------------------------------------------
  free energy    TOTEN  =      -314.74305969 eV

  energy without entropy =     -314.74302219  energy(sigma->0) =     -314.74304094


--------------------------------------------------------------------------------------------------------




--------------------------------------- Iteration      1(  13)  ---------------------------------------


    POTLOK:  cpu time    0.0673: real time    0.0675
    SETDIJ:  cpu time    0.0091: real time    0.0092
     EDDAV:  cpu time   42.2489: real time   42.3487
    CHARGE:  cpu time    1.3910: real time    1.3944
    MIXING:  cpu time    0.0029: real time    0.0029
    --------------------------------------------
      LOOP:  cpu time   43.7192: real time   43.8226

 eigenvalue-minimisations  : 17888
 total energy-change (2. order) : 0.6355648E-01  (-0.5198030E+00)
 number of electron     396.0000050 magnetization 
 augmentation part      129.4164826 magnetization 

 Broyden mixing:
  rms(total) = 0.10648E+01    rms(broyden)= 0.10646E+01
  rms(prec ) = 0.13608E+01
  weight for this iteration     100.00

 eigenvalues of (default mixing * dielectric matrix)
  average eigenvalue GAMMA=   0.6048
  2.0436  0.6591  0.6591  0.4395  0.4395  0.2783  0.2026  0.1167

 Free energy of the ion-electron system (eV)
  ---------------------------------------------------
  alpha Z        PSCENC =      1335.31602646
  Ewald energy   TEWEN  =    -22377.17004342
  -Hartree energ DENC   =    -13358.23220964
  -exchange      EXHF   =         0.00000000
  -V(xc)+E(xc)   XCENC  =      1599.30758771
  PAW double counting   =     43228.74967312   -44582.12245737
  entropy T*S    EENTRO =        -0.00000000
  eigenvalues    EBANDS =     -1050.90947815
  atomic energy  EATOM  =     34890.38139807
  Solvation  Ediel_sol  =         0.00000000
  ---------------------------------------------------
  free energy    TOTEN  =      -314.67950322 eV

  energy without entropy =     -314.67950322  energy(sigma->0) =     -314.67950322


--------------------------------------------------------------------------------------------------------




--------------------------------------- Iteration      1(  14)  ---------------------------------------


    POTLOK:  cpu time    0.0681: real time    0.0682
    SETDIJ:  cpu time    0.0091: real time    0.0091
     EDDAV:  cpu time   40.5100: real time   40.6058
    CHARGE:  cpu time    1.3213: real time    1.3244
    MIXING:  cpu time    0.0028: real time    0.0028
    --------------------------------------------
      LOOP:  cpu time   41.9113: real time   42.0104

 eigenvalue-minimisations  : 17040
 total energy-change (2. order) : 0.4278277E+00  (-0.2162343E+00)
 number of electron     396.0000050 magnetization 
 augmentation part      129.7899257 magnetization 

 Broyden mixing:
  rms(total) = 0.67318E+00    rms(broyden)= 0.67305E+00
  rms(prec ) = 0.81697E+00
  weight for this iteration     100.00

 eigenvalues of (default mixing * dielectric matrix)
  average eigenvalue GAMMA=   0.6444
  2.2687  0.7870  0.7870  0.5053  0.5053  0.3673  0.1167  0.2075  0.2549

 Free energy of the ion-electron system (eV)
  ---------------------------------------------------
  alpha Z        PSCENC =      1335.31602646
  Ewald energy   TEWEN  =    -22377.17004342
  -Hartree energ DENC   =    -13360.50737858
  -exchange      EXHF   =         0.00000000
  -V(xc)+E(xc)   XCENC  =      1599.68477069
  PAW double counting   =     43746.02378055   -45102.08895768
  entropy T*S    EENTRO =        -0.00000220
  eigenvalues    EBANDS =     -1045.89126941
  atomic energy  EATOM  =     34890.38139807
  Solvation  Ediel_sol  =         0.00000000
  ---------------------------------------------------
  free energy    TOTEN  =      -314.25167551 eV

  energy without entropy =     -314.25167331  energy(sigma->0) =     -314.25167441


--------------------------------------------------------------------------------------------------------




--------------------------------------- Iteration      1(  15)  ---------------------------------------


    POTLOK:  cpu time    0.0659: real time    0.0661
    SETDIJ:  cpu time    0.0095: real time    0.0096
     EDDAV:  cpu time   37.7190: real time   37.8084
    CHARGE:  cpu time    0.9513: real time    0.9535
    MIXING:  cpu time    0.0024: real time    0.0024
    --------------------------------------------
      LOOP:  cpu time   38.7481: real time   38.8399

 eigenvalue-minimisations  : 18368
 total energy-change (2. order) : 0.1468397E+00  (-0.7439928E-01)
 number of electron     396.0000050 magnetization 
 augmentation part      129.9475349 magnetization 

 Broyden mixing:
  rms(total) = 0.41996E+00    rms(broyden)= 0.41989E+00
  rms(prec ) = 0.51224E+00
  weight for this iteration     100.00

 eigenvalues of (default mixing * dielectric matrix)
  average eigenvalue GAMMA=   0.6563
  2.4179  0.8588  0.8588  0.5519  0.5519  0.3741  0.3741  0.1167  0.2052  0.2533

 Free energy of the ion-electron system (eV)
  ---------------------------------------------------
  alpha Z        PSCENC =      1335.31602646
  Ewald energy   TEWEN  =    -22377.17004342
  -Hartree energ DENC   =    -13365.02933214
  -exchange      EXHF   =         0.00000000
  -V(xc)+E(xc)   XCENC  =      1599.97303038
  PAW double counting   =     44173.75036754   -45532.28944109
  entropy T*S    EENTRO =        -0.00000080
  eigenvalues    EBANDS =     -1039.03684080
  atomic energy  EATOM  =     34890.38139807
  Solvation  Ediel_sol  =         0.00000000
  ---------------------------------------------------
  free energy    TOTEN  =      -314.10483581 eV

  energy without entropy =     -314.10483501  energy(sigma->0) =     -314.10483541


--------------------------------------------------------------------------------------------------------




--------------------------------------- Iteration      1(  16)  ---------------------------------------


    POTLOK:  cpu time    0.0530: real time    0.0531
    SETDIJ:  cpu time    0.0078: real time    0.0078
     EDDAV:  cpu time   31.3102: real time   31.3842
    CHARGE:  cpu time    0.9443: real time    0.9465
    MIXING:  cpu time    0.0025: real time    0.0025
    --------------------------------------------
      LOOP:  cpu time   32.3177: real time   32.3941

 eigenvalue-minimisations  : 17392
 total energy-change (2. order) : 0.2997812E-01  (-0.3477884E-01)
 number of electron     396.0000050 magnetization 
 augmentation part      129.8916801 magnetization 

 Broyden mixing:
  rms(total) = 0.29981E+00    rms(broyden)= 0.29977E+00
  rms(prec ) = 0.37756E+00
  weight for this iteration     100.00

 eigenvalues of (default mixing * dielectric matrix)
  average eigenvalue GAMMA=   0.6871
  2.6164  1.3388  0.6666  0.6666  0.4970  0.4498  0.4498  0.1167  0.3045  0.2058
  0.2463

 Free energy of the ion-electron system (eV)
  ---------------------------------------------------
  alpha Z        PSCENC =      1335.31602646
  Ewald energy   TEWEN  =    -22377.17004342
  -Hartree energ DENC   =    -13369.73097163
  -exchange      EXHF   =         0.00000000
  -V(xc)+E(xc)   XCENC  =      1600.11659137
  PAW double counting   =     44376.03387683   -45735.17496138
  entropy T*S    EENTRO =        -0.00000198
  eigenvalues    EBANDS =     -1033.84677200
  atomic energy  EATOM  =     34890.38139807
  Solvation  Ediel_sol  =         0.00000000
  ---------------------------------------------------
  free energy    TOTEN  =      -314.07485768 eV

  energy without entropy =     -314.07485571  energy(sigma->0) =     -314.07485669


--------------------------------------------------------------------------------------------------------




--------------------------------------- Iteration      1(  17)  ---------------------------------------


    POTLOK:  cpu time    0.0529: real time    0.0530
    SETDIJ:  cpu time    0.0078: real time    0.0078
     EDDAV:  cpu time   29.2244: real time   29.3143
    CHARGE:  cpu time    0.9376: real time    0.9399
    MIXING:  cpu time    0.0027: real time    0.0027
    --------------------------------------------
      LOOP:  cpu time   30.2254: real time   30.3176

 eigenvalue-minimisations  : 15952
 total energy-change (2. order) : 0.1968720E-01  (-0.1511751E-01)
 number of electron     396.0000050 magnetization 
 augmentation part      129.8700478 magnetization 

 Broyden mixing:
  rms(total) = 0.22785E+00    rms(broyden)= 0.22782E+00
  rms(prec ) = 0.28158E+00
  weight for this iteration     100.00

 eigenvalues of (default mixing * dielectric matrix)
  average eigenvalue GAMMA=   0.6986
  2.6008  1.5271  0.7943  0.6492  0.6492  0.4782  0.4782  0.3666  0.1167  0.2056
  0.2496  0.2681

 Free energy of the ion-electron system (eV)
  ---------------------------------------------------
  alpha Z        PSCENC =      1335.31602646
  Ewald energy   TEWEN  =    -22377.17004342
  -Hartree energ DENC   =    -13373.14778599
  -exchange      EXHF   =         0.00000000
  -V(xc)+E(xc)   XCENC  =      1600.17362164
  PAW double counting   =     44505.19760675   -45863.99866441
  entropy T*S    EENTRO =        -0.00001487
  eigenvalues    EBANDS =     -1030.80731470
  atomic energy  EATOM  =     34890.38139807
  Solvation  Ediel_sol  =         0.00000000
  ---------------------------------------------------
  free energy    TOTEN  =      -314.05517049 eV

  energy without entropy =     -314.05515561  energy(sigma->0) =     -314.05516305


--------------------------------------------------------------------------------------------------------




--------------------------------------- Iteration      1(  18)  ---------------------------------------


    POTLOK:  cpu time    0.0526: real time    0.0527
    SETDIJ:  cpu time    0.0075: real time    0.0076
     EDDAV:  cpu time   28.4730: real time   28.5402
    CHARGE:  cpu time    0.9603: real time    0.9625
    MIXING:  cpu time    0.0029: real time    0.0029
    --------------------------------------------
      LOOP:  cpu time   29.4962: real time   29.5659

 eigenvalue-minimisations  : 15200
 total energy-change (2. order) : 0.8120357E-02  (-0.4951092E-02)
 number of electron     396.0000050 magnetization 
 augmentation part      129.8810139 magnetization 

 Broyden mixing:
  rms(total) = 0.16860E+00    rms(broyden)= 0.16859E+00
  rms(prec ) = 0.21050E+00
  weight for this iteration     100.00

 eigenvalues of (default mixing * dielectric matrix)
  average eigenvalue GAMMA=   0.7064
  2.6303  1.6380  0.8565  0.7327  0.7327  0.4996  0.4996  0.3777  0.3777  0.1167
  0.2057  0.2709  0.2451

 Free energy of the ion-electron system (eV)
  ---------------------------------------------------
  alpha Z        PSCENC =      1335.31602646
  Ewald energy   TEWEN  =    -22377.17004342
  -Hartree energ DENC   =    -13372.96665125
  -exchange      EXHF   =         0.00000000
  -V(xc)+E(xc)   XCENC  =      1600.10622542
  PAW double counting   =     44496.41718923   -45853.91879204
  entropy T*S    EENTRO =        -0.00000627
  eigenvalues    EBANDS =     -1032.21239632
  atomic energy  EATOM  =     34890.38139807
  Solvation  Ediel_sol  =         0.00000000
  ---------------------------------------------------
  free energy    TOTEN  =      -314.04705013 eV

  energy without entropy =     -314.04704386  energy(sigma->0) =     -314.04704700


--------------------------------------------------------------------------------------------------------




--------------------------------------- Iteration      1(  19)  ---------------------------------------


    POTLOK:  cpu time    0.0539: real time    0.0540
    SETDIJ:  cpu time    0.0076: real time    0.0076
     EDDAV:  cpu time   26.1325: real time   26.1944
    CHARGE:  cpu time    0.9640: real time    0.9663
    MIXING:  cpu time    0.0028: real time    0.0028
    --------------------------------------------
      LOOP:  cpu time   27.1608: real time   27.2251

 eigenvalue-minimisations  : 13744
 total energy-change (2. order) : 0.5527917E-02  (-0.2068402E-02)
 number of electron     396.0000050 magnetization 
 augmentation part      129.9085055 magnetization 

 Broyden mixing:
  rms(total) = 0.14134E+00    rms(broyden)= 0.14134E+00
  rms(prec ) = 0.17383E+00
  weight for this iteration     100.00

 eigenvalues of (default mixing * dielectric matrix)
  average eigenvalue GAMMA=   0.7325
  2.5223  1.6228  1.4304  0.7434  0.7434  0.7446  0.4602  0.4602  0.1167  0.3914
  0.2056  0.3080  0.2595  0.2464

 Free energy of the ion-electron system (eV)
  ---------------------------------------------------
  alpha Z        PSCENC =      1335.31602646
  Ewald energy   TEWEN  =    -22377.17004342
  -Hartree energ DENC   =    -13372.79136661
  -exchange      EXHF   =         0.00000000
  -V(xc)+E(xc)   XCENC  =      1600.07020554
  PAW double counting   =     44483.20133151   -45839.84613211
  entropy T*S    EENTRO =        -0.00000592
  eigenvalues    EBANDS =     -1033.20293572
  atomic energy  EATOM  =     34890.38139807
  Solvation  Ediel_sol  =         0.00000000
  ---------------------------------------------------
  free energy    TOTEN  =      -314.04152221 eV

  energy without entropy =     -314.04151629  energy(sigma->0) =     -314.04151925


--------------------------------------------------------------------------------------------------------




--------------------------------------- Iteration      1(  20)  ---------------------------------------


    POTLOK:  cpu time    0.0529: real time    0.0531
    SETDIJ:  cpu time    0.0079: real time    0.0079
     EDDAV:  cpu time   33.4229: real time   33.5018
    CHARGE:  cpu time    0.9986: real time    1.0010
    MIXING:  cpu time    0.0029: real time    0.0029
    --------------------------------------------
      LOOP:  cpu time   34.4852: real time   34.5667

 eigenvalue-minimisations  : 17920
 total energy-change (2. order) : 0.5479691E-02  (-0.9821088E-03)
 number of electron     396.0000050 magnetization 
 augmentation part      129.9197690 magnetization 

 Broyden mixing:
  rms(total) = 0.98282E-01    rms(broyden)= 0.98277E-01
  rms(prec ) = 0.12648E+00
  weight for this iteration     100.00

 eigenvalues of (default mixing * dielectric matrix)
  average eigenvalue GAMMA=   0.7511
  2.5449  1.7807  1.7807  0.8726  0.7061  0.7061  0.4702  0.4702  0.4469  0.1167
  0.3672  0.2056  0.2945  0.2605  0.2443

 Free energy of the ion-electron system (eV)
  ---------------------------------------------------
  alpha Z        PSCENC =      1335.31602646
  Ewald energy   TEWEN  =    -22377.17004342
  -Hartree energ DENC   =    -13372.32853682
  -exchange      EXHF   =         0.00000000
  -V(xc)+E(xc)   XCENC  =      1600.02753958
  PAW double counting   =     44450.03636548   -45805.73907976
  entropy T*S    EENTRO =        -0.00000760
  eigenvalues    EBANDS =     -1034.55970451
  atomic energy  EATOM  =     34890.38139807
  Solvation  Ediel_sol  =         0.00000000
  ---------------------------------------------------
  free energy    TOTEN  =      -314.03604252 eV

  energy without entropy =     -314.03603492  energy(sigma->0) =     -314.03603872


--------------------------------------------------------------------------------------------------------




--------------------------------------- Iteration      1(  21)  ---------------------------------------


    POTLOK:  cpu time    0.0541: real time    0.0543
    SETDIJ:  cpu time    0.0080: real time    0.0080
     EDDAV:  cpu time   34.3065: real time   34.3876
    CHARGE:  cpu time    0.9494: real time    0.9516
    MIXING:  cpu time    0.0028: real time    0.0029
    --------------------------------------------
      LOOP:  cpu time   35.3209: real time   35.4044

 eigenvalue-minimisations  : 18880
 total energy-change (2. order) : 0.3479996E-02  (-0.4064878E-03)
 number of electron     396.0000050 magnetization 
 augmentation part      129.9194703 magnetization 

 Broyden mixing:
  rms(total) = 0.69295E-01    rms(broyden)= 0.69292E-01
  rms(prec ) = 0.91141E-01
  weight for this iteration     100.00

 eigenvalues of (default mixing * dielectric matrix)
  average eigenvalue GAMMA=   0.7745
  2.7143  2.2623  1.6099  0.9700  0.6912  0.6912  0.5728  0.4907  0.4907  0.1167
  0.3877  0.3877  0.2056  0.2969  0.2580  0.2456

 Free energy of the ion-electron system (eV)
  ---------------------------------------------------
  alpha Z        PSCENC =      1335.31602646
  Ewald energy   TEWEN  =    -22377.17004342
  -Hartree energ DENC   =    -13372.51323061
  -exchange      EXHF   =         0.00000000
  -V(xc)+E(xc)   XCENC  =      1600.01563413
  PAW double counting   =     44437.22778289   -45792.43627892
  entropy T*S    EENTRO =        -0.00000946
  eigenvalues    EBANDS =     -1034.85384167
  atomic energy  EATOM  =     34890.38139807
  Solvation  Ediel_sol  =         0.00000000
  ---------------------------------------------------
  free energy    TOTEN  =      -314.03256253 eV

  energy without entropy =     -314.03255307  energy(sigma->0) =     -314.03255780


--------------------------------------------------------------------------------------------------------




--------------------------------------- Iteration      1(  22)  ---------------------------------------


    POTLOK:  cpu time    0.0538: real time    0.0539
    SETDIJ:  cpu time    0.0079: real time    0.0079
     EDDAV:  cpu time   33.5025: real time   33.5817
    CHARGE:  cpu time    0.9463: real time    0.9485
    MIXING:  cpu time    0.0034: real time    0.0119
    --------------------------------------------
      LOOP:  cpu time   34.5138: real time   34.6040

 eigenvalue-minimisations  : 18688
 total energy-change (2. order) : 0.1755997E-02  (-0.3218754E-03)
 number of electron     396.0000050 magnetization 
 augmentation part      129.9116943 magnetization 

 Broyden mixing:
  rms(total) = 0.50149E-01    rms(broyden)= 0.50147E-01
  rms(prec ) = 0.68536E-01
  weight for this iteration     100.00

 eigenvalues of (default mixing * dielectric matrix)
  average eigenvalue GAMMA=   0.7920
  2.9917  2.3634  1.6589  1.0750  0.7852  0.7021  0.7021  0.4751  0.4751  0.1167
  0.4131  0.4131  0.2056  0.3093  0.2750  0.2445  0.2582

 Free energy of the ion-electron system (eV)
  ---------------------------------------------------
  alpha Z        PSCENC =      1335.31602646
  Ewald energy   TEWEN  =    -22377.17004342
  -Hartree energ DENC   =    -13372.93886622
  -exchange      EXHF   =         0.00000000
  -V(xc)+E(xc)   XCENC  =      1600.01786197
  PAW double counting   =     44430.49438135   -45785.44077897
  entropy T*S    EENTRO =        -0.00001414
  eigenvalues    EBANDS =     -1034.69077162
  atomic energy  EATOM  =     34890.38139807
  Solvation  Ediel_sol  =         0.00000000
  ---------------------------------------------------
  free energy    TOTEN  =      -314.03080653 eV

  energy without entropy =     -314.03079239  energy(sigma->0) =     -314.03079946


--------------------------------------------------------------------------------------------------------




--------------------------------------- Iteration      1(  23)  ---------------------------------------


    POTLOK:  cpu time    0.0541: real time    0.0542
    SETDIJ:  cpu time    0.0077: real time    0.0078
     EDDAV:  cpu time   41.2093: real time   41.3114
    CHARGE:  cpu time    1.3698: real time    1.3730
    MIXING:  cpu time    0.0038: real time    0.0038
    --------------------------------------------
      LOOP:  cpu time   42.6447: real time   42.7503

 eigenvalue-minimisations  : 18832
 total energy-change (2. order) : 0.1397029E-02  (-0.1881898E-03)
 number of electron     396.0000050 magnetization 
 augmentation part      129.9034011 magnetization 

 Broyden mixing:
  rms(total) = 0.32135E-01    rms(broyden)= 0.32133E-01
  rms(prec ) = 0.46133E-01
  weight for this iteration     100.00

 eigenvalues of (default mixing * dielectric matrix)
  average eigenvalue GAMMA=   0.8062
  3.0784  2.4912  1.6253  1.1175  1.0739  0.7128  0.7128  0.4759  0.4759  0.4949
  0.4949  0.1167  0.3671  0.2056  0.3002  0.2692  0.2453  0.2539

 Free energy of the ion-electron system (eV)
  ---------------------------------------------------
  alpha Z        PSCENC =      1335.31602646
  Ewald energy   TEWEN  =    -22377.17004342
  -Hartree energ DENC   =    -13373.43228287
  -exchange      EXHF   =         0.00000000
  -V(xc)+E(xc)   XCENC  =      1600.02898041
  PAW double counting   =     44423.67223011   -45778.46098440
  entropy T*S    EENTRO =        -0.00002134
  eigenvalues    EBANDS =     -1034.36471252
  atomic energy  EATOM  =     34890.38139807
  Solvation  Ediel_sol  =         0.00000000
  ---------------------------------------------------
  free energy    TOTEN  =      -314.02940950 eV

  energy without entropy =     -314.02938816  energy(sigma->0) =     -314.02939883


--------------------------------------------------------------------------------------------------------




--------------------------------------- Iteration      1(  24)  ---------------------------------------


    POTLOK:  cpu time    0.0681: real time    0.0683
    SETDIJ:  cpu time    0.0093: real time    0.0093
     EDDAV:  cpu time   45.0922: real time   45.2668
    CHARGE:  cpu time    1.4635: real time    1.4669
    MIXING:  cpu time    0.0042: real time    0.0042
    --------------------------------------------
      LOOP:  cpu time   46.6373: real time   46.8156

 eigenvalue-minimisations  : 18496
 total energy-change (2. order) : 0.6568547E-03  (-0.1114799E-03)
 number of electron     396.0000050 magnetization 
 augmentation part      129.9007941 magnetization 

 Broyden mixing:
  rms(total) = 0.22463E-01    rms(broyden)= 0.22462E-01
  rms(prec ) = 0.33036E-01
  weight for this iteration     100.00

 eigenvalues of (default mixing * dielectric matrix)
  average eigenvalue GAMMA=   0.8385
  3.3176  2.6529  1.6000  1.6000  1.0520  0.7216  0.7216  0.6664  0.1167  0.4787
  0.4787  0.4403  0.4403  0.3764  0.2056  0.2991  0.2448  0.2641  0.2549

 Free energy of the ion-electron system (eV)
  ---------------------------------------------------
  alpha Z        PSCENC =      1335.31602646
  Ewald energy   TEWEN  =    -22377.17004342
  -Hartree energ DENC   =    -13373.78788059
  -exchange      EXHF   =         0.00000000
  -V(xc)+E(xc)   XCENC  =      1600.04542056
  PAW double counting   =     44417.89468176   -45772.65504302
  entropy T*S    EENTRO =        -0.00002841
  eigenvalues    EBANDS =     -1034.05328406
  atomic energy  EATOM  =     34890.38139807
  Solvation  Ediel_sol  =         0.00000000
  ---------------------------------------------------
  free energy    TOTEN  =      -314.02875265 eV

  energy without entropy =     -314.02872424  energy(sigma->0) =     -314.02873844


--------------------------------------------------------------------------------------------------------




--------------------------------------- Iteration      1(  25)  ---------------------------------------


    POTLOK:  cpu time    0.0682: real time    0.0684
    SETDIJ:  cpu time    0.0096: real time    0.0096
     EDDAV:  cpu time   44.5313: real time   44.6367
    CHARGE:  cpu time    1.3730: real time    1.3763
    MIXING:  cpu time    0.0041: real time    0.0041
    --------------------------------------------
      LOOP:  cpu time   45.9862: real time   46.0951

 eigenvalue-minimisations  : 18592
 total energy-change (2. order) : 0.3333856E-03  (-0.7920931E-04)
 number of electron     396.0000050 magnetization 
 augmentation part      129.9004644 magnetization 

 Broyden mixing:
  rms(total) = 0.15772E-01    rms(broyden)= 0.15771E-01
  rms(prec ) = 0.23242E-01
  weight for this iteration     100.00

 eigenvalues of (default mixing * dielectric matrix)
  average eigenvalue GAMMA=   0.8635
  3.9884  2.5458  1.7830  1.7830  0.8966  0.8966  0.7114  0.7114  0.4797  0.4797
  0.4734  0.4734  0.1167  0.3755  0.2056  0.3036  0.2893  0.2618  0.2446  0.2507

 Free energy of the ion-electron system (eV)
  ---------------------------------------------------
  alpha Z        PSCENC =      1335.31602646
  Ewald energy   TEWEN  =    -22377.17004342
  -Hartree energ DENC   =    -13374.01061594
  -exchange      EXHF   =         0.00000000
  -V(xc)+E(xc)   XCENC  =      1600.05821377
  PAW double counting   =     44413.80753110   -45768.54111324
  entropy T*S    EENTRO =        -0.00003296
  eigenvalues    EBANDS =     -1033.86978311
  atomic energy  EATOM  =     34890.38139807
  Solvation  Ediel_sol  =         0.00000000
  ---------------------------------------------------
  free energy    TOTEN  =      -314.02841926 eV

  energy without entropy =     -314.02838631  energy(sigma->0) =     -314.02840278


--------------------------------------------------------------------------------------------------------




--------------------------------------- Iteration      1(  26)  ---------------------------------------


    POTLOK:  cpu time    0.0668: real time    0.0670
    SETDIJ:  cpu time    0.0093: real time    0.0093
     EDDAV:  cpu time   43.7336: real time   43.8373
    CHARGE:  cpu time    1.4114: real time    1.4147
    MIXING:  cpu time    0.0043: real time    0.0043
    --------------------------------------------
      LOOP:  cpu time   45.2254: real time   45.3327

 eigenvalue-minimisations  : 18272
 total energy-change (2. order) : 0.2286623E-03  (-0.5046012E-04)
 number of electron     396.0000050 magnetization 
 augmentation part      129.9007429 magnetization 

 Broyden mixing:
[...]
  0.399   0.874  -0.118  -0.252  -0.810  -0.401  -0.956   0.102   0.285   0.859  -0.353   0.102   1.060  -0.044  -0.091  -0.184
 -0.415   0.560  -0.230   0.127  -0.616   0.425  -0.613   0.240  -0.127   0.676  -0.093   0.024  -0.044   0.744   0.046   0.006
 -0.190  -0.287  -0.494  -0.374   0.414   0.189   0.313   0.480   0.397  -0.414  -0.251   0.077  -0.091   0.046   1.140   0.013
 -0.085  -0.140   0.050   0.030   0.172   0.069   0.144  -0.031  -0.037  -0.154   0.066  -0.028  -0.184   0.006   0.013   0.050
  0.025  -0.137   0.007  -0.042   0.085  -0.034   0.120  -0.022   0.023  -0.099   0.007  -0.004   0.007  -0.115  -0.004  -0.002
 -0.049   0.023   0.084   0.018  -0.104   0.020  -0.031  -0.075  -0.041   0.087   0.048  -0.020   0.013  -0.003  -0.199  -0.004


------------------------ aborting loop because EDIFF is reached ----------------------------------------


    CHARGE:  cpu time    1.5185: real time    1.5221
    FORLOC:  cpu time    0.0363: real time    0.0388
    FORNL :  cpu time    9.8811: real time    9.9045
    STRESS:  cpu time   30.0504: real time   30.1222
    FORCOR:  cpu time    0.0951: real time    0.0954
    FORHAR:  cpu time    0.0457: real time    0.0458
    MIXING:  cpu time    0.0051: real time    0.0078
    OFIELD:  cpu time    0.0001: real time    0.0001

  FORCE on cell =-STRESS in cart. coord.  units (eV):
  Direction    XX          YY          ZZ          XY          YZ          ZX
  --------------------------------------------------------------------------------------
  Alpha Z  1335.31603  1335.31603  1335.31603
  Ewald    -669.71668  -723.32731-20984.27808  -206.64558  -126.23323    66.74647
  Hartree  9203.18101  9179.32008 -5008.28929   -86.45395   -46.73027    19.78001
  E(xc)   -2041.21615 -2041.03716 -2044.12788     0.18378     0.18109    -0.23547
  Local  -16289.64271-16209.42287 17838.35612   274.57918   160.97913   -84.53382
  n-local  -777.30137  -780.15689  -834.05229    -5.98975    -4.03828     5.49234
  augment  3315.62299  3313.64612  3435.52773     9.20214     5.09736    -1.00355
  Kinetic  6059.96539  6059.05886  6342.72684     3.99303     1.00719     4.55604
  Fock        0.00000     0.00000     0.00000     0.00000     0.00000     0.00000
  -------------------------------------------------------------------------------------
  Total      136.2084968    133.3968638     81.1791724    -11.1311484     -9.7370161     10.8020224
  in kB      420.0877065    411.4162032    250.3689063    -34.3301534    -30.0304377     33.3150788
  external PRESSURE =     360.6242720 kB  Pullay stress =       0.0000000 kB


 VOLUME and BASIS-vectors are now :
 -----------------------------------------------------------------------------
  energy-cutoff  :      500.00
  volume of cell :      519.49
      direct lattice vectors                 reciprocal lattice vectors
     8.153798250  0.000000000  0.000000000     0.122642230  0.070807524  0.000000000
    -4.076899120  7.061396420  0.000000000     0.000000000  0.141615049  0.000000000
     0.000000000  0.000000000  9.022445250     0.000000000  0.000000000  0.110834699

  length of vectors
     8.153798250  8.153798246  9.022445250     0.141615049  0.141615049  0.110834699


 FORCES acting on ions
    electron-ion (+dipol)            ewald-force                    non-local-force                 convergence-correction
 -----------------------------------------------------------------------------------------------
   -.102E+03 -.103E+03 -.308E+02   0.110E+03 0.114E+03 0.347E+02   -.155E+01 -.173E+01 0.557E+00   0.128E-01 0.648E-01 -.139E-01
   -.511E+02 -.112E+03 0.679E+01   0.582E+02 0.121E+03 -.570E+01   0.102E+01 -.232E+00 -.293E+00   0.246E-01 0.527E-01 0.624E-02
   0.408E+02 -.105E+03 0.696E+01   -.398E+02 0.111E+03 -.380E+01   0.857E+00 -.923E+00 0.853E+00   0.944E-02 -.114E-02 -.504E-02
   -.115E+02 0.350E+02 0.156E+02   0.152E+02 -.380E+02 -.134E+02   -.544E+00 0.379E+00 -.407E+00   -.213E-01 -.409E-02 -.101E-02
   -.162E+03 0.897E+01 -.768E+01   0.175E+03 -.786E+01 0.134E+02   -.156E+01 0.121E+01 0.194E+01   0.626E-01 -.103E-01 -.155E-01
   -.274E+02 0.565E+02 0.531E+02   0.302E+02 -.562E+02 -.551E+02   0.195E+00 0.562E+00 -.147E+01   0.574E-01 -.485E-02 -.331E-02
   0.308E+02 -.259E+02 0.106E+01   -.348E+02 0.271E+02 0.580E+00   0.213E-01 0.322E+00 0.127E+01   0.156E-01 0.919E-02 -.727E-02
   -.153E+03 -.168E+02 -.387E+02   0.161E+03 0.162E+02 0.383E+02   -.756E+00 0.284E+00 -.779E+00   0.236E-01 0.767E-02 -.141E-01
   -.690E+02 -.540E+02 0.549E+01   0.708E+02 0.556E+02 -.304E+01   -.115E+00 -.285E-01 0.142E+01   -.272E-01 -.267E-01 -.520E-02
   0.810E+02 0.248E+02 0.944E+02   -.879E+02 -.282E+02 -.926E+02   0.188E+00 0.388E+00 0.113E+01   -.960E-02 -.550E-01 0.400E-02
   -.429E+02 -.804E+01 -.241E+02   0.458E+02 0.898E+01 0.257E+02   0.640E+00 -.315E+00 0.103E+00   -.277E-01 -.778E-02 -.250E-03
   0.695E+02 -.929E+01 0.482E+02   -.755E+02 0.979E+01 -.468E+02   0.618E+00 0.629E+00 0.168E+01   -.652E-01 0.138E-01 -.410E-03
   0.137E+03 -.705E+02 0.102E+02   -.145E+03 0.791E+02 -.911E+01   0.188E+01 0.215E+00 0.144E+01   -.350E-01 0.500E-01 -.815E-02
   0.747E+02 -.110E+03 0.432E+02   -.787E+02 0.116E+03 -.423E+02   0.191E+01 -.128E+01 -.766E+00   -.516E-01 0.703E-01 -.593E-02
   -.285E+02 0.106E+03 -.495E+02   0.323E+02 -.113E+03 0.531E+02   0.238E-01 0.223E+00 0.884E+00   0.213E-01 -.579E-01 -.686E-02
   0.494E+02 0.111E+02 0.540E+02   -.511E+02 -.122E+02 -.546E+02   -.730E+00 0.224E+00 -.174E+01   0.327E-01 -.632E-01 -.917E-02
   0.890E+02 0.163E+03 -.209E+02   -.939E+02 -.171E+03 0.226E+02   0.116E+01 0.141E+01 0.123E+00   -.229E-01 0.152E-02 -.673E-02
   -.826E+02 0.990E+02 0.126E+02   0.873E+02 -.102E+03 -.101E+02   0.256E+00 0.142E+01 0.452E-02   -.709E-02 0.241E-02 0.248E-02
   -.433E+02 -.180E+02 -.458E+03   0.438E+02 0.154E+02 0.488E+03   -.287E-02 0.136E+01 -.268E+02   -.721E-02 0.132E-01 0.109E-01
   0.265E+02 -.575E+02 0.406E+03   -.350E+02 0.566E+02 -.436E+03   0.581E+01 0.339E+01 0.283E+02   0.249E-01 -.625E-02 0.286E-01
   -.441E+02 -.536E+02 -.320E+03   0.487E+02 0.547E+02 0.344E+03   -.373E+01 -.746E+00 -.248E+02   -.107E-01 0.578E-02 -.198E-01
   -.513E+02 -.154E+02 0.384E+03   0.523E+02 0.119E+02 -.412E+03   -.207E+00 0.193E+01 0.246E+02   0.589E-02 0.897E-02 -.226E-01
   0.522E+02 -.536E+00 -.441E+03   -.609E+02 -.189E+01 0.468E+03   0.571E+01 0.141E+01 -.256E+02   0.206E-01 -.123E-01 0.183E-01
   -.305E+02 0.121E+02 0.370E+03   0.313E+02 -.148E+02 -.399E+03   0.150E+01 0.231E+01 0.278E+02   -.258E-01 -.965E-02 0.227E-01
   -.590E+02 -.134E+02 -.335E+03   0.657E+02 0.144E+02 0.363E+03   -.473E+01 -.715E+00 -.262E+02   -.432E-02 -.935E-02 -.276E-01
   -.291E+02 -.236E+02 0.393E+03   0.294E+02 0.239E+02 -.423E+03   0.570E+00 0.178E+00 0.248E+02   -.139E-01 -.765E-02 -.874E-02
   -.931E+02 0.203E+02 -.458E+03   0.101E+03 -.232E+02 0.488E+03   -.455E+01 0.275E+00 -.274E+02   0.228E-01 0.228E-01 0.244E-01
   -.170E+02 0.396E+02 0.370E+03   0.156E+02 -.415E+02 -.398E+03   0.874E+00 0.514E+00 0.279E+02   0.371E-02 0.181E-01 0.268E-01
   -.326E+02 0.132E+02 -.378E+03   0.306E+02 -.137E+02 0.411E+03   0.185E+01 -.303E+01 -.287E+02   0.304E-01 0.113E-01 -.277E-01
   -.396E+00 0.200E+02 0.386E+03   -.203E+01 -.228E+02 -.416E+03   0.150E+01 0.172E+01 0.267E+02   0.239E-01 0.827E-02 -.234E-01
   0.891E+01 -.169E+02 -.427E+03   -.116E+02 0.168E+02 0.455E+03   0.147E+01 0.759E+00 -.254E+02   0.231E-02 -.161E-01 0.158E-01
   0.101E+01 -.476E+02 0.348E+03   -.361E+01 0.482E+02 -.371E+03   0.297E+01 0.398E+00 0.252E+02   -.116E-02 -.230E-02 0.329E-01
   -.371E+02 -.351E+02 -.346E+03   0.381E+02 0.376E+02 0.376E+03   -.305E+00 -.137E+01 -.287E+02   0.127E-01 -.289E-01 -.300E-01
   -.119E+02 -.602E+02 0.353E+03   0.161E+02 0.656E+02 -.379E+03   -.325E+01 -.355E+01 0.206E+02   -.597E-02 0.102E-02 -.192E-01
   -.285E+02 0.733E+01 -.410E+03   0.309E+02 -.684E+01 0.435E+03   -.200E+01 -.136E+00 -.236E+02   -.524E-01 -.277E-01 0.269E-01
   -.935E+02 -.272E+01 0.396E+03   0.104E+03 0.454E+01 -.427E+03   -.665E+01 -.136E+00 0.287E+02   0.978E-02 -.760E-01 -.501E-03
   0.372E+01 0.306E+02 -.374E+03   -.540E+01 -.339E+02 0.404E+03   0.296E+01 0.372E+01 -.302E+02   -.507E-01 -.302E-01 0.359E-02
   0.600E+02 -.180E+02 0.360E+03   -.677E+02 0.237E+02 -.388E+03   0.445E+01 -.191E+01 0.219E+02   -.494E-02 -.635E-01 -.296E-01
   -.140E+01 -.312E+01 -.451E+03   0.358E+01 0.424E+01 0.481E+03   -.143E+01 -.224E+01 -.284E+02   -.148E-01 0.642E-02 0.194E-01
   0.225E+02 0.500E+01 0.435E+03   -.233E+02 -.323E+01 -.471E+03   0.446E-01 -.274E+01 0.330E+02   -.680E-01 0.593E-01 -.389E-02
   0.201E+02 0.101E+02 -.326E+03   -.217E+02 -.119E+02 0.352E+03   0.181E+01 0.676E+00 -.266E+02   -.119E-01 0.243E-01 -.381E-01
   0.433E+02 0.863E+02 0.402E+03   -.485E+02 -.956E+02 -.434E+03   0.540E+01 0.604E+01 0.262E+02   -.617E-01 0.213E-01 -.335E-01
   0.100E+03 -.840E+01 -.445E+03   -.109E+03 0.454E+01 0.473E+03   0.492E+01 0.329E+01 -.261E+02   0.502E-02 0.723E-02 0.155E-01
   0.653E+02 -.688E+02 0.408E+03   -.691E+02 0.751E+02 -.440E+03   -.169E+01 -.449E+01 0.295E+02   -.172E-01 0.247E-01 0.262E-01
   0.161E+02 0.778E+01 -.339E+03   -.136E+02 -.106E+02 0.368E+03   -.208E+01 0.270E+01 -.294E+02   -.213E-02 -.306E-02 -.376E-01
   0.525E+02 -.421E+02 0.412E+03   -.567E+02 0.425E+02 -.445E+03   -.153E-01 -.135E+01 0.227E+02   -.304E-02 0.305E-01 -.174E-01
   0.301E+02 0.406E+02 -.507E+03   -.323E+02 -.421E+02 0.541E+03   0.726E-01 0.165E+01 -.316E+02   0.327E-01 -.435E-01 0.439E-01
   0.739E+02 -.324E+02 0.407E+03   -.784E+02 0.382E+02 -.438E+03   0.877E+00 -.406E+01 0.301E+02   0.136E-01 -.183E-01 0.351E-01
   0.667E+02 0.464E+02 -.324E+03   -.734E+02 -.473E+02 0.352E+03   0.403E+01 -.124E+00 -.285E+02   0.530E-01 -.306E-01 -.113E-01
   -.297E+02 0.560E+02 0.378E+03   0.344E+02 -.626E+02 -.408E+03   -.490E+01 0.295E+01 0.243E+02   0.239E-01 -.361E-01 -.223E-01
   0.206E+02 0.342E+02 -.514E+03   -.192E+02 -.343E+02 0.554E+03   -.444E+00 -.349E+01 -.324E+02   -.930E-02 0.647E-01 0.346E-01
   0.822E+00 0.122E+03 0.441E+03   0.129E+01 -.130E+03 -.475E+03   -.365E+01 0.175E+01 0.312E+02   0.488E-01 0.247E-01 0.109E-01
   0.655E+02 0.427E+02 -.409E+03   -.709E+02 -.471E+02 0.445E+03   0.937E+00 0.131E+01 -.336E+02   -.957E-02 0.658E-01 -.143E-02
   0.192E+02 0.250E+02 0.448E+03   -.249E+02 -.242E+02 -.489E+03   0.373E+00 -.232E+01 0.306E+02   0.341E-01 0.420E-01 -.514E-01
 -----------------------------------------------------------------------------------------------
   -.120E+02 -.871E+01 0.141E+02   0.291E-12 0.426E-12 -.568E-12   0.120E+02 0.865E+01 -.140E+02   -.140E-01 0.805E-01 -.119E+00
 
 
 POSITION                                       TOTAL-FORCE (eV/Angst)
 -----------------------------------------------------------------------------------
      0.05303      0.01175      0.02145         6.153286      8.468542      4.447225
      3.93630      6.99631      4.66048         8.199087      9.324642      0.810525
     -1.33743      2.35542      0.03019         1.916052      5.146728      4.003228
     -1.36941      2.43354      4.59729         3.208568     -2.636674      1.841278
      5.31864      4.77779      8.94568        11.763877      2.309486      7.670794
     -2.77289      4.82568      4.72095         3.083890      0.760252     -3.444243
      2.85066      0.02438      9.01233        -3.921038      1.521550      2.909103
      2.59621      0.06721      4.70686         7.306529     -0.220239     -1.254416
      1.37920      2.40633      9.01590         1.685696      1.542588      3.866500
      1.48717      2.42186      4.50288        -6.732989     -3.159205      2.894724
     -0.05317      4.76205      0.05597         3.449001      0.612474      1.788731
      0.12355      4.77223      4.53012        -5.471201      1.148916      3.078084
      1.53000      6.96833      0.01978        -5.967914      8.915099      2.477294
      1.43018      7.04109      4.64615        -2.181312      4.563107      0.119927
      4.14534      2.50681      0.03882         3.851010     -6.828731      4.456476
      4.21707      2.44041      4.70836        -2.456466     -0.985025     -2.335821
      2.85991      4.90944      0.02961        -3.700423     -6.699741      1.849206
      2.62538      4.79502      4.62699         4.864173     -1.676440      2.457256
      0.05143      1.69829      0.92173         0.446760     -1.176826      2.217979
      1.48400      0.71577      3.64061        -2.690442      2.387368     -1.737591
     -0.04972      1.61626      5.59347         0.850982      0.324910     -0.563967
      1.40315      0.88280      8.25919         0.813357     -1.641711     -4.129275
     -1.26816      4.04519      0.97637        -3.024005     -1.030218      1.405823
     -0.08914      3.22477      3.67829         2.265167     -0.389176     -1.728584
     -1.44513      3.99283      5.50407         1.981888      0.303737      1.626994
     -0.02895      3.20447      8.34646         0.954868      0.502671     -5.487592
     -2.74885      6.46699      0.93720         3.039178     -2.590988      2.005127
     -1.33447      5.64166      3.73700        -0.542188     -1.345693     -0.570629
     -2.81221      6.52459      5.53753        -0.123102     -3.502711      4.427137
     -1.32490      5.57670      8.20479        -0.902783     -1.080832     -3.329789
      2.85332      1.58941      0.84840        -1.184541      0.639668      2.573449
      4.09648      0.70694      3.58307         0.368190      1.044185      2.071451
      2.72423      1.64268      5.50480         0.711880      1.066881      1.632364
      4.23296      0.77278      8.38643         0.888637      1.788759     -5.298798
      1.40688      4.00005      0.92119         0.340882      0.332275      1.283055
      2.69310      3.22879      3.73931         3.968444      1.610104     -2.592341
      1.27604      3.91250      5.62732         1.230791      0.294065     -0.618800
      2.84375      3.17613      8.40546        -3.235258      3.676790     -6.447591
      0.04510      6.35765      0.97551         0.729498     -1.111746      1.378543
      1.44371      5.61114      3.72179        -0.820680     -0.907753     -3.285693
      0.01733      6.40954      5.65816         0.216601     -1.108866     -0.526163
      1.38462      5.52587      8.31218         0.127521     -3.267407     -5.976801
      5.66753      1.54752      0.92856        -3.494121     -0.556243      2.687505
      7.08967      0.80538      3.62662        -5.532111      1.788645     -2.203387
      5.48440      1.57583      5.61230         0.477319     -0.136882     -0.212234
      6.98417      0.85422      8.42821        -4.192860     -0.916276     -9.914187
      4.20172      4.03016      0.95582        -2.071102      0.154678      3.045002
      5.60222      3.15195      3.63659        -3.592853      1.739917     -0.512706
      4.18272      4.05928      5.67143        -2.597793     -1.144306      0.290354
      5.51008      3.28234      8.36371        -0.187286     -3.736480     -6.680340
      2.82423      6.43311      0.81843         1.038774     -3.529330      7.864797
      4.20192      5.74481      3.67427        -1.486909     -6.100178     -2.756740
      2.81634      6.39484      5.63604        -4.503578     -3.042094      3.154863
      4.23186      5.67649      8.30807        -5.318951     -1.446266    -10.727106
 -----------------------------------------------------------------------------------
    total drift:                                0.006098      0.025952     -0.008871


--------------------------------------------------------------------------------------------------------



  FREE ENERGIE OF THE ION-ELECTRON SYSTEM (eV)
  ---------------------------------------------------
  free  energy   TOTEN  =      -314.0281536886 eV

  energy  without entropy=     -314.0281097117  energy(sigma->0) =     -314.02813170
 


--------------------------------------------------------------------------------------------------------


    POTLOK:  cpu time    0.0782: real time    0.0784


--------------------------------------------------------------------------------------------------------


     LOOP+:  cpu time 1157.9360: real time 1161.0198
    4ORBIT:  cpu time    0.0000: real time    0.0000

volume of typ            1:    22.1 %

volume of typ            2:    11.3 %
 
total charge     
 
# of ion       s       p       d       tot
------------------------------------------
    1        0.427   0.718   8.003   9.148
    2        0.416   0.657   7.960   9.034
    3        0.384   0.618   7.934   8.936
    4        0.340   0.510   7.859   8.709
    5        0.401   0.611   7.968   8.979
    6        0.327   0.464   7.857   8.648
    7        0.357   0.544   7.883   8.783
    8        0.358   0.543   7.877   8.778
    9        0.352   0.530   7.878   8.759
   10        0.326   0.453   7.859   8.638
   11        0.361   0.556   7.886   8.803
   12        0.314   0.434   7.850   8.599
   13        0.390   0.617   7.946   8.952
   14        0.316   0.447   7.861   8.624
   15        0.365   0.546   7.913   8.824
   16        0.290   0.381   7.833   8.504
   17        0.342   0.503   7.918   8.764
   18        0.308   0.415   7.881   8.604
   19        1.294   2.759   0.011   4.063
   20        1.295   2.729   0.010   4.035
   21        1.287   2.711   0.006   4.005
   22        1.275   2.810   0.012   4.098
   23        1.295   2.738   0.010   4.042
   24        1.283   2.751   0.010   4.045
   25        1.286   2.743   0.009   4.038
   26        1.274   2.836   0.015   4.125
   27        1.291   2.761   0.010   4.062
   28        1.286   2.735   0.009   4.030
   29        1.281   2.803   0.014   4.098
   30        1.274   2.810   0.012   4.097
   31        1.289   2.760   0.010   4.060
   32        1.297   2.662   0.005   3.964
   33        1.282   2.765   0.011   4.057
   34        1.272   2.822   0.013   4.107
   35        1.288   2.732   0.008   4.028
   36        1.281   2.778   0.013   4.073
   37        1.292   2.714   0.009   4.015
   38        1.271   2.846   0.016   4.134
   39        1.291   2.748   0.010   4.049
   40        1.281   2.812   0.016   4.109
   41        1.289   2.701   0.007   3.997
   42        1.273   2.848   0.016   4.136
   43        1.289   2.768   0.011   4.068
   44        1.290   2.751   0.011   4.052
   45        1.283   2.747   0.010   4.039
   46        1.273   2.899   0.021   4.192
   47        1.288   2.786   0.013   4.087
   48        1.291   2.732   0.010   4.034
   49        1.283   2.742   0.010   4.035
   50        1.269   2.879   0.018   4.165
   51        1.284   2.883   0.021   4.188
   52        1.292   2.765   0.013   4.070
   53        1.286   2.793   0.015   4.094
   54        1.276   2.927   0.027   4.231
--------------------------------------------------
tot          52.61  109.59  142.61  304.81
 

 total amount of memory used by VASP MPI-rank0   171206. kBytes
=======================================================================

   base      :      30000. kBytes
   nonlr-proj:      30637. kBytes
   fftplans  :       5529. kBytes
   grid      :      17740. kBytes
   one-center:        839. kBytes
   wavefun   :      86461. kBytes
 
  
  
 General timing and accounting informations for this job:
 ========================================================
  
                  Total CPU time used (sec):     1182.717
                            User time (sec):     1179.750
                          System time (sec):        2.967
                         Elapsed time (sec):     1189.248
  
                   Maximum memory used (kb):      228624.
                   Average memory used (kb):           0.
  
                          Minor page faults:        37668
                          Major page faults:           19
                 Voluntary context switches:         1176
