 vasp.5.4.4.18Apr17-6-g9f103f2a35 (build May 12 2020 04:58:55) complex          
  
 MD_VERSION_INFO: Compiled 2020-05-12T11:58:55-UTC in devlin.sd.materialsdesign.
 com:/home/medea2/data/build/wwolf/vasp-gpu5.4.4/13047/x86_64/src/src/build/std 
 from svn 13047
 
 This VASP executable licensed from Materials Design, Inc.
 
 executed on                        Lin64 date 2023.04.27  11:08:14
 running on   16 total cores
 distrk:  each k-point on   16 cores,    1 groups
 distr:  one band on NCORES_PER_BAND=   1 cores,   16 groups


--------------------------------------------------------------------------------------------------------


 INCAR:
 POTCAR:    PAW_PBE Ni 02Aug2007                  
 POTCAR:    PAW_PBE O 08Apr2002                   

 ----------------------------------------------------------------------------- 
|                                                                             |
|           W    W    AA    RRRRR   N    N  II  N    N   GGGG   !!!           |
|           W    W   A  A   R    R  NN   N  II  NN   N  G    G  !!!           |
|           W    W  A    A  R    R  N N  N  II  N N  N  G       !!!           |
|           W WW W  AAAAAA  RRRRR   N  N N  II  N  N N  G  GGG   !            |
|           WW  WW  A    A  R   R   N   NN  II  N   NN  G    G                |
|           W    W  A    A  R    R  N    N  II  N    N   GGGG   !!!           |
|                                                                             |
|      For optimal performance we recommend to set                            |
|        NCORE= 4 - approx SQRT( number of cores)                             |
|      NCORE specifies how many cores store one orbital (NPAR=cpu/NCORE).     |
|      This setting can  greatly improve the performance of VASP for DFT.     |
|      The default,   NCORE=1            might be grossly inefficient         |
|      on modern multi-core architectures or massively parallel machines.     |
|      Do your own testing !!!!                                               |
|      Unfortunately you need to use the default for GW and RPA calculations. |
|      (for HF NCORE is supported but not extensively tested yet)             |
|                                                                             |
 ----------------------------------------------------------------------------- 

 POTCAR:    PAW_PBE Ni 02Aug2007                  
  local pseudopotential read in
  partial core-charges read in
  partial kinetic energy density read in
  atomic valenz-charges read in
  non local Contribution for L=           2  read in
    real space projection operators read in
  non local Contribution for L=           2  read in
    real space projection operators read in
  non local Contribution for L=           0  read in
    real space projection operators read in
  non local Contribution for L=           0  read in
    real space projection operators read in
  non local Contribution for L=           1  read in
    real space projection operators read in
  non local Contribution for L=           1  read in
    real space projection operators read in
    PAW grid and wavefunctions read in
 
   number of l-projection  operators is LMAX  =           6
   number of lm-projection operators is LMMAX =          18
 
 POTCAR:    PAW_PBE O 08Apr2002                   
  local pseudopotential read in
  partial core-charges read in
  partial kinetic energy density read in
  kinetic energy density of atom read in
  atomic valenz-charges read in
  non local Contribution for L=           0  read in
    real space projection operators read in
  non local Contribution for L=           0  read in
    real space projection operators read in
  non local Contribution for L=           1  read in
    real space projection operators read in
  non local Contribution for L=           1  read in
    real space projection operators read in
    PAW grid and wavefunctions read in
 
   number of l-projection  operators is LMAX  =           4
   number of lm-projection operators is LMMAX =           8
 
 Optimization of the real space projectors (new method)

 maximal supplied QI-value         = 16.25
 optimisation between [QCUT,QGAM] = [ 11.38, 22.75] = [ 36.24,144.96] Ry 
 Optimized for a Real-space Cutoff    1.47 Angstroem

   l    n(q)    QCUT    max X(q) W(low)/X(q) W(high)/X(q)  e(spline) 
   2      9    11.376    60.317    0.17E-03    0.16E-04    0.16E-06
   2      9    11.376    55.921    0.17E-03    0.16E-04    0.17E-06
   0     10    11.376    51.690    0.45E-04    0.60E-04    0.21E-06
   0     10    11.376    30.015    0.37E-04    0.55E-04    0.19E-06
   1     10    11.376    18.849    0.83E-04    0.11E-03    0.92E-07
   1     10    11.376    14.624    0.69E-04    0.92E-04    0.82E-07
 Optimization of the real space projectors (new method)

 maximal supplied QI-value         = 24.76
 optimisation between [QCUT,QGAM] = [ 11.39, 22.77] = [ 36.31,145.25] Ry 
 Optimized for a Real-space Cutoff    1.10 Angstroem

   l    n(q)    QCUT    max X(q) W(low)/X(q) W(high)/X(q)  e(spline) 
   0      7    11.387    20.381    0.22E-03    0.48E-03    0.18E-06
   0      7    11.387    15.268    0.22E-03    0.52E-03    0.19E-06
   1      7    11.387     5.964    0.22E-03    0.73E-03    0.24E-06
   1      7    11.387     5.382    0.19E-03    0.60E-03    0.21E-06

 ----------------------------------------------------------------------------- 
|                                                                             |
|  ADVICE TO THIS USER RUNNING 'VASP/VAMP'   (HEAR YOUR MASTER'S VOICE ...):  |
|                                                                             |
|      You enforced a specific xc-type in the INCAR file,                     |
|      a different type was found on the POTCAR file                          |
|          I HOPE YOU KNOW, WHAT YOU ARE  DOING                               |
|                                                                             |
 ----------------------------------------------------------------------------- 

  PAW_PBE Ni 02Aug2007                  :
 energy of atom  1       EATOM=-1077.6739
 kinetic energy error for atom=    0.0030 (will be added to EATOM!!)
  PAW_PBE O 08Apr2002                   :
 energy of atom  2       EATOM= -432.3788
 kinetic energy error for atom=    0.0224 (will be added to EATOM!!)
 
 
 POSCAR: NiO2_C2_m_scale_0_950_disp_0_08_round_1 
  positions in direct lattice
  No initial velocities read in
 exchange correlation table for  LEXCH =       14
   RHO(1)=    0.500       N(1)  =     2000
   RHO(2)=  100.500       N(2)  =     4000
 


--------------------------------------------------------------------------------------------------------


 ion  position               nearest neighbor table
   1  0.021  0.005  0.001-  27 1.29  46 1.43  54 1.43  22 1.63  51 1.67  19 1.79   5 2.24  13 2.59
                            17 2.59   9 2.60   7 2.73   3 2.79
   2  0.980  0.997  0.523-  44 1.42  53 1.51  52 1.55  29 1.69  20 1.92  21 1.99  18 2.17  14 2.23
                             6 2.45   4 2.66  10 2.83   8 2.92
   3  0.996  0.344  1.000-  50 1.41  43 1.51  46 1.69  26 1.77  23 1.85  19 2.01  15 2.39  13 2.66
                             9 2.71   1 2.79   5 2.92  11 3.00
   4  0.988  0.336  0.534-  45 1.46  48 1.59  44 1.79  21 1.84  24 2.02  25 2.06  16 2.38  14 2.62
                             2 2.66  10 2.81  12 2.83   6 2.84
   5  0.019  0.722  0.000-  54 1.23  30 1.44  47 1.75  50 1.77  27 1.79  23 1.94   1 2.24   7 2.44
                            17 2.63  11 2.78  15 2.90   3 2.92
   6  0.993  0.695  0.512-  52 1.48  49 1.64  48 1.77  25 1.89  28 1.91  29 2.04  18 2.28   2 2.45
                            16 2.64   8 2.75  12 2.77   4 2.84
   7  0.354  0.987  0.989-  30 1.51  39 1.55  22 1.61  34 1.84  31 1.91  27 2.03  11 2.15   5 2.44
                            13 2.64  15 2.69   1 2.73   9 2.90
   8  0.357  0.017  0.528-  41 1.53  28 1.68  33 1.68  32 1.85  29 1.88  20 1.99  12 2.52  16 2.61
                            10 2.63   6 2.75  14 2.80   2 2.92
   9  0.336  0.343  0.006-  26 1.63  22 1.70  19 1.74  38 1.74  31 1.82  35 1.98   1 2.60   3 2.71
                            17 2.77  15 2.84   7 2.90  11 2.92
  10  0.345  0.342  0.524-  24 1.68  21 1.72  36 1.91  33 1.91  20 1.93  37 1.93   8 2.63  16 2.75
                            12 2.81   4 2.81   2 2.83  18 2.96
  11  0.370  0.725  0.989-  42 1.41  30 1.64  26 1.75  39 1.86  35 1.97  23 2.08   7 2.15  13 2.34
                            17 2.56   5 2.78   9 2.92   3 3.00
  12  0.340  0.692  0.504-  24 1.77  40 1.80  28 1.80  25 1.89  37 1.98  41 2.01   8 2.52  14 2.59
                             6 2.77  10 2.81   4 2.83  18 2.92
  13  0.687  0.988  0.010-  42 1.30  51 1.43  34 1.64  46 1.73  39 1.86  43 1.89  17 2.26  11 2.34
                             1 2.59   7 2.64   3 2.66  15 2.72
  14  0.691  0.981  0.532-  53 1.47  40 1.48  44 1.83  41 1.86  32 1.90  45 1.94  18 2.23   2 2.23
                            12 2.59   4 2.62   8 2.80  16 2.86
  15  0.688  0.331  0.995-  34 1.51  38 1.69  50 1.78  43 1.81  31 1.82  47 1.85   3 2.39   7 2.69
                            13 2.72   9 2.84   5 2.90  17 2.97
  16  0.691  0.341  0.527-  33 1.77  32 1.85  36 1.86  48 1.89  45 1.96  49 1.99   4 2.38   8 2.61
                             6 2.64  10 2.75  14 2.86  18 2.87
  17  0.678  0.699  0.009-  42 1.68  38 1.70  35 1.72  51 1.88  54 1.90  47 1.95  13 2.26  11 2.56
                             1 2.59   5 2.63   9 2.77  15 2.97
  18  0.717  0.715  0.537-  53 1.74  49 1.75  52 1.81  40 1.81  37 1.84  36 2.05   2 2.17  14 2.23
                             6 2.28  16 2.87  12 2.92  10 2.96
  19  0.125  0.221  0.114-   9 1.74   1 1.79  46 1.96   3 2.01
  20  0.212  0.110  0.403-   2 1.92  10 1.93   8 1.99
  21  0.135  0.249  0.631-  10 1.72   4 1.84   2 1.99
  22  0.248  0.109  0.948-   7 1.61   1 1.63   9 1.70  27 1.74  31 1.96
  23  0.112  0.572  0.110-  50 1.84   3 1.85   5 1.94  11 2.08
  24  0.247  0.456  0.428-  10 1.68  12 1.77   4 2.02
  25  0.126  0.605  0.637-  12 1.89   6 1.89   4 2.06
  26  0.244  0.475  0.949-   9 1.63  11 1.75   3 1.77
  27  0.111  0.952  0.094-   1 1.29  22 1.74   5 1.79  54 1.80   7 2.03
  28  0.240  0.826  0.412-   8 1.68  12 1.80   6 1.91
  29  0.125  0.949  0.632-   2 1.69   8 1.88   6 2.04
  30  0.208  0.785  0.937-   5 1.44   7 1.51  11 1.64
  31  0.459  0.228  0.098-  15 1.82   9 1.82   7 1.91  22 1.96
  32  0.585  0.110  0.419-   8 1.85  16 1.85  14 1.90
  33  0.470  0.224  0.630-   8 1.68  16 1.77  10 1.91
  34  0.612  0.127  0.935-  15 1.51  13 1.64   7 1.84
  35  0.470  0.591  0.118-  17 1.72  11 1.97   9 1.98
  36  0.583  0.462  0.413-  16 1.86  10 1.91  18 2.05
  37  0.476  0.588  0.628-  18 1.84  10 1.93  12 1.98
  38  0.580  0.463  0.953-  15 1.69  17 1.70   9 1.74
  39  0.464  0.941  0.114-   7 1.55  13 1.86  11 1.86
  40  0.585  0.809  0.432-  14 1.48  12 1.80  18 1.81
  41  0.463  0.941  0.626-   8 1.53  14 1.86  12 2.01
  42  0.569  0.821  0.949-  13 1.30  11 1.41  17 1.68
  43  0.820  0.237  0.100-   3 1.51  15 1.81  13 1.89
  44  0.927  0.115  0.437-   2 1.42   4 1.79  14 1.83
  45  0.824  0.228  0.638-   4 1.46  14 1.94  16 1.96
  46  0.928  0.112  0.954-   1 1.43   3 1.69  51 1.69  13 1.73  19 1.96
  47  0.804  0.565  0.098-   5 1.75  15 1.85  17 1.95
  48  0.937  0.469  0.431-   4 1.59   6 1.77  16 1.89
  49  0.816  0.593  0.637-   6 1.64  18 1.75  16 1.99
  50  0.939  0.478  0.951-   3 1.41   5 1.77  15 1.78  23 1.84
  51  0.816  0.948  0.095-  13 1.43   1 1.67  46 1.69  17 1.88
  52  0.936  0.819  0.424-   6 1.48   2 1.55  18 1.81
  53  0.811  0.935  0.631-  14 1.47   2 1.51  18 1.74
  54  0.941  0.809  0.947-   5 1.23   1 1.43  27 1.80  17 1.90
 
  LATTYP: Found a hexagonal cell.
 ALAT       =     7.9447265042
 C/A-ratio  =     1.1065328045
  
  Lattice vectors:
  
 A1 = (   7.9447265000,   0.0000000000,   0.0000000000)
 A2 = (  -3.9723632500,   6.8803349800,   0.0000000000)
 A3 = (   0.0000000000,   0.0000000000,   8.7911005000)


Analysis of symmetry for initial positions (statically):
=====================================================================
 Subroutine PRICEL returns:
 Original cell was already a primitive cell.
 

 Routine SETGRP: Setting up the symmetry group for a 
 hexagonal supercell.


 Subroutine GETGRP returns: Found  1 space group operations
 (whereof  1 operations were pure point group operations)
 out of a pool of 24 trial point group operations.


The static configuration has the point symmetry C_1 .


Analysis of symmetry for dynamics (positions and initial velocities):
=====================================================================
 Subroutine PRICEL returns:
 Original cell was already a primitive cell.
 

 Routine SETGRP: Setting up the symmetry group for a 
 hexagonal supercell.


 Subroutine GETGRP returns: Found  1 space group operations
 (whereof  1 operations were pure point group operations)
 out of a pool of 24 trial point group operations.


The dynamic configuration has the point symmetry C_1 .


 Subroutine INISYM returns: Found  1 space group operations
 (whereof  1 operations are pure point group operations),
 and found     1 'primitive' translations

 
 
 KPOINTS: Automatic mesh                          

Automatic generation of k-mesh.
Space group operators:
 irot       det(A)        alpha          n_x          n_y          n_z        tau_x        tau_y        tau_z
    1     1.000000     0.000000     1.000000     0.000000     0.000000     0.000000     0.000000     0.000000
 
 Subroutine IBZKPT returns following result:
 ===========================================
 
 Found     26 irreducible k-points:
 
 Following reciprocal coordinates:
            Coordinates               Weight
  0.000000  0.000000  0.000000      1.000000
  0.250000  0.000000  0.000000      2.000000
  0.500000  0.000000  0.000000      1.000000
  0.000000  0.250000  0.000000      2.000000
  0.250000  0.250000  0.000000      2.000000
  0.500000  0.250000  0.000000      2.000000
 -0.250000  0.250000  0.000000      2.000000
  0.000000  0.500000  0.000000      1.000000
  0.250000  0.500000  0.000000      2.000000
  0.500000  0.500000  0.000000      1.000000
  0.000000  0.000000  0.333333      2.000000
  0.250000  0.000000  0.333333      2.000000
  0.500000  0.000000  0.333333      2.000000
 -0.250000  0.000000  0.333333      2.000000
  0.000000  0.250000  0.333333      2.000000
  0.250000  0.250000  0.333333      2.000000
  0.500000  0.250000  0.333333      2.000000
 -0.250000  0.250000  0.333333      2.000000
  0.000000  0.500000  0.333333      2.000000
  0.250000  0.500000  0.333333      2.000000
  0.500000  0.500000  0.333333      2.000000
 -0.250000  0.500000  0.333333      2.000000
  0.000000 -0.250000  0.333333      2.000000
  0.250000 -0.250000  0.333333      2.000000
  0.500000 -0.250000  0.333333      2.000000
 -0.250000 -0.250000  0.333333      2.000000
 
 Following cartesian coordinates:
            Coordinates               Weight
  0.000000  0.000000  0.000000      1.000000
  0.031467  0.018168  0.000000      2.000000
  0.062935  0.036335  0.000000      1.000000
  0.000000  0.036335  0.000000      2.000000
  0.031467  0.054503  0.000000      2.000000
  0.062935  0.072671  0.000000      2.000000
 -0.031467  0.018168  0.000000      2.000000
  0.000000  0.072671  0.000000      1.000000
  0.031467  0.090839  0.000000      2.000000
  0.062935  0.109006  0.000000      1.000000
  0.000000  0.000000  0.037917      2.000000
  0.031467  0.018168  0.037917      2.000000
  0.062935  0.036335  0.037917      2.000000
 -0.031467 -0.018168  0.037917      2.000000
  0.000000  0.036335  0.037917      2.000000
  0.031467  0.054503  0.037917      2.000000
  0.062935  0.072671  0.037917      2.000000
 -0.031467  0.018168  0.037917      2.000000
  0.000000  0.072671  0.037917      2.000000
  0.031467  0.090839  0.037917      2.000000
  0.062935  0.109006  0.037917      2.000000
 -0.031467  0.054503  0.037917      2.000000
  0.000000 -0.036335  0.037917      2.000000
  0.031467 -0.018168  0.037917      2.000000
  0.062935  0.000000  0.037917      2.000000
 -0.031467 -0.054503  0.037917      2.000000
 


--------------------------------------------------------------------------------------------------------




 Dimension of arrays:
   k-points           NKPTS =     26   k-points in BZ     NKDIM =     26   number of bands    NBANDS=    240
   number of dos      NEDOS =    301   number of ions     NIONS =     54
   non local maximal  LDIM  =      6   non local SUM 2l+1 LMDIM =     18
   total plane-waves  NPLWV = 230400
   max r-space proj   IRMAX =   6487   max aug-charges    IRDMAX=  15739
   dimension x,y,z NGX =    60 NGY =   60 NGZ =   64
   dimension x,y,z NGXF=   120 NGYF=  120 NGZF=  128
   support grid    NGXF=   120 NGYF=  120 NGZF=  128
   ions per type =              18  36
   NGX,Y,Z   is equivalent  to a cutoff of  12.56, 12.56, 12.10 a.u.
   NGXF,Y,Z  is equivalent  to a cutoff of  25.11, 25.11, 24.21 a.u.

 SYSTEM =  unknown system                          
 POSCAR =  NiO2_C2_m_scale_0_950_disp_0_08_round_1 

 Startparameter for this run:
   NWRITE =      1    write-flag & timer
   PREC   = accura    normal or accurate (medium, high low for compatibility)
   ISTART =      0    job   : 0-new  1-cont  2-samecut
   ICHARG =      2    charge: 1-file 2-atom 10-const
   ISPIN  =      1    spin polarized calculation?
   LNONCOLLINEAR =      F non collinear calculations
   LSORBIT =      F    spin-orbit coupling
   INIWAV =      1    electr: 0-lowe 1-rand  2-diag
   LASPH  =      F    aspherical Exc in radial PAW
   METAGGA=      F    non-selfconsistent MetaGGA calc.

 Electronic Relaxation 1
   ENCUT  =  500.0 eV  36.75 Ry    6.06 a.u.  14.49 14.49 16.03*2*pi/ulx,y,z
   ENINI  =  500.0     initial cutoff
   ENAUG  =  605.4 eV  augmentation charge cutoff
   NELM   =    120;   NELMIN=  2; NELMDL= -5     # of ELM steps 
   EDIFF  = 0.1E-04   stopping-criterion for ELM
   LREAL  =      T    real-space projection
   NLSPLINE    = F    spline interpolate recip. space projectors
   LCOMPAT=      F    compatible to vasp.4.4
   GGA_COMPAT  = T    GGA compatible to vasp.4.4-vasp.4.6
   LMAXPAW     = -100 max onsite density
   LMAXMIX     =    2 max onsite mixed and CHGCAR
   VOSKOWN=      1    Vosko Wilk Nusair interpolation
   ROPT   =   -0.00025  -0.00025
 Ionic relaxation
   EDIFFG = 0.1E-03   stopping-criterion for IOM
   NSW    =      0    number of steps for IOM
   NBLOCK =      1;   KBLOCK =      1    inner block; outer block 
   IBRION =     -1    ionic relax: 0-MD 1-quasi-New 2-CG
   NFREE  =      0    steps in history (QN), initial steepest desc. (CG)
   ISIF   =      2    stress and relaxation
   IWAVPR =     10    prediction:  0-non 1-charg 2-wave 3-comb
   ISYM   =      2    0-nonsym 1-usesym 2-fastsym
   LCORR  =      T    Harris-Foulkes like correction to forces

   POTIM  = 0.5000    time-step for ionic-motion
   TEIN   =    0.0    initial temperature
   TEBEG  =    0.0;   TEEND  =   0.0 temperature during run
   SMASS  =  -3.00    Nose mass-parameter (am)
   estimated Nose-frequenzy (Omega)   =  0.10E-29 period in steps =****** mass=  -0.144E-26a.u.
   SCALEE = 1.0000    scale energy and forces
   NPACO  =    256;   APACO  = 16.0  distance and # of slots for P.C.
   PSTRESS=    0.0 pullay stress

  Mass of Ions in am
   POMASS =  58.69 16.00
  Ionic Valenz
   ZVAL   =  10.00  6.00
  Atomic Wigner-Seitz radii
   RWIGS  =   1.15  0.73
  virtual crystal weights 
   VCA    =   1.00  1.00
   NELECT =     396.0000    total number of electrons
   NUPDOWN=      -1.0000    fix difference up-down

 DOS related values:
   EMIN   =  10.00;   EMAX   =-10.00  energy-range for DOS
   EFERMI =   0.00
   ISMEAR =     0;   SIGMA  =   0.05  broadening in eV -4-tet -1-fermi 0-gaus

 Electronic relaxation 2 (details)
   IALGO  =     38    algorithm
   LDIAG  =      T    sub-space diagonalisation (order eigenvalues)
   LSUBROT=      F    optimize rotation matrix (better conditioning)
   TURBO    =      0    0=normal 1=particle mesh
   IRESTART =      0    0=no restart 2=restart with 2 vectors
   NREBOOT  =      0    no. of reboots
   NMIN     =      0    reboot dimension
   EREF     =   0.00    reference energy to select bands
   IMIX   =      4    mixing-type and parameters
     AMIX     =   0.40;   BMIX     =  1.00
     AMIX_MAG =   1.60;   BMIX_MAG =  1.00
     AMIN     =   0.10
     WC   =   100.;   INIMIX=   1;  MIXPRE=   1;  MAXMIX= -45

 Intra band minimization:
   WEIMIN = 0.0000     energy-eigenvalue tresh-hold
   EBREAK =  0.10E-07  absolut break condition
   DEPER  =   0.30     relativ break condition  

   TIME   =   0.40     timestep for ELM

  volume/ion in A,a.u.               =       8.90        60.05
  Fermi-wavevector in a.u.,A,eV,Ry     =   1.534838  2.900424 32.051634  2.355729
  Thomas-Fermi vector in A             =   2.641710
 
 Write flags
   LWAVE        =      F    write WAVECAR
   LDOWNSAMPLE  =      F    k-point downsampling of WAVECAR
   LCHARG       =      T    write CHGCAR
   LVTOT        =      F    write LOCPOT, total local potential
   LVHAR        =      F    write LOCPOT, Hartree potential only
   LELF         =      F    write electronic localiz. function (ELF)
   LORBIT       =      0    0 simple, 1 ext, 2 COOP (PROOUT), +10 PAW based schemes


 Dipole corrections
   LMONO  =      F    monopole corrections only (constant potential shift)
   LDIPOL =      F    correct potential (dipole corrections)
   IDIPOL =      0    1-x, 2-y, 3-z, 4-all directions 
   EPSILON=  1.0000000 bulk dielectric constant

 Exchange correlation treatment:
   GGA     =    PS    GGA type
   LEXCH   =    14    internal setting for exchange type
   VOSKOWN=      1    Vosko Wilk Nusair interpolation
   LHFCALC =     F    Hartree Fock is set to
   LHFONE  =     F    Hartree Fock one center treatment
   AEXX    =    0.0000 exact exchange contribution

 Linear response parameters
   LEPSILON=     F    determine dielectric tensor
   LRPA    =     F    only Hartree local field effects (RPA)
   LNABLA  =     F    use nabla operator in PAW spheres
   LVEL    =     F    velocity operator in full k-point grid
   LINTERFAST=   F  fast interpolation
   KINTER  =     0    interpolate to denser k-point grid
   CSHIFT  =0.1000    complex shift for real part using Kramers Kronig
   OMEGAMAX=  -1.0    maximum frequency
   DEG_THRESHOLD= 0.2000000E-02 threshold for treating states as degnerate
   RTIME   =   -0.100 relaxation time in fs
  (WPLASMAI=    0.000 imaginary part of plasma frequency in eV, 0.658/RTIME)
   DFIELD  = 0.0000000 0.0000000 0.0000000 field for delta impulse in time
 
 Orbital magnetization related:
   ORBITALMAG=     F  switch on orbital magnetization
   LCHIMAG   =     F  perturbation theory with respect to B field
   DQ        =  0.001000  dq finite difference perturbation B field
   LLRAUG    =     F  two centre corrections for induced B field



--------------------------------------------------------------------------------------------------------


 Static calculation
 charge density and potential will be updated during run
 non-spin polarized calculation
 Variant of blocked Davidson
 Davidson routine will perform the subspace rotation
 perform sub-space diagonalisation
    after iterative eigenvector-optimisation
 modified Broyden-mixing scheme, WC =      100.0
 initial mixing is a Kerker type mixing with AMIX =  0.4000 and BMIX =      1.0000
 Hartree-type preconditioning will be used
 using additional bands           42
 real space projection scheme for non local part
 use partial core corrections
 calculate Harris-corrections to forces 
   (improved forces if not selfconsistent)
 use gradient corrections 
 use of overlap-Matrix (Vanderbilt PP)
 Gauss-broadening in eV      SIGMA  =   0.05


--------------------------------------------------------------------------------------------------------


  energy-cutoff  :      500.00
  volume of cell :      480.54
      direct lattice vectors                 reciprocal lattice vectors
     7.944726500  0.000000000  0.000000000     0.125869657  0.072670880  0.000000000
    -3.972363250  6.880334980  0.000000000     0.000000000  0.145341761  0.000000000
     0.000000000  0.000000000  8.791100500     0.000000000  0.000000000  0.113751401

  length of vectors
     7.944726500  7.944726504  8.791100500     0.145341761  0.145341761  0.113751401


 
 k-points in units of 2pi/SCALE and weight: Automatic mesh                          
   0.00000000  0.00000000  0.00000000       0.021
   0.03146741  0.01816772  0.00000000       0.042
   0.06293483  0.03633544  0.00000000       0.021
   0.00000000  0.03633544  0.00000000       0.042
   0.03146741  0.05450316  0.00000000       0.042
   0.06293483  0.07267088  0.00000000       0.042
  -0.03146741  0.01816772  0.00000000       0.042
   0.00000000  0.07267088  0.00000000       0.021
   0.03146741  0.09083860  0.00000000       0.042
   0.06293483  0.10900632  0.00000000       0.021
   0.00000000  0.00000000  0.03791713       0.042
   0.03146741  0.01816772  0.03791713       0.042
   0.06293483  0.03633544  0.03791713       0.042
  -0.03146741 -0.01816772  0.03791713       0.042
   0.00000000  0.03633544  0.03791713       0.042
   0.03146741  0.05450316  0.03791713       0.042
   0.06293483  0.07267088  0.03791713       0.042
  -0.03146741  0.01816772  0.03791713       0.042
   0.00000000  0.07267088  0.03791713       0.042
   0.03146741  0.09083860  0.03791713       0.042
   0.06293483  0.10900632  0.03791713       0.042
  -0.03146741  0.05450316  0.03791713       0.042
   0.00000000 -0.03633544  0.03791713       0.042
   0.03146741 -0.01816772  0.03791713       0.042
   0.06293483  0.00000000  0.03791713       0.042
  -0.03146741 -0.05450316  0.03791713       0.042
 
 k-points in reciprocal lattice and weights: Automatic mesh                          
   0.00000000  0.00000000  0.00000000       0.021
   0.25000000  0.00000000  0.00000000       0.042
   0.50000000  0.00000000  0.00000000       0.021
   0.00000000  0.25000000  0.00000000       0.042
   0.25000000  0.25000000  0.00000000       0.042
   0.50000000  0.25000000  0.00000000       0.042
  -0.25000000  0.25000000  0.00000000       0.042
   0.00000000  0.50000000  0.00000000       0.021
   0.25000000  0.50000000  0.00000000       0.042
   0.50000000  0.50000000  0.00000000       0.021
   0.00000000  0.00000000  0.33333333       0.042
   0.25000000  0.00000000  0.33333333       0.042
   0.50000000  0.00000000  0.33333333       0.042
  -0.25000000  0.00000000  0.33333333       0.042
   0.00000000  0.25000000  0.33333333       0.042
   0.25000000  0.25000000  0.33333333       0.042
   0.50000000  0.25000000  0.33333333       0.042
  -0.25000000  0.25000000  0.33333333       0.042
   0.00000000  0.50000000  0.33333333       0.042
   0.25000000  0.50000000  0.33333333       0.042
   0.50000000  0.50000000  0.33333333       0.042
  -0.25000000  0.50000000  0.33333333       0.042
   0.00000000 -0.25000000  0.33333333       0.042
   0.25000000 -0.25000000  0.33333333       0.042
   0.50000000 -0.25000000  0.33333333       0.042
  -0.25000000 -0.25000000  0.33333333       0.042
 
 position of ions in fractional coordinates (direct lattice) 
   0.02054845  0.00507545  0.00087814
   0.97962278  0.99677471  0.52308744
   0.99552165  0.34358333  0.99960125
   0.98755624  0.33559693  0.53436595
   0.01881339  0.72163568  0.00045531
   0.99275453  0.69541681  0.51224267
   0.35436446  0.98719751  0.98921594
   0.35744285  0.01727995  0.52846993
   0.33641950  0.34258347  0.00568980
   0.34478762  0.34193416  0.52422248
   0.36986454  0.72473481  0.98867834
   0.33989310  0.69241223  0.50430186
   0.68650323  0.98809505  0.01022833
   0.69099233  0.98112551  0.53220061
   0.68803635  0.33060559  0.99457042
   0.69075054  0.34071276  0.52658619
   0.67756222  0.69864454  0.00922008
   0.71678784  0.71464317  0.53650237
   0.12543539  0.22091293  0.11404455
   0.21167245  0.10994794  0.40254651
   0.13526620  0.24942361  0.63086666
   0.24786306  0.10911261  0.94765484
   0.11231111  0.57242624  0.11033273
   0.24748186  0.45591436  0.42815250
   0.12569011  0.60537606  0.63706569
   0.24446414  0.47530986  0.94855093
   0.11099382  0.95185502  0.09387413
   0.23988806  0.82585587  0.41234333
   0.12520830  0.94925305  0.63244380
   0.20801625  0.78481351  0.93744035
   0.45887739  0.22791123  0.09761130
   0.58525804  0.11027556  0.41897237
   0.46969631  0.22396933  0.62993125
   0.61161445  0.12712351  0.93451288
   0.47031035  0.59136347  0.11757209
   0.58321560  0.46166232  0.41332055
   0.47614711  0.58844006  0.62796160
   0.58047649  0.46299230  0.95287868
   0.46371182  0.94132939  0.11409629
   0.58484633  0.80901580  0.43220800
   0.46348142  0.94063199  0.62580773
   0.56854999  0.82134066  0.94889626
   0.81954096  0.23712573  0.10044676
   0.92727051  0.11500345  0.43734305
   0.82389756  0.22786967  0.63774751
   0.92819839  0.11164117  0.95410379
   0.80368501  0.56531682  0.09809817
   0.93730818  0.46931997  0.43126727
   0.81575822  0.59330500  0.63653950
   0.93903250  0.47755022  0.95076255
   0.81626313  0.94813452  0.09523702
   0.93628820  0.81874421  0.42383265
   0.81120784  0.93526739  0.63138350
   0.94108675  0.80946142  0.94694620
 
 position of ions in cartesian coordinates  (Angst):
   0.14309028  0.03492080  0.00771982
   3.82328383  6.85814390  4.59851426
   6.54430944  2.36396840  8.78759505
   6.51275132  2.30901930  4.69766477
  -2.71713182  4.96509521  0.00400268
   5.12471504  4.78470060  4.50317679
  -1.10617839  6.79224956  8.69629674
   2.77114344  0.11889184  4.64583227
   1.31189493  2.35708903  0.05001960
   1.38095665  2.35262156  4.60849251
   0.05956269  4.98641826  8.69157065
  -0.05015518  4.76402809  4.43336833
   1.52900794  6.79842494  0.08991828
   1.59235816  6.75047217  4.67862905
   4.15297513  2.27467721  8.74336852
   4.13438927  2.34421792  4.62927212
   2.60777663  4.80690847  0.08105465
   2.85586108  4.91698440  4.71644625
   0.11900346  1.51995496  1.00257710
   1.24492657  0.75647866  3.53882683
   0.08385178  1.71611799  5.54601221
   1.53576930  0.75073131  8.33092894
  -1.38160391  3.93848428  0.96994612
   0.15511824  3.13684352  3.76393166
  -1.40620007  4.16519008  5.60050851
   0.05409731  3.27029106  8.33880655
  -2.89929836  6.54908139  0.82525691
  -1.37475448  5.68216503  3.62495165
  -2.77603223  6.53117896  5.55987701
  -1.46493213  5.39977985  8.24113233
   2.74030917  1.56810561  0.85811075
   4.21166048  0.75873279  3.68322821
   2.84192119  1.54098402  5.53778893
   4.35412877  0.87465233  8.21539665
   1.38737659  4.06877877  1.03358806
   2.79959800  3.17639141  3.63354249
   1.44536089  4.04866473  5.52047354
   2.77255336  3.18554212  8.37685224
  -0.05523869  6.47666153  1.00303195
   1.43273950  5.56629971  3.79958396
  -0.05429883  6.47186318  5.50153865
   1.25431072  5.65109887  8.34184239
   5.56907925  1.63150445  0.88303756
   6.91007512  0.79126226  3.84472671
   5.64045968  1.56781966  5.60650245
   6.93080307  0.76812865  8.38762231
   4.13941384  3.88956909  0.86239087
   5.58234773  3.22907861  3.79131391
   4.12415297  4.08213715  5.59588272
   5.56335344  3.28570548  8.35824913
   2.71865260  6.52348310  0.83723821
   4.18620426  5.63323443  3.72595542
   2.72960261  6.43495294  5.55055580
   4.26120204  5.56936572  8.32469921
 


--------------------------------------------------------------------------------------------------------


 k-point  1 :   0.0000 0.0000 0.0000  plane waves:   12231
 k-point  2 :   0.2500 0.0000 0.0000  plane waves:   12197
 k-point  3 :   0.5000 0.0000 0.0000  plane waves:   12164
 k-point  4 :   0.0000 0.2500 0.0000  plane waves:   12197
 k-point  5 :   0.2500 0.2500 0.0000  plane waves:   12168
 k-point  6 :   0.5000 0.2500 0.0000  plane waves:   12168
 k-point  7 :  -0.2500 0.2500 0.0000  plane waves:   12197
 k-point  8 :   0.0000 0.5000 0.0000  plane waves:   12164
 k-point  9 :   0.2500 0.5000 0.0000  plane waves:   12168
 k-point 10 :   0.5000 0.5000 0.0000  plane waves:   12164
 k-point 11 :   0.0000 0.0000 0.3333  plane waves:   12236
 k-point 12 :   0.2500 0.0000 0.3333  plane waves:   12196
 k-point 13 :   0.5000 0.0000 0.3333  plane waves:   12186
 k-point 14 :  -0.2500 0.0000 0.3333  plane waves:   12196
 k-point 15 :   0.0000 0.2500 0.3333  plane waves:   12196
 k-point 16 :   0.2500 0.2500 0.3333  plane waves:   12217
 k-point 17 :   0.5000 0.2500 0.3333  plane waves:   12217
 k-point 18 :  -0.2500 0.2500 0.3333  plane waves:   12196
 k-point 19 :   0.0000 0.5000 0.3333  plane waves:   12186
 k-point 20 :   0.2500 0.5000 0.3333  plane waves:   12217
 k-point 21 :   0.5000 0.5000 0.3333  plane waves:   12186
 k-point 22 :  -0.2500 0.5000 0.3333  plane waves:   12217
 k-point 23 :   0.0000-0.2500 0.3333  plane waves:   12196
 k-point 24 :   0.2500-0.2500 0.3333  plane waves:   12196
 k-point 25 :   0.5000-0.2500 0.3333  plane waves:   12217
 k-point 26 :  -0.2500-0.2500 0.3333  plane waves:   12217

 maximum and minimum number of plane-waves per node :     12236    12164

 maximum number of plane-waves:     12236
 maximum index in each direction: 
   IXMAX=   14   IYMAX=   14   IZMAX=   16
   IXMIN=  -14   IYMIN=  -14   IZMIN=  -16

 The following grids will avoid any aliasing or wrap around errors in the Hartre
 e energy
  - symmetry arguments have not been applied
  - exchange correlation energies might require even more grid points
  - we recommend to set PREC=Normal or Accurate and rely on VASP defaults
 NGX is ok and might be reduce to    60
 NGY is ok and might be reduce to    60
 WARNING: aliasing errors must be expected set NGZ to    70 to avoid them

 serial   3D FFT for wavefunctions
 parallel 3D FFT for charge:
    minimum data exchange during FFTs selected (reduces bandwidth)


 total amount of memory used by VASP MPI-rank0   162677. kBytes
=======================================================================

   base      :      30000. kBytes
   nonlr-proj:      30274. kBytes
   fftplans  :       5062. kBytes
   grid      :      16231. kBytes
   one-center:        839. kBytes
   wavefun   :      80271. kBytes
 
     INWAV:  cpu time    0.0000: real time    0.0000
 Broyden mixing: mesh for mixing (old mesh)
   NGX = 29   NGY = 29   NGZ = 33
  (NGX  =120   NGY  =120   NGZ  =128)
  gives a total of  27753 points

 initial charge density was supplied:
 charge density of overlapping atoms calculated
 number of electron     396.0000000 magnetization 
 keeping initial charge density in first step


--------------------------------------------------------------------------------------------------------


 Maximum index for non-local projection operator         6258
 Maximum index for augmentation-charges         1313 (set IRDMAX)


--------------------------------------------------------------------------------------------------------


 First call to EWALD:  gamma=   0.226
 Maximum number of real-space cells 3x 3x 3
 Maximum number of reciprocal cells 3x 3x 3

    FEWALD:  cpu time    0.0026: real time    0.0026


--------------------------------------- Iteration      1(   1)  ---------------------------------------


    POTLOK:  cpu time    0.0682: real time    0.0712
    SETDIJ:  cpu time    0.0093: real time    0.0094
     EDDAV:  cpu time   29.8132: real time   29.8838
    --------------------------------------------
      LOOP:  cpu time   29.8923: real time   29.9660

 eigenvalue-minimisations  : 12480
 total energy-change (2. order) : 0.5782628E+04  (-0.1781055E+05)
 number of electron     396.0000000 magnetization 
 augmentation part      396.0000000 magnetization 

 Free energy of the ion-electron system (eV)
  ---------------------------------------------------
  alpha Z        PSCENC =      1443.53424874
  Ewald energy   TEWEN  =    -21494.01559793
  -Hartree energ DENC   =    -14752.71608327
  -exchange      EXHF   =         0.00000000
  -V(xc)+E(xc)   XCENC  =      1622.68028723
  PAW double counting   =     29784.60368500   -31040.73694357
  entropy T*S    EENTRO =        -0.00552361
  eigenvalues    EBANDS =      5328.90294637
  atomic energy  EATOM  =     34890.38139807
  Solvation  Ediel_sol  =         0.00000000
  ---------------------------------------------------
  free energy    TOTEN  =      5782.62841701 eV

  energy without entropy =     5782.63394062  energy(sigma->0) =     5782.63117881


--------------------------------------------------------------------------------------------------------




--------------------------------------- Iteration      1(   2)  ---------------------------------------


     EDDAV:  cpu time   30.2246: real time   30.2961
    --------------------------------------------
      LOOP:  cpu time   30.2246: real time   30.2960

 eigenvalue-minimisations  : 12752
 total energy-change (2. order) :-0.4852166E+04  (-0.4515646E+04)
 number of electron     396.0000000 magnetization 
 augmentation part      396.0000000 magnetization 

 Free energy of the ion-electron system (eV)
  ---------------------------------------------------
  alpha Z        PSCENC =      1443.53424874
  Ewald energy   TEWEN  =    -21494.01559793
  -Hartree energ DENC   =    -14752.71608327
  -exchange      EXHF   =         0.00000000
  -V(xc)+E(xc)   XCENC  =      1622.68028723
  PAW double counting   =     29784.60368500   -31040.73694357
  entropy T*S    EENTRO =        -0.02410244
  eigenvalues    EBANDS =       476.75571232
  atomic energy  EATOM  =     34890.38139807
  Solvation  Ediel_sol  =         0.00000000
  ---------------------------------------------------
  free energy    TOTEN  =       930.46260413 eV

  energy without entropy =      930.48670658  energy(sigma->0) =      930.47465535


--------------------------------------------------------------------------------------------------------




--------------------------------------- Iteration      1(   3)  ---------------------------------------


     EDDAV:  cpu time   31.2152: real time   31.2890
    --------------------------------------------
      LOOP:  cpu time   31.2152: real time   31.2890

 eigenvalue-minimisations  : 13296
 total energy-change (2. order) :-0.1170415E+04  (-0.1032522E+04)
 number of electron     396.0000000 magnetization 
 augmentation part      396.0000000 magnetization 

 Free energy of the ion-electron system (eV)
  ---------------------------------------------------
  alpha Z        PSCENC =      1443.53424874
  Ewald energy   TEWEN  =    -21494.01559793
  -Hartree energ DENC   =    -14752.71608327
  -exchange      EXHF   =         0.00000000
  -V(xc)+E(xc)   XCENC  =      1622.68028723
  PAW double counting   =     29784.60368500   -31040.73694357
  entropy T*S    EENTRO =        -0.01919680
  eigenvalues    EBANDS =      -693.66411027
  atomic energy  EATOM  =     34890.38139807
  Solvation  Ediel_sol  =         0.00000000
  ---------------------------------------------------
  free energy    TOTEN  =      -239.95231282 eV

  energy without entropy =     -239.93311602  energy(sigma->0) =     -239.94271442


--------------------------------------------------------------------------------------------------------




--------------------------------------- Iteration      1(   4)  ---------------------------------------


     EDDAV:  cpu time   31.2269: real time   31.3007
    --------------------------------------------
      LOOP:  cpu time   31.2269: real time   31.3007

 eigenvalue-minimisations  : 13248
 total energy-change (2. order) :-0.1270904E+03  (-0.1239521E+03)
 number of electron     396.0000000 magnetization 
 augmentation part      396.0000000 magnetization 

 Free energy of the ion-electron system (eV)
  ---------------------------------------------------
  alpha Z        PSCENC =      1443.53424874
  Ewald energy   TEWEN  =    -21494.01559793
  -Hartree energ DENC   =    -14752.71608327
  -exchange      EXHF   =         0.00000000
  -V(xc)+E(xc)   XCENC  =      1622.68028723
  PAW double counting   =     29784.60368500   -31040.73694357
  entropy T*S    EENTRO =        -0.01602792
  eigenvalues    EBANDS =      -820.75772027
  atomic energy  EATOM  =     34890.38139807
  Solvation  Ediel_sol  =         0.00000000
  ---------------------------------------------------
  free energy    TOTEN  =      -367.04275394 eV

  energy without entropy =     -367.02672602  energy(sigma->0) =     -367.03473998


--------------------------------------------------------------------------------------------------------




--------------------------------------- Iteration      1(   5)  ---------------------------------------


     EDDAV:  cpu time   32.2260: real time   32.3023
    CHARGE:  cpu time    1.2550: real time    1.2579
    MIXING:  cpu time    0.0022: real time    0.0023
    --------------------------------------------
      LOOP:  cpu time   33.4817: real time   33.5609

 eigenvalue-minimisations  : 13824
 total energy-change (2. order) :-0.3797699E+01  (-0.3787301E+01)
 number of electron     395.9999981 magnetization 
 augmentation part      116.1797407 magnetization 

 Broyden mixing:
  rms(total) = 0.21518E+02    rms(broyden)= 0.21517E+02
  rms(prec ) = 0.23238E+02
  weight for this iteration     100.00

 Free energy of the ion-electron system (eV)
  ---------------------------------------------------
  alpha Z        PSCENC =      1443.53424874
  Ewald energy   TEWEN  =    -21494.01559793
  -Hartree energ DENC   =    -14752.71608327
  -exchange      EXHF   =         0.00000000
  -V(xc)+E(xc)   XCENC  =      1622.68028723
  PAW double counting   =     29784.60368500   -31040.73694357
  entropy T*S    EENTRO =        -0.01688945
  eigenvalues    EBANDS =      -824.55455742
  atomic energy  EATOM  =     34890.38139807
  Solvation  Ediel_sol  =         0.00000000
  ---------------------------------------------------
  free energy    TOTEN  =      -370.84045261 eV

  energy without entropy =     -370.82356317  energy(sigma->0) =     -370.83200789


--------------------------------------------------------------------------------------------------------




--------------------------------------- Iteration      1(   6)  ---------------------------------------


    POTLOK:  cpu time    0.0586: real time    0.0587
    SETDIJ:  cpu time    0.0096: real time    0.0096
     EDDAV:  cpu time   42.3892: real time   42.4894
    CHARGE:  cpu time    1.2582: real time    1.2612
    MIXING:  cpu time    0.0020: real time    0.0020
    --------------------------------------------
      LOOP:  cpu time   43.7176: real time   43.8209

 eigenvalue-minimisations  : 19488
 total energy-change (2. order) :-0.4939831E+02  (-0.9341732E+02)
 number of electron     395.9999976 magnetization 
 augmentation part      152.6908374 magnetization 

 Broyden mixing:
  rms(total) = 0.23452E+02    rms(broyden)= 0.23451E+02
  rms(prec ) = 0.25918E+02
  weight for this iteration     100.00

 eigenvalues of (default mixing * dielectric matrix)
  average eigenvalue GAMMA=   0.4054
  0.4054

 Free energy of the ion-electron system (eV)
  ---------------------------------------------------
  alpha Z        PSCENC =      1443.53424874
  Ewald energy   TEWEN  =    -21494.01559793
  -Hartree energ DENC   =    -14187.76267705
  -exchange      EXHF   =         0.00000000
  -V(xc)+E(xc)   XCENC  =      1624.34637040
  PAW double counting   =     37417.84710496   -38522.08292753
  entropy T*S    EENTRO =        -0.03057110
  eigenvalues    EBANDS =     -1592.45611574
  atomic energy  EATOM  =     34890.38139807
  Solvation  Ediel_sol  =         0.00000000
  ---------------------------------------------------
  free energy    TOTEN  =      -420.23876718 eV

  energy without entropy =     -420.20819608  energy(sigma->0) =     -420.22348163


--------------------------------------------------------------------------------------------------------




--------------------------------------- Iteration      1(   7)  ---------------------------------------


    POTLOK:  cpu time    0.0590: real time    0.0591
    SETDIJ:  cpu time    0.0093: real time    0.0093
     EDDAV:  cpu time   39.6787: real time   39.7725
    CHARGE:  cpu time    1.2574: real time    1.2604
    MIXING:  cpu time    0.0022: real time    0.0022
    --------------------------------------------
      LOOP:  cpu time   41.0066: real time   41.1036

 eigenvalue-minimisations  : 17920
 total energy-change (2. order) : 0.1683980E+03  (-0.4111123E+02)
 number of electron     395.9999983 magnetization 
 augmentation part      132.0678940 magnetization 

 Broyden mixing:
  rms(total) = 0.85030E+01    rms(broyden)= 0.85015E+01
  rms(prec ) = 0.10425E+02
  weight for this iteration     100.00

 eigenvalues of (default mixing * dielectric matrix)
  average eigenvalue GAMMA=   0.8262
  1.2497  0.4026

 Free energy of the ion-electron system (eV)
  ---------------------------------------------------
  alpha Z        PSCENC =      1443.53424874
  Ewald energy   TEWEN  =    -21494.01559793
  -Hartree energ DENC   =    -14554.02531158
  -exchange      EXHF   =         0.00000000
  -V(xc)+E(xc)   XCENC  =      1630.91267220
  PAW double counting   =     40549.43034151   -41847.43179320
  entropy T*S    EENTRO =        -0.03225681
  eigenvalues    EBANDS =      -870.59444375
  atomic energy  EATOM  =     34890.38139807
  Solvation  Ediel_sol  =         0.00000000
  ---------------------------------------------------
  free energy    TOTEN  =      -251.84074277 eV

  energy without entropy =     -251.80848595  energy(sigma->0) =     -251.82461436


--------------------------------------------------------------------------------------------------------




--------------------------------------- Iteration      1(   8)  ---------------------------------------


    POTLOK:  cpu time    0.0588: real time    0.0589
    SETDIJ:  cpu time    0.0088: real time    0.0088
     EDDAV:  cpu time   38.6124: real time   38.7040
    CHARGE:  cpu time    1.2551: real time    1.2580
    MIXING:  cpu time    0.0024: real time    0.0024
    --------------------------------------------
      LOOP:  cpu time   39.9375: real time   40.0321

 eigenvalue-minimisations  : 17360
 total energy-change (2. order) :-0.1823893E+03  (-0.6191848E+02)
 number of electron     395.9999975 magnetization 
 augmentation part      123.2074457 magnetization 

 Broyden mixing:
  rms(total) = 0.21800E+02    rms(broyden)= 0.21800E+02
  rms(prec ) = 0.29074E+02
  weight for this iteration     100.00

 eigenvalues of (default mixing * dielectric matrix)
  average eigenvalue GAMMA=   0.7538
  1.6880  0.3828  0.1906

 Free energy of the ion-electron system (eV)
  ---------------------------------------------------
  alpha Z        PSCENC =      1443.53424874
  Ewald energy   TEWEN  =    -21494.01559793
  -Hartree energ DENC   =    -14553.41539901
  -exchange      EXHF   =         0.00000000
  -V(xc)+E(xc)   XCENC  =      1628.57352539
  PAW double counting   =     45201.30358841   -46612.05232431
  entropy T*S    EENTRO =        -0.03995246
  eigenvalues    EBANDS =      -938.49949917
  atomic energy  EATOM  =     34890.38139807
  Solvation  Ediel_sol  =         0.00000000
  ---------------------------------------------------
  free energy    TOTEN  =      -434.23001228 eV

  energy without entropy =     -434.19005982  energy(sigma->0) =     -434.21003605


--------------------------------------------------------------------------------------------------------




--------------------------------------- Iteration      1(   9)  ---------------------------------------


    POTLOK:  cpu time    0.0594: real time    0.0595
    SETDIJ:  cpu time    0.0092: real time    0.0093
     EDDAV:  cpu time   39.6623: real time   39.7561
    CHARGE:  cpu time    1.2567: real time    1.2597
    MIXING:  cpu time    0.0022: real time    0.0022
    --------------------------------------------
      LOOP:  cpu time   40.9897: real time   41.0867

 eigenvalue-minimisations  : 17920
 total energy-change (2. order) : 0.1068225E+03  (-0.5144523E+02)
 number of electron     395.9999993 magnetization 
 augmentation part      125.7669125 magnetization 

 Broyden mixing:
  rms(total) = 0.13354E+02    rms(broyden)= 0.13353E+02
  rms(prec ) = 0.18671E+02
  weight for this iteration     100.00

 eigenvalues of (default mixing * dielectric matrix)
  average eigenvalue GAMMA=   0.6654
  1.8822  0.3680  0.2057  0.2057

 Free energy of the ion-electron system (eV)
  ---------------------------------------------------
  alpha Z        PSCENC =      1443.53424874
  Ewald energy   TEWEN  =    -21494.01559793
  -Hartree energ DENC   =    -14485.71655113
  -exchange      EXHF   =         0.00000000
  -V(xc)+E(xc)   XCENC  =      1627.16675894
  PAW double counting   =     48212.60274500   -49658.04154895
  entropy T*S    EENTRO =        -0.03948458
  eigenvalues    EBANDS =      -863.27944197
  atomic energy  EATOM  =     34890.38139807
  Solvation  Ediel_sol  =         0.00000000
  ---------------------------------------------------
  free energy    TOTEN  =      -327.40747382 eV

  energy without entropy =     -327.36798924  energy(sigma->0) =     -327.38773153


--------------------------------------------------------------------------------------------------------




--------------------------------------- Iteration      1(  10)  ---------------------------------------


    POTLOK:  cpu time    0.0592: real time    0.0593
    SETDIJ:  cpu time    0.0093: real time    0.0093
     EDDAV:  cpu time   36.6625: real time   36.7492
    CHARGE:  cpu time    1.2566: real time    1.2596
    MIXING:  cpu time    0.0024: real time    0.0024
    --------------------------------------------
      LOOP:  cpu time   37.9900: real time   38.0799

 eigenvalue-minimisations  : 16352
 total energy-change (2. order) : 0.4417871E+02  (-0.3273524E+02)
 number of electron     395.9999985 magnetization 
 augmentation part      127.9408422 magnetization 

 Broyden mixing:
  rms(total) = 0.93024E+01    rms(broyden)= 0.93018E+01
  rms(prec ) = 0.13128E+02
  weight for this iteration     100.00

 eigenvalues of (default mixing * dielectric matrix)
  average eigenvalue GAMMA=   0.6147
  1.9976  0.3692  0.2844  0.2844  0.1378

 Free energy of the ion-electron system (eV)
  ---------------------------------------------------
  alpha Z        PSCENC =      1443.53424874
  Ewald energy   TEWEN  =    -21494.01559793
  -Hartree energ DENC   =    -14474.87175338
  -exchange      EXHF   =         0.00000000
  -V(xc)+E(xc)   XCENC  =      1626.46159427
  PAW double counting   =     50120.49754999   -51581.88287565
  entropy T*S    EENTRO =        -0.03370645
  eigenvalues    EBANDS =      -813.29962211
  atomic energy  EATOM  =     34890.38139807
  Solvation  Ediel_sol  =         0.00000000
  ---------------------------------------------------
  free energy    TOTEN  =      -283.22876445 eV

  energy without entropy =     -283.19505800  energy(sigma->0) =     -283.21191123


--------------------------------------------------------------------------------------------------------




--------------------------------------- Iteration      1(  11)  ---------------------------------------


    POTLOK:  cpu time    0.0587: real time    0.0588
    SETDIJ:  cpu time    0.0096: real time    0.0096
     EDDAV:  cpu time   35.5500: real time   35.6341
    CHARGE:  cpu time    1.2521: real time    1.2551
    MIXING:  cpu time    0.0025: real time    0.0025
    --------------------------------------------
      LOOP:  cpu time   36.8728: real time   36.9600

 eigenvalue-minimisations  : 15728
 total energy-change (2. order) : 0.2659313E+02  (-0.3607416E+02)
 number of electron     395.9999978 magnetization 
 augmentation part      129.4089361 magnetization 

 Broyden mixing:
  rms(total) = 0.62403E+01    rms(broyden)= 0.62396E+01
  rms(prec ) = 0.80672E+01
  weight for this iteration     100.00

 eigenvalues of (default mixing * dielectric matrix)
  average eigenvalue GAMMA=   0.5731
  2.0001  0.3821  0.3821  0.3761  0.1490  0.1490

 Free energy of the ion-electron system (eV)
  ---------------------------------------------------
  alpha Z        PSCENC =      1443.53424874
  Ewald energy   TEWEN  =    -21494.01559793
  -Hartree energ DENC   =    -14422.16047373
  -exchange      EXHF   =         0.00000000
  -V(xc)+E(xc)   XCENC  =      1625.55009417
  PAW double counting   =     51384.09675934   -52842.42509377
  entropy T*S    EENTRO =        -0.04134223
  eigenvalues    EBANDS =      -841.55562242
  atomic energy  EATOM  =     34890.38139807
  Solvation  Ediel_sol  =         0.00000000
  ---------------------------------------------------
  free energy    TOTEN  =      -256.63562977 eV

  energy without entropy =     -256.59428754  energy(sigma->0) =     -256.61495866


--------------------------------------------------------------------------------------------------------




--------------------------------------- Iteration      1(  12)  ---------------------------------------


    POTLOK:  cpu time    0.0595: real time    0.0596
    SETDIJ:  cpu time    0.0091: real time    0.0091
     EDDAV:  cpu time   38.1217: real time   38.2118
    CHARGE:  cpu time    1.2914: real time    1.2944
    MIXING:  cpu time    0.0026: real time    0.0026
    --------------------------------------------
      LOOP:  cpu time   39.4843: real time   39.5776

 eigenvalue-minimisations  : 17104
 total energy-change (2. order) : 0.1608756E+02  (-0.8501085E+01)
 number of electron     395.9999980 magnetization 
 augmentation part      129.6822779 magnetization 

 Broyden mixing:
  rms(total) = 0.39180E+01    rms(broyden)= 0.39174E+01
  rms(prec ) = 0.54029E+01
  weight for this iteration     100.00

 eigenvalues of (default mixing * dielectric matrix)
  average eigenvalue GAMMA=   0.5258
  1.9186  0.4589  0.4589  0.3499  0.1739  0.1739  0.1462

 Free energy of the ion-electron system (eV)
  ---------------------------------------------------
  alpha Z        PSCENC =      1443.53424874
  Ewald energy   TEWEN  =    -21494.01559793
  -Hartree energ DENC   =    -14415.47241963
  -exchange      EXHF   =         0.00000000
  -V(xc)+E(xc)   XCENC  =      1625.01627139
  PAW double counting   =     51743.70545272   -53195.79522697
  entropy T*S    EENTRO =        -0.04031227
  eigenvalues    EBANDS =      -837.86187986
  atomic energy  EATOM  =     34890.38139807
  Solvation  Ediel_sol  =         0.00000000
  ---------------------------------------------------
  free energy    TOTEN  =      -240.54806575 eV

  energy without entropy =     -240.50775348  energy(sigma->0) =     -240.52790962


--------------------------------------------------------------------------------------------------------




--------------------------------------- Iteration      1(  13)  ---------------------------------------


    POTLOK:  cpu time    0.0587: real time    0.0589
    SETDIJ:  cpu time    0.0093: real time    0.0093
     EDDAV:  cpu time   40.2019: real time   40.2969
    CHARGE:  cpu time    1.1782: real time    1.1810
    MIXING:  cpu time    0.0025: real time    0.0025
    --------------------------------------------
      LOOP:  cpu time   41.4506: real time   41.5485

 eigenvalue-minimisations  : 18720
 total energy-change (2. order) : 0.3011244E+01  (-0.3394577E+01)
 number of electron     395.9999979 magnetization 
 augmentation part      129.1616290 magnetization 

 Broyden mixing:
  rms(total) = 0.32198E+01    rms(broyden)= 0.32194E+01
  rms(prec ) = 0.36892E+01
  weight for this iteration     100.00

 eigenvalues of (default mixing * dielectric matrix)
  average eigenvalue GAMMA=   0.5012
  1.9471  0.5032  0.5032  0.2807  0.2807  0.1935  0.1505  0.1505

 Free energy of the ion-electron system (eV)
  ---------------------------------------------------
  alpha Z        PSCENC =      1443.53424874
  Ewald energy   TEWEN  =    -21494.01559793
  -Hartree energ DENC   =    -14422.41223934
  -exchange      EXHF   =         0.00000000
  -V(xc)+E(xc)   XCENC  =      1624.92378045
  PAW double counting   =     51551.00542716   -52997.54505479
  entropy T*S    EENTRO =        -0.03254365
  eigenvalues    EBANDS =      -833.37624055
  atomic energy  EATOM  =     34890.38139807
  Solvation  Ediel_sol  =         0.00000000
  ---------------------------------------------------
  free energy    TOTEN  =      -237.53682184 eV

  energy without entropy =     -237.50427819  energy(sigma->0) =     -237.52055002


--------------------------------------------------------------------------------------------------------




--------------------------------------- Iteration      1(  14)  ---------------------------------------


    POTLOK:  cpu time    0.0578: real time    0.0579
    SETDIJ:  cpu time    0.0094: real time    0.0095
     EDDAV:  cpu time   36.7948: real time   36.8819
    CHARGE:  cpu time    0.9184: real time    0.9206
    MIXING:  cpu time    0.0022: real time    0.0022
    --------------------------------------------
      LOOP:  cpu time   37.7826: real time   37.8720

 eigenvalue-minimisations  : 18752
 total energy-change (2. order) : 0.2418811E+00  (-0.1588366E+01)
 number of electron     395.9999981 magnetization 
 augmentation part      128.9139435 magnetization 

 Broyden mixing:
  rms(total) = 0.27318E+01    rms(broyden)= 0.27316E+01
  rms(prec ) = 0.35670E+01
  weight for this iteration     100.00

 eigenvalues of (default mixing * dielectric matrix)
  average eigenvalue GAMMA=   0.5208
  2.0242  0.6094  0.6094  0.3907  0.3907  0.2113  0.1577  0.1577  0.1357

 Free energy of the ion-electron system (eV)
  ---------------------------------------------------
  alpha Z        PSCENC =      1443.53424874
  Ewald energy   TEWEN  =    -21494.01559793
  -Hartree energ DENC   =    -14429.46600559
  -exchange      EXHF   =         0.00000000
  -V(xc)+E(xc)   XCENC  =      1624.79321010
  PAW double counting   =     51732.06896705   -53177.59620044
  entropy T*S    EENTRO =        -0.03012287
  eigenvalues    EBANDS =      -826.96483783
  atomic energy  EATOM  =     34890.38139807
  Solvation  Ediel_sol  =         0.00000000
  ---------------------------------------------------
  free energy    TOTEN  =      -237.29494072 eV

  energy without entropy =     -237.26481785  energy(sigma->0) =     -237.27987928


--------------------------------------------------------------------------------------------------------




--------------------------------------- Iteration      1(  15)  ---------------------------------------


    POTLOK:  cpu time    0.0482: real time    0.0483
    SETDIJ:  cpu time    0.0084: real time    0.0084
     EDDAV:  cpu time   27.3917: real time   27.4565
    CHARGE:  cpu time    0.8632: real time    0.8652
    MIXING:  cpu time    0.0023: real time    0.0023
    --------------------------------------------
      LOOP:  cpu time   28.3138: real time   28.3808

 eigenvalue-minimisations  : 16016
 total energy-change (2. order) : 0.5042457E+00  (-0.1676079E+01)
 number of electron     395.9999979 magnetization 
 augmentation part      129.3637472 magnetization 

 Broyden mixing:
  rms(total) = 0.25918E+01    rms(broyden)= 0.25915E+01
  rms(prec ) = 0.30332E+01
  weight for this iteration     100.00

 eigenvalues of (default mixing * dielectric matrix)
  average eigenvalue GAMMA=   0.5455
  2.1291  0.7875  0.7875  0.4184  0.4184  0.2902  0.1698  0.1698  0.1677  0.1163

 Free energy of the ion-electron system (eV)
  ---------------------------------------------------
  alpha Z        PSCENC =      1443.53424874
  Ewald energy   TEWEN  =    -21494.01559793
  -Hartree energ DENC   =    -14424.19228927
  -exchange      EXHF   =         0.00000000
  -V(xc)+E(xc)   XCENC  =      1624.57756270
  PAW double counting   =     52050.12982127   -53492.55370386
  entropy T*S    EENTRO =        -0.03063012
  eigenvalues    EBANDS =      -834.62150463
  atomic energy  EATOM  =     34890.38139807
  Solvation  Ediel_sol  =         0.00000000
  ---------------------------------------------------
  free energy    TOTEN  =      -236.79069503 eV

  energy without entropy =     -236.76006492  energy(sigma->0) =     -236.77537998


--------------------------------------------------------------------------------------------------------




--------------------------------------- Iteration      1(  16)  ---------------------------------------


    POTLOK:  cpu time    0.0472: real time    0.0473
    SETDIJ:  cpu time    0.0077: real time    0.0078
     EDDAV:  cpu time   27.3153: real time   27.3799
    CHARGE:  cpu time    0.8678: real time    0.8698
    MIXING:  cpu time    0.0025: real time    0.0025
    --------------------------------------------
      LOOP:  cpu time   28.2405: real time   28.3073

 eigenvalue-minimisations  : 16464
 total energy-change (2. order) : 0.4263238E+00  (-0.7431787E+00)
 number of electron     395.9999980 magnetization 
 augmentation part      129.8948134 magnetization 

 Broyden mixing:
  rms(total) = 0.21797E+01    rms(broyden)= 0.21795E+01
  rms(prec ) = 0.25692E+01
  weight for this iteration     100.00

 eigenvalues of (default mixing * dielectric matrix)
  average eigenvalue GAMMA=   0.5796
  2.2308  1.0002  1.0002  0.4480  0.4480  0.4395  0.1864  0.1864  0.1585  0.1585
  0.1186

 Free energy of the ion-electron system (eV)
  ---------------------------------------------------
  alpha Z        PSCENC =      1443.53424874
  Ewald energy   TEWEN  =    -21494.01559793
  -Hartree energ DENC   =    -14419.55427365
  -exchange      EXHF   =         0.00000000
  -V(xc)+E(xc)   XCENC  =      1624.44909993
  PAW double counting   =     52532.01649794   -53972.18803888
  entropy T*S    EENTRO =        -0.03436864
  eigenvalues    EBANDS =      -840.95333683
  atomic energy  EATOM  =     34890.38139807
  Solvation  Ediel_sol  =         0.00000000
  ---------------------------------------------------
  free energy    TOTEN  =      -236.36437126 eV

  energy without entropy =     -236.33000262  energy(sigma->0) =     -236.34718694


--------------------------------------------------------------------------------------------------------




--------------------------------------- Iteration      1(  17)  ---------------------------------------


    POTLOK:  cpu time    0.0475: real time    0.0476
    SETDIJ:  cpu time    0.0077: real time    0.0077
     EDDAV:  cpu time   27.2889: real time   27.3534
    CHARGE:  cpu time    0.8677: real time    0.8698
    MIXING:  cpu time    0.0024: real time    0.0024
    --------------------------------------------
      LOOP:  cpu time   28.2143: real time   28.2809

 eigenvalue-minimisations  : 16416
 total energy-change (2. order) : 0.5358634E+00  (-0.5047563E+00)
 number of electron     395.9999981 magnetization 
 augmentation part      130.1007881 magnetization 

 Broyden mixing:
  rms(total) = 0.15427E+01    rms(broyden)= 0.15425E+01
  rms(prec ) = 0.18269E+01
  weight for this iteration     100.00

 eigenvalues of (default mixing * dielectric matrix)
  average eigenvalue GAMMA=   0.5767
  2.2660  1.0562  1.0562  0.5164  0.4519  0.4519  0.2569  0.2569  0.1622  0.1622
  0.1649  0.1182

 Free energy of the ion-electron system (eV)
  ---------------------------------------------------
  alpha Z        PSCENC =      1443.53424874
  Ewald energy   TEWEN  =    -21494.01559793
  -Hartree energ DENC   =    -14424.41952925
  -exchange      EXHF   =         0.00000000
  -V(xc)+E(xc)   XCENC  =      1624.40349865
  PAW double counting   =     52981.53023630   -54417.14820670
  entropy T*S    EENTRO =        -0.03488802
  eigenvalues    EBANDS =      -840.05966771
  atomic energy  EATOM  =     34890.38139807
  Solvation  Ediel_sol  =         0.00000000
  ---------------------------------------------------
  free energy    TOTEN  =      -235.82850787 eV

  energy without entropy =     -235.79361985  energy(sigma->0) =     -235.81106386


--------------------------------------------------------------------------------------------------------




--------------------------------------- Iteration      1(  18)  ---------------------------------------


    POTLOK:  cpu time    0.0472: real time    0.0473
    SETDIJ:  cpu time    0.0077: real time    0.0077
     EDDAV:  cpu time   28.4857: real time   28.5531
    CHARGE:  cpu time    0.8678: real time    0.8698
    MIXING:  cpu time    0.0025: real time    0.0025
    --------------------------------------------
      LOOP:  cpu time   29.4109: real time   29.4805

 eigenvalue-minimisations  : 17296
 total energy-change (2. order) : 0.5230557E-01  (-0.5191199E+00)
 number of electron     395.9999980 magnetization 
 augmentation part      130.2055712 magnetization 

 Broyden mixing:
  rms(total) = 0.14733E+01    rms(broyden)= 0.14731E+01
  rms(prec ) = 0.18456E+01
  weight for this iteration     100.00

 eigenvalues of (default mixing * dielectric matrix)
  average eigenvalue GAMMA=   0.5792
  2.3172  1.3525  0.8426  0.6007  0.6007  0.4008  0.4008  0.2426  0.1621  0.1621
  0.1659  0.1648  0.1175

 Free energy of the ion-electron system (eV)
  ---------------------------------------------------
  alpha Z        PSCENC =      1443.53424874
  Ewald energy   TEWEN  =    -21494.01559793
  -Hartree energ DENC   =    -14427.80890787
  -exchange      EXHF   =         0.00000000
  -V(xc)+E(xc)   XCENC  =      1624.33968297
  PAW double counting   =     53151.43475008   -54582.56124157
  entropy T*S    EENTRO =        -0.03790136
  eigenvalues    EBANDS =      -841.04263342
  atomic energy  EATOM  =     34890.38139807
  Solvation  Ediel_sol  =         0.00000000
  ---------------------------------------------------
  free energy    TOTEN  =      -235.77620230 eV

  energy without entropy =     -235.73830094  energy(sigma->0) =     -235.75725162


--------------------------------------------------------------------------------------------------------




--------------------------------------- Iteration      1(  19)  ---------------------------------------


    POTLOK:  cpu time    0.0473: real time    0.0474
    SETDIJ:  cpu time    0.0076: real time    0.0077
     EDDAV:  cpu time   24.6225: real time   24.6807
    CHARGE:  cpu time    0.8707: real time    0.8727
    MIXING:  cpu time    0.0027: real time    0.0027
    --------------------------------------------
      LOOP:  cpu time   25.5508: real time   25.6112

 eigenvalue-minimisations  : 14432
 total energy-change (2. order) : 0.2752742E+00  (-0.3152852E+00)
 number of electron     395.9999981 magnetization 
 augmentation part      130.2562735 magnetization 

 Broyden mixing:
  rms(total) = 0.95639E+00    rms(broyden)= 0.95618E+00
  rms(prec ) = 0.12057E+01
  weight for this iteration     100.00

 eigenvalues of (default mixing * dielectric matrix)
  average eigenvalue GAMMA=   0.5929
  2.3967  1.7379  0.6844  0.6554  0.6554  0.4418  0.4418  0.3161  0.2032  0.1623
  0.1623  0.1177  0.1675  0.1581

 Free energy of the ion-electron system (eV)
  ---------------------------------------------------
  alpha Z        PSCENC =      1443.53424874
  Ewald energy   TEWEN  =    -21494.01559793
  -Hartree energ DENC   =    -14429.28032733
  -exchange      EXHF   =         0.00000000
  -V(xc)+E(xc)   XCENC  =      1624.26128693
  PAW double counting   =     53224.39473951   -54651.74512117
  entropy T*S    EENTRO =        -0.04247043
  eigenvalues    EBANDS =      -842.98908448
  atomic energy  EATOM  =     34890.38139807
  Solvation  Ediel_sol  =         0.00000000
  ---------------------------------------------------
  free energy    TOTEN  =      -235.50092810 eV

  energy without entropy =     -235.45845767  energy(sigma->0) =     -235.47969288


--------------------------------------------------------------------------------------------------------




--------------------------------------- Iteration      1(  20)  ---------------------------------------


    POTLOK:  cpu time    0.0475: real time    0.0476
    SETDIJ:  cpu time    0.0077: real time    0.0077
     EDDAV:  cpu time   27.0529: real time   27.1168
    CHARGE:  cpu time    0.8700: real time    0.8721
    MIXING:  cpu time    0.0028: real time    0.0028
    --------------------------------------------
      LOOP:  cpu time   27.9809: real time   28.0470

 eigenvalue-minimisations  : 16256
 total energy-change (2. order) : 0.1108654E+00  (-0.1910994E+00)
 number of electron     395.9999980 magnetization 
 augmentation part      130.3577427 magnetization 

 Broyden mixing:
  rms(total) = 0.85327E+00    rms(broyden)= 0.85314E+00
  rms(prec ) = 0.10512E+01
  weight for this iteration     100.00

 eigenvalues of (default mixing * dielectric matrix)
  average eigenvalue GAMMA=   0.6079
  2.5398  1.8979  0.7505  0.7505  0.6550  0.4543  0.4543  0.4350  0.2264  0.2050
  0.1619  0.1619  0.1668  0.1174  0.1412

 Free energy of the ion-electron system (eV)
  ---------------------------------------------------
  alpha Z        PSCENC =      1443.53424874
  Ewald energy   TEWEN  =    -21494.01559793
  -Hartree energ DENC   =    -14429.36635891
  -exchange      EXHF   =         0.00000000
  -V(xc)+E(xc)   XCENC  =      1624.17683961
  PAW double counting   =     53262.75161410   -54687.59587400
  entropy T*S    EENTRO =        -0.03505885
  eigenvalues    EBANDS =      -845.22127353
  atomic energy  EATOM  =     34890.38139807
  Solvation  Ediel_sol  =         0.00000000
  ---------------------------------------------------
  free energy    TOTEN  =      -235.39006271 eV

  energy without entropy =     -235.35500386  energy(sigma->0) =     -235.37253329


--------------------------------------------------------------------------------------------------------




--------------------------------------- Iteration      1(  21)  ---------------------------------------


    POTLOK:  cpu time    0.0474: real time    0.0475
    SETDIJ:  cpu time    0.0078: real time    0.0078
     EDDAV:  cpu time   30.1103: real time   30.1814
    CHARGE:  cpu time    0.8661: real time    0.8681
    MIXING:  cpu time    0.0029: real time    0.0029
    --------------------------------------------
      LOOP:  cpu time   31.0345: real time   31.1078

 eigenvalue-minimisations  : 18608
 total energy-change (2. order) : 0.1249500E+00  (-0.5147027E-01)
 number of electron     395.9999981 magnetization 
 augmentation part      130.3426842 magnetization 

 Broyden mixing:
  rms(total) = 0.54258E+00    rms(broyden)= 0.54252E+00
  rms(prec ) = 0.65689E+00
  weight for this iteration     100.00

 eigenvalues of (default mixing * dielectric matrix)
  average eigenvalue GAMMA=   0.6041
  2.3926  1.9623  0.8187  0.8187  0.7881  0.5695  0.3850  0.3850  0.3651  0.2356
  0.1940  0.1619  0.1619  0.1679  0.1175  0.1418

 Free energy of the ion-electron system (eV)
  ---------------------------------------------------
  alpha Z        PSCENC =      1443.53424874
  Ewald energy   TEWEN  =    -21494.01559793
  -Hartree energ DENC   =    -14429.93562601
  -exchange      EXHF   =         0.00000000
  -V(xc)+E(xc)   XCENC  =      1624.10323269
  PAW double counting   =     53278.13485179   -54701.58572161
  entropy T*S    EENTRO =        -0.04341285
  eigenvalues    EBANDS =      -845.83848556
  atomic energy  EATOM  =     34890.38139807
  Solvation  Ediel_sol  =         0.00000000
  ---------------------------------------------------
  free energy    TOTEN  =      -235.26511267 eV

  energy without entropy =     -235.22169982  energy(sigma->0) =     -235.24340625


--------------------------------------------------------------------------------------------------------




--------------------------------------- Iteration      1(  22)  ---------------------------------------


    POTLOK:  cpu time    0.0472: real time    0.0473
    SETDIJ:  cpu time    0.0076: real time    0.0076
     EDDAV:  cpu time   26.8269: real time   26.8902
    CHARGE:  cpu time    0.8662: real time    0.8683
    MIXING:  cpu time    0.0029: real time    0.0029
    --------------------------------------------
      LOOP:  cpu time   27.7508: real time   27.8164

 eigenvalue-minimisations  : 16112
 total energy-change (2. order) : 0.4214364E-01  (-0.3288107E-01)
 number of electron     395.9999980 magnetization 
 augmentation part      130.3696832 magnetization 

 Broyden mixing:
  rms(total) = 0.46445E+00    rms(broyden)= 0.46441E+00
  rms(prec ) = 0.54519E+00
  weight for this iteration     100.00

 eigenvalues of (default mixing * dielectric matrix)
  average eigenvalue GAMMA=   0.6154
  2.4767  2.0226  0.9690  0.9690  0.6750  0.6750  0.4964  0.3988  0.3988  0.2452
  0.2088  0.1621  0.1621  0.1726  0.1726  0.1175  0.1403

 Free energy of the ion-electron system (eV)
  ---------------------------------------------------
  alpha Z        PSCENC =      1443.53424874
  Ewald energy   TEWEN  =    -21494.01559793
  -Hartree energ DENC   =    -14427.76440781
  -exchange      EXHF   =         0.00000000
  -V(xc)+E(xc)   XCENC  =      1624.06064913
  PAW double counting   =     53240.89131829   -54663.73364447
  entropy T*S    EENTRO =        -0.03626647
  eigenvalues    EBANDS =      -848.54066656
  atomic energy  EATOM  =     34890.38139807
  Solvation  Ediel_sol  =         0.00000000
  ---------------------------------------------------
  free energy    TOTEN  =      -235.22296902 eV

  energy without entropy =     -235.18670255  energy(sigma->0) =     -235.20483579


--------------------------------------------------------------------------------------------------------




--------------------------------------- Iteration      1(  23)  ---------------------------------------


    POTLOK:  cpu time    0.0474: real time    0.0475
    SETDIJ:  cpu time    0.0077: real time    0.0077
     EDDAV:  cpu time   30.2628: real time   30.3344
    CHARGE:  cpu time    0.8645: real time    0.8666
    MIXING:  cpu time    0.0031: real time    0.0031
    --------------------------------------------
      LOOP:  cpu time   31.1855: real time   31.2592

 eigenvalue-minimisations  : 18688
 total energy-change (2. order) : 0.3573128E-01  (-0.1367305E-01)
 number of electron     395.9999981 magnetization 
 augmentation part      130.3690371 magnetization 

 Broyden mixing:
  rms(total) = 0.32149E+00    rms(broyden)= 0.32147E+00
  rms(prec ) = 0.38424E+00
  weight for this iteration     100.00

 eigenvalues of (default mixing * dielectric matrix)
  average eigenvalue GAMMA=   0.6269
  2.6465  2.0005  1.1412  1.1412  0.6717  0.6717  0.5311  0.4151  0.4151  0.2863
  0.2189  0.2189  0.1620  0.1620  0.1723  0.1723  0.1175  0.1401

 Free energy of the ion-electron system (eV)
  ---------------------------------------------------
  alpha Z        PSCENC =      1443.53424874
  Ewald energy   TEWEN  =    -21494.01559793
  -Hartree energ DENC   =    -14427.65830066
  -exchange      EXHF   =         0.00000000
  -V(xc)+E(xc)   XCENC  =      1624.03412587
  PAW double counting   =     53225.78092500   -54648.25696485
  entropy T*S    EENTRO =        -0.04160468
  eigenvalues    EBANDS =      -848.94546729
  atomic energy  EATOM  =     34890.38139807
  Solvation  Ediel_sol  =         0.00000000
  ---------------------------------------------------
  free energy    TOTEN  =      -235.18723774 eV

  energy without entropy =     -235.14563306  energy(sigma->0) =     -235.16643540


--------------------------------------------------------------------------------------------------------




--------------------------------------- Iteration      1(  24)  ---------------------------------------


    POTLOK:  cpu time    0.0474: real time    0.0475
    SETDIJ:  cpu time    0.0079: real time    0.0080
     EDDAV:  cpu time   30.3675: real time   30.4393
    CHARGE:  cpu time    0.8767: real time    0.8787
    MIXING:  cpu time    0.0032: real time    0.0032
    --------------------------------------------
      LOOP:  cpu time   31.3027: real time   31.3767

 eigenvalue-minimisations  : 18816
 total energy-change (2. order) : 0.2145115E-01  (-0.9243174E-02)
 number of electron     395.9999980 magnetization 
 augmentation part      130.3275818 magnetization 

 Broyden mixing:
  rms(total) = 0.23280E+00    rms(broyden)= 0.23278E+00
  rms(prec ) = 0.28331E+00
  weight for this iteration     100.00

 eigenvalues of (default mixing * dielectric matrix)
  average eigenvalue GAMMA=   0.6409
  2.7843  1.6723  1.6723  1.0827  0.6996  0.6996  0.6900  0.4323  0.4323  0.4060
  0.2666  0.2291  0.1987  0.1621  0.1621  0.1175  0.1653  0.1653  0.1396

 Free energy of the ion-electron system (eV)
  ---------------------------------------------------
  alpha Z        PSCENC =      1443.53424874
  Ewald energy   TEWEN  =    -21494.01559793
  -Hartree energ DENC   =    -14427.51916859
  -exchange      EXHF   =         0.00000000
  -V(xc)+E(xc)   XCENC  =      1624.01683928
  PAW double counting   =     53213.54133408   -54635.78831006
  entropy T*S    EENTRO =        -0.03738540
  eigenvalues    EBANDS =      -849.27914478
  atomic energy  EATOM  =     34890.38139807
  Solvation  Ediel_sol  =         0.00000000
  ---------------------------------------------------
  free energy    TOTEN  =      -235.16578660 eV

  energy without entropy =     -235.12840120  energy(sigma->0) =     -235.14709390


--------------------------------------------------------------------------------------------------------




--------------------------------------- Iteration      1(  25)  ---------------------------------------


    POTLOK:  cpu time    0.0475: real time    0.0476
    SETDIJ:  cpu time    0.0077: real time    0.0077
     EDDAV:  cpu time   31.0879: real time   31.1614
    CHARGE:  cpu time    0.8759: real time    0.8780
    MIXING:  cpu time    0.0034: real time    0.0034
    --------------------------------------------
      LOOP:  cpu time   32.0224: real time   32.0981

 eigenvalue-minimisations  : 18944
 total energy-change (2. order) : 0.1098310E-01  (-0.5509683E-02)
 number of electron     395.9999980 magnetization 
 augmentation part      130.3324221 magnetization 

 Broyden mixing:
  rms(total) = 0.17360E+00    rms(broyden)= 0.17358E+00
  rms(prec ) = 0.20357E+00
  weight for this iteration     100.00

 eigenvalues of (default mixing * dielectric matrix)
  average eigenvalue GAMMA=   0.6405
  2.5507  1.9686  1.9686  0.8576  0.8576  0.7198  0.7198  0.4383  0.4236  0.4236
  0.3292  0.2440  0.1175  0.1621  0.1621  0.2002  0.1936  0.1667  0.1667  0.1399

 Free energy of the ion-electron system (eV)
  ---------------------------------------------------
  alpha Z        PSCENC =      1443.53424874
  Ewald energy   TEWEN  =    -21494.01559793
  -Hartree energ DENC   =    -14427.18323024
  -exchange      EXHF   =         0.00000000
  -V(xc)+E(xc)   XCENC  =      1624.02209149
  PAW double counting   =     53203.22182627   -54625.71214305
  entropy T*S    EENTRO =        -0.03925691
  eigenvalues    EBANDS =      -849.36413993
  atomic energy  EATOM  =     34890.38139807
  Solvation  Ediel_sol  =         0.00000000
  ---------------------------------------------------
  free energy    TOTEN  =      -235.15480349 eV

  energy without entropy =     -235.11554659  energy(sigma->0) =     -235.13517504


--------------------------------------------------------------------------------------------------------




--------------------------------------- Iteration      1(  26)  ---------------------------------------


    POTLOK:  cpu time    0.0473: real time    0.0474
    SETDIJ:  cpu time    0.0077: real time    0.0078
     EDDAV:  cpu time   33.5437: real time   33.6301
    CHARGE:  cpu time    1.1634: real time    1.1662
    MIXING:  cpu time    0.0047: real time    0.0079
    --------------------------------------------
      LOOP:  cpu time   34.7668: real time   34.8594

 eigenvalue-minimisations  : 16864
 total energy-change (2. order) : 0.3551272E-02  (-0.3483263E-02)
 number of electron     395.9999980 magnetization 
[...]
 -0.360   0.395  -0.223  -0.029  -2.182   0.293  -0.524   0.191   0.060   2.191  -0.344   0.124   1.389  -0.004  -0.169  -0.191
 -0.198   0.805  -1.500  -1.028  -0.701   0.229  -0.756   1.470   0.943   0.718   0.282  -0.146  -0.004   0.975   0.132  -0.000
 -0.978  -0.017  -0.460  -1.236  -0.126   1.082   0.048   0.480   1.112   0.046   0.188  -0.114  -0.169   0.132   1.578   0.018
  0.155  -0.020   0.093   0.150   0.338  -0.083   0.050  -0.062  -0.199  -0.266   0.051  -0.090  -0.191  -0.000   0.018   0.111
 -0.010  -0.070   0.053  -0.181  -0.079  -0.050  -0.058   0.011   0.359   0.143  -0.108   0.127  -0.006  -0.120  -0.013  -0.044
 -0.034   0.034  -0.062  -0.209  -0.233  -0.098  -0.087   0.083   0.371   0.327  -0.086   0.137   0.003  -0.003  -0.249  -0.076


------------------------ aborting loop because EDIFF is reached ----------------------------------------


    CHARGE:  cpu time    1.2709: real time    1.2739
    FORLOC:  cpu time    0.0277: real time    0.0283
    FORNL :  cpu time    9.2773: real time    9.2993
    STRESS:  cpu time   27.8294: real time   27.8958
    FORCOR:  cpu time    0.0776: real time    0.0778
    FORHAR:  cpu time    0.0367: real time    0.0367
    MIXING:  cpu time    0.0055: real time    0.0055
    OFIELD:  cpu time    0.0001: real time    0.0001

  FORCE on cell =-STRESS in cart. coord.  units (eV):
  Direction    XX          YY          ZZ          XY          YZ          ZX
  --------------------------------------------------------------------------------------
  Alpha Z  1443.53425  1443.53425  1443.53425
  Ewald    1188.36406   202.99999-22885.53248  -712.42606  -266.59818   415.02317
  Hartree 10467.34632  9909.73264 -5948.35694  -288.46250   -70.38005    96.28863
  E(xc)   -2071.53152 -2070.25508 -2072.51140     1.00574     0.66820    -1.31824
  Local  -19419.33128-17936.18034 20509.09908   920.94214   301.39229  -433.24494
  n-local  -616.23292  -651.49181  -732.23718   -31.04235   -16.69020    43.87493
  augment  3264.47442  3289.33794  3432.82573    33.89032    16.66047   -31.49283
  Kinetic  6182.27679  6192.29882  6480.25869    17.35256    -6.37776   -12.03163
  Fock        0.00000     0.00000     0.00000     0.00000     0.00000     0.00000
  -------------------------------------------------------------------------------------
  Total      438.9001366    379.9764097    227.0797317    -58.7401525    -41.3252182     77.0990864
  in kB     1463.3375579   1266.8798778    757.1068505   -195.8456243   -137.7824678    257.0561717
  external PRESSURE =    1162.4414287 kB  Pullay stress =       0.0000000 kB


 VOLUME and BASIS-vectors are now :
 -----------------------------------------------------------------------------
  energy-cutoff  :      500.00
  volume of cell :      480.54
      direct lattice vectors                 reciprocal lattice vectors
     7.944726500  0.000000000  0.000000000     0.125869657  0.072670880  0.000000000
    -3.972363250  6.880334980  0.000000000     0.000000000  0.145341761  0.000000000
     0.000000000  0.000000000  8.791100500     0.000000000  0.000000000  0.113751401

  length of vectors
     7.944726500  7.944726504  8.791100500     0.145341761  0.145341761  0.113751401


 FORCES acting on ions
    electron-ion (+dipol)            ewald-force                    non-local-force                 convergence-correction
 -----------------------------------------------------------------------------------------------
   0.788E+02 -.160E+03 0.147E+03   -.983E+02 0.186E+03 -.162E+03   0.348E+01 -.260E+01 0.286E+01   0.986E-02 0.101E-01 0.917E-02
   -.230E+03 -.141E+03 0.526E+02   0.258E+03 0.151E+03 -.463E+02   -.368E+01 -.206E+01 0.867E+00   0.329E-01 0.886E-01 -.187E-01
   -.209E+03 -.770E+02 0.609E+02   0.235E+03 0.729E+02 -.590E+02   -.332E+01 0.114E+01 0.218E+01   0.426E-02 -.470E-02 0.781E-02
   -.129E+03 -.217E+03 0.918E+02   0.147E+03 0.228E+03 -.965E+02   -.200E+00 -.187E+01 0.707E+00   0.123E-01 0.126E-01 -.602E-02
   -.104E+03 0.332E+03 -.167E+03   0.135E+03 -.373E+03 0.196E+03   0.141E+01 0.557E+01 0.391E+00   0.159E-01 0.862E-02 0.947E-02
   -.205E+03 0.149E+03 0.126E+03   0.224E+03 -.155E+03 -.120E+03   -.202E+01 0.318E+01 0.144E+01   0.930E-01 -.115E-01 -.200E-01
   -.327E+02 -.174E+03 0.989E+02   0.322E+02 0.192E+03 -.988E+02   -.286E+00 -.450E+01 0.108E+01   0.344E-02 0.407E-03 0.132E-01
   0.802E+02 -.802E+02 0.119E+03   -.912E+02 0.847E+02 -.126E+03   0.175E+01 0.370E+00 -.306E+00   0.245E-01 0.128E-01 -.965E-02
   -.571E+02 -.159E+03 0.993E+01   0.599E+02 0.162E+03 -.611E+01   0.113E+01 -.228E+01 0.136E+01   -.211E-02 -.737E-02 0.896E-02
   -.126E+03 -.885E+02 0.543E+02   0.130E+03 0.891E+02 -.550E+02   -.378E+00 0.314E+00 0.566E+00   -.873E-02 -.204E-01 -.139E-01
   0.560E+02 0.297E+03 0.246E+02   -.704E+02 -.320E+03 -.164E+02   0.130E+01 0.857E+01 0.995E+00   -.111E-01 0.484E-02 0.128E-01
   -.340E+01 0.120E+03 0.139E+03   0.282E+01 -.123E+03 -.137E+03   0.185E+01 0.261E+01 0.281E+01   -.288E-01 -.321E-02 -.117E-01
   0.939E+02 -.165E+03 -.104E+03   -.102E+03 0.209E+03 0.115E+03   0.237E+01 -.423E+01 -.149E+01   -.150E-01 0.105E-01 0.134E-01
   0.293E+03 -.115E+03 0.610E+02   -.314E+03 0.134E+03 -.623E+02   0.499E+01 -.131E+00 0.547E+00   -.760E-01 0.470E-01 -.148E-01
   0.126E+03 -.137E+03 0.329E+02   -.131E+03 0.147E+03 -.271E+02   0.198E+01 0.310E+00 0.218E+01   0.317E-02 -.163E-01 0.952E-02
   0.731E+02 -.667E+02 0.849E+02   -.767E+02 0.672E+02 -.867E+02   0.309E+01 0.270E+00 0.185E+01   -.695E-02 -.587E-01 -.119E-01
   -.562E+02 0.205E+03 -.231E+02   0.625E+02 -.215E+03 0.283E+02   -.319E+00 0.656E+01 -.237E+01   -.554E-02 -.392E-02 0.132E-01
   0.124E+03 0.364E+03 0.480E+02   -.131E+03 -.381E+03 -.482E+02   0.206E+01 0.742E+01 -.153E+01   -.414E-01 -.243E-01 -.129E-01
   -.572E+00 -.165E+03 -.514E+03   -.596E+01 0.166E+03 0.541E+03   0.645E+01 0.189E+01 -.241E+02   0.198E-04 0.177E-02 -.276E-02
   -.819E+02 -.928E+02 0.386E+03   0.817E+02 0.910E+02 -.409E+03   0.161E+01 0.340E+01 0.244E+02   0.226E-01 0.202E-01 -.542E-02
   -.598E+02 -.100E+03 -.341E+03   0.587E+02 0.952E+02 0.367E+03   0.241E-01 0.394E+01 -.237E+02   0.125E-01 0.245E-01 -.309E-02
   -.723E+02 -.173E+03 0.377E+03   0.761E+02 0.180E+03 -.401E+03   -.386E+01 -.223E+01 0.115E+02   0.450E-02 -.343E-03 0.872E-02
   -.750E+02 -.702E+01 -.507E+03   0.798E+02 0.111E+02 0.528E+03   -.383E+01 -.293E+01 -.168E+02   0.479E-02 -.267E-02 -.962E-03
   0.161E+02 -.283E+02 0.381E+03   -.236E+02 0.248E+02 -.409E+03   0.449E+01 0.416E+01 0.257E+02   -.206E-02 0.220E-02 0.571E-02
   -.645E+02 0.233E+02 -.292E+03   0.649E+02 -.236E+02 0.314E+03   0.226E+00 -.801E+00 -.228E+02   0.307E-01 -.205E-02 -.488E-02
   -.242E+02 -.227E+02 0.287E+03   0.187E+02 0.267E+02 -.302E+03   0.428E+01 -.353E+01 0.851E+01   -.517E-02 -.210E-02 0.727E-02
   -.220E+03 0.427E+02 -.683E+03   0.268E+03 -.507E+02 0.748E+03   -.192E+02 -.635E+01 -.306E+02   0.559E-02 0.668E-02 -.162E-02
   -.196E+02 0.674E+02 0.425E+03   0.146E+02 -.694E+02 -.457E+03   0.482E+01 -.140E+01 0.286E+02   0.296E-01 0.773E-02 -.708E-03
   -.116E+03 -.518E+01 -.345E+03   0.122E+03 0.593E+01 0.373E+03   -.274E+01 -.435E+01 -.242E+02   0.418E-01 0.301E-01 0.126E-01
   -.822E+02 0.120E+03 0.390E+03   0.917E+02 -.133E+03 -.427E+03   -.943E+00 0.114E+02 0.222E+02   0.926E-02 0.438E-02 0.102E-01
   -.174E+02 -.764E+02 -.469E+03   0.173E+02 0.722E+02 0.493E+03   0.162E+01 0.442E+01 -.210E+02   0.205E-02 -.695E-02 -.128E-02
   0.118E+02 -.627E+02 0.427E+03   -.903E+01 0.613E+02 -.455E+03   -.300E+01 0.220E+01 0.262E+02   -.159E-01 0.215E-02 0.109E-02
   0.351E+02 -.123E+03 -.323E+03   -.379E+02 0.128E+03 0.354E+03   0.177E+01 -.176E+01 -.287E+02   -.467E-03 -.113E-01 -.168E-01
   0.600E+02 -.328E+02 0.391E+03   -.618E+02 0.219E+02 -.420E+03   -.122E+01 0.426E+01 0.176E+02   -.780E-02 0.341E-02 0.971E-02
   0.368E+02 0.862E+02 -.487E+03   -.458E+02 -.921E+02 0.511E+03   0.787E+01 0.494E+01 -.220E+02   -.444E-02 -.123E-02 -.541E-02
   0.212E+02 -.315E+01 0.372E+03   -.225E+02 0.745E+01 -.395E+03   0.127E+01 -.414E+01 0.243E+02   -.130E-01 -.583E-01 -.222E-01
   0.381E+02 0.706E+02 -.296E+03   -.424E+02 -.717E+02 0.318E+03   0.340E+01 0.669E+00 -.216E+02   -.576E-01 -.346E-01 0.124E-01
   0.277E+02 -.252E+01 0.289E+03   -.298E+02 0.235E+01 -.307E+03   -.486E-01 0.578E+00 0.109E+02   -.734E-03 -.441E-02 0.171E-01
   -.913E+01 0.819E+01 -.611E+03   0.160E+02 -.457E+01 0.653E+03   -.251E+01 -.724E+01 -.331E+02   -.996E-02 0.443E-02 0.126E-04
   0.675E+02 0.177E+03 0.492E+03   -.702E+02 -.194E+03 -.534E+03   0.224E+01 0.616E+01 0.318E+02   -.689E-01 0.136E-01 -.263E-01
   -.497E+02 0.803E+02 -.355E+03   0.617E+02 -.870E+02 0.390E+03   -.467E+01 -.223E-01 -.285E+02   -.155E-01 0.273E-02 -.153E-01
   -.413E+02 0.195E+03 0.431E+03   0.497E+02 -.226E+03 -.483E+03   -.129E+01 0.591E+01 0.250E+02   -.881E-02 -.814E-02 0.126E-01
   0.945E+02 -.196E+02 -.570E+03   -.105E+03 0.815E+01 0.610E+03   0.303E+01 0.730E+01 -.300E+02   0.592E-03 0.386E-02 -.320E-02
   0.883E+02 -.190E+03 0.535E+03   -.102E+03 0.211E+03 -.582E+03   -.603E+00 -.110E+02 0.327E+02   -.111E-01 0.363E-01 -.216E-01
   0.137E+03 -.130E+02 -.389E+03   -.152E+03 -.818E+00 0.428E+03   0.447E+01 0.741E+01 -.305E+02   -.908E-02 0.840E-02 -.610E-03
   0.614E+02 -.153E+03 0.401E+03   -.765E+02 0.168E+03 -.428E+03   0.142E+01 -.499E+01 0.102E+02   0.369E-02 0.142E-01 0.753E-02
   0.667E+02 0.694E+02 -.480E+03   -.698E+02 -.747E+02 0.504E+03   0.501E+00 0.584E+01 -.204E+02   -.254E-02 -.578E-02 -.493E-02
   0.194E+02 -.213E+02 0.446E+03   -.196E+02 0.272E+02 -.481E+03   -.564E+01 -.487E+01 0.290E+02   0.166E-01 -.231E-01 -.114E-01
   0.432E+02 0.152E+03 -.375E+03   -.434E+02 -.162E+03 0.409E+03   -.238E+01 0.637E+01 -.305E+02   0.345E-01 -.497E-01 0.364E-01
   0.830E+02 -.807E+02 0.338E+03   -.102E+03 0.105E+03 -.367E+03   0.627E+01 -.156E+02 0.149E+02   0.101E-01 -.107E-01 0.881E-02
   -.334E+02 0.101E+03 -.608E+03   0.535E+02 -.105E+03 0.659E+03   -.878E+01 -.739E+01 -.314E+02   0.313E-02 0.229E-02 0.105E-02
   0.835E+01 0.847E+02 0.570E+03   -.127E+02 -.830E+02 -.623E+03   -.367E+01 -.378E+01 0.383E+02   0.370E-01 0.233E-01 -.624E-01
   0.226E+02 0.556E+02 -.545E+03   -.184E+02 -.576E+02 0.603E+03   -.170E+01 -.568E+01 -.391E+02   -.280E-01 0.562E-01 0.361E-01
   0.237E+03 0.137E+03 0.455E+03   -.296E+03 -.134E+03 -.513E+03   0.141E+02 0.457E+01 0.241E+02   0.350E-02 0.700E-02 0.144E-01
 -----------------------------------------------------------------------------------------------
   -.190E+02 -.161E+02 0.590E+02   0.455E-12 0.568E-12 0.114E-12   0.190E+02 0.159E+02 -.590E+02   0.153E-01 0.993E-01 -.315E-01
 
 
 POSITION                                       TOTAL-FORCE (eV/Angst)
 -----------------------------------------------------------------------------------
      0.14309      0.03492      0.00772       -15.997733     22.906339    -12.310251
      3.82328      6.85814      4.59851        24.909997      8.070823      7.086465
      6.54431      2.36397      8.78760        22.418065     -3.001436      4.107357
      6.51275      2.30902      4.69766        17.522809      8.334921     -4.009067
     -2.71713      4.96510      0.00400        32.045797    -35.879940     30.078200
      5.12472      4.78470      4.50318        17.104811     -3.137745      6.728998
     -1.10618      6.79225      8.69630        -0.752552     13.648094      1.132172
      2.77114      0.11889      4.64583        -9.271205      4.892410     -7.041872
      1.31189      2.35709      0.05002         3.918280      0.937913      5.190232
      1.38096      2.35262      4.60849         3.486682      0.921281     -0.099472
      0.05956      4.98642      8.69157       -13.109564    -14.535998      9.223358
     -0.05016      4.76403      4.43337         1.245577     -0.869104      4.407835
      1.52901      6.79842      0.08992        -5.785566     39.620173     10.130053
      1.59236      6.75047      4.67863       -16.549692     19.360111     -0.771877
      4.15298      2.27468      8.74337        -2.555535      9.824805      8.063644
      4.13439      2.34422      4.62927        -0.592056      0.715725      0.033957
      2.60778      4.80691      0.08105         5.979919     -3.477005      2.874448
      2.85586      4.91698      4.71645        -4.686991     -9.602083     -1.722637
      0.11900      1.51995      1.00258        -0.086752      2.862433      3.273735
      1.24493      0.75648      3.53883         1.485098      1.572303      0.754508
      0.08385      1.71612      5.54601        -1.036124     -1.008548      2.346704
      1.53577      0.75073      8.33093        -0.114325      5.339850    -13.039594
     -1.38160      3.93848      0.96995         0.909181      1.138386      3.592243
      0.15512      3.13684      3.76393        -2.942003      0.602480     -2.923772
     -1.40620      4.16519      5.60051         0.655151     -1.097252     -0.975730
      0.05410      3.27029      8.33881        -1.223903      0.479195     -6.732091
     -2.89930      6.54908      0.82526        29.531948    -14.340436     34.507298
     -1.37475      5.68217      3.62495        -0.213399     -3.406982     -2.706667
     -2.77603      6.53118      5.55988         3.624952     -3.569619      3.537265
     -1.46493      5.39978      8.24113         8.544770     -1.691629    -14.997813
      2.74031      1.56811      0.85811         1.547595      0.258459      2.838741
      4.21166      0.75873      3.68323        -0.267676      0.748957     -1.024131
      2.84192      1.54098      5.53779        -1.086605      3.484377      1.961745
      4.35413      0.87465      8.21540        -2.983734     -6.646858    -11.951394
      1.38738      4.06878      1.03359        -1.050235     -0.978514      2.508879
      2.79960      3.17639      3.63354         0.027952      0.096267      0.728153
      1.44536      4.04866      5.52047        -0.910975     -0.482852      0.723448
      2.77255      3.18554      8.37685        -2.163565      0.407882     -7.383615
     -0.05524      6.47666      1.00303         4.329701     -3.624701      8.980515
      1.43274      5.56630      3.79958        -0.493111    -10.751925    -10.305121
     -0.05430      6.47186      5.50154         7.277836     -6.717018      7.208862
      1.25431      5.65110      8.34184         7.167767    -24.947788    -26.739533
      5.56908      1.63150      0.88304        -7.882486     -4.163563      9.233006
      6.91008      0.79126      3.84473       -14.337019     10.088677    -14.749192
      5.64046      1.56782      5.60650       -11.023785     -6.408025      9.126804
      6.93080      0.76813      8.38762       -13.634030     10.119610    -17.619374
      4.13941      3.88957      0.86239        -2.624181      0.588036      3.684717
      5.58235      3.22908      3.79131        -5.785011      1.051323     -5.880585
      4.12415      4.08214      5.59588        -2.602195     -3.250241      3.398273
      5.56335      3.28571      8.35825       -13.173065      8.372262    -13.953910
      2.71865      6.52348      0.83724        11.325598    -11.059399     18.848903
      4.18620      5.63323      3.72596        -8.005462     -2.051878    -14.348479
      2.72960      6.43495      5.55056         2.461513     -7.624218     18.806160
      4.26120      5.56937      8.32470       -44.580464      7.881669    -33.830502
 -----------------------------------------------------------------------------------
    total drift:                               -0.012232     -0.026157      0.027479


--------------------------------------------------------------------------------------------------------



  FREE ENERGIE OF THE ION-ELECTRON SYSTEM (eV)
  ---------------------------------------------------
  free  energy   TOTEN  =      -235.1461664421 eV

  energy  without entropy=     -235.1064765282  energy(sigma->0) =     -235.12632149
 


--------------------------------------------------------------------------------------------------------


    POTLOK:  cpu time    0.0666: real time    0.0667


--------------------------------------------------------------------------------------------------------


     LOOP+:  cpu time 1318.5993: real time 1321.9297
    4ORBIT:  cpu time    0.0000: real time    0.0000

volume of typ            1:    23.9 %

volume of typ            2:    12.2 %
 
total charge     
 
# of ion       s       p       d       tot
------------------------------------------
    1        0.630   1.260   8.411  10.300
    2        0.523   0.926   8.191   9.640
    3        0.472   0.781   8.112   9.364
    4        0.417   0.638   8.016   9.072
    5        0.580   0.995   8.334   9.909
    6        0.405   0.630   8.003   9.039
    7        0.443   0.729   8.109   9.281
    8        0.399   0.637   7.955   8.990
    9        0.368   0.574   7.918   8.860
   10        0.325   0.466   7.850   8.642
   11        0.413   0.662   8.116   9.191
   12        0.308   0.414   7.861   8.583
   13        0.572   1.006   8.313   9.891
   14        0.456   0.727   8.117   9.301
   15        0.398   0.625   7.985   9.008
   16        0.298   0.402   7.875   8.575
   17        0.339   0.492   8.019   8.849
   18        0.333   0.499   7.982   8.815
   19        1.306   2.773   0.011   4.090
   20        1.299   2.698   0.006   4.004
   21        1.290   2.763   0.010   4.063
   22        1.279   2.929   0.026   4.234
   23        1.317   2.695   0.008   4.020
   24        1.284   2.771   0.012   4.067
   25        1.294   2.701   0.006   4.001
   26        1.272   2.873   0.016   4.162
   27        1.342   2.956   0.045   4.343
   28        1.284   2.787   0.012   4.083
   29        1.287   2.775   0.010   4.072
   30        1.285   3.038   0.043   4.366
   31        1.308   2.737   0.010   4.055
   32        1.290   2.738   0.008   4.036
   33        1.280   2.796   0.012   4.088
   34        1.279   2.945   0.025   4.249
   35        1.304   2.725   0.010   4.039
   36        1.291   2.696   0.006   3.993
   37        1.286   2.717   0.007   4.010
   38        1.274   2.854   0.017   4.145
   39        1.302   2.820   0.019   4.141
   40        1.283   2.877   0.023   4.183
   41        1.290   2.816   0.018   4.124
   42        1.303   3.128   0.069   4.501
   43        1.301   2.864   0.021   4.185
   44        1.295   2.910   0.029   4.234
   45        1.292   2.844   0.021   4.157
   46        1.298   2.978   0.035   4.311
   47        1.303   2.758   0.011   4.072
   48        1.283   2.821   0.016   4.121
   49        1.282   2.799   0.014   4.095
   50        1.301   2.925   0.033   4.259
   51        1.306   2.947   0.034   4.286
   52        1.289   2.941   0.033   4.263
   53        1.290   2.983   0.038   4.311
   54        1.306   3.165   0.068   4.540
--------------------------------------------------
tot          54.25  115.01  145.95  315.21
 

 total amount of memory used by VASP MPI-rank0   162677. kBytes
=======================================================================

   base      :      30000. kBytes
   nonlr-proj:      30274. kBytes
   fftplans  :       5062. kBytes
   grid      :      16231. kBytes
   one-center:        839. kBytes
   wavefun   :      80271. kBytes
 
  
  
 General timing and accounting informations for this job:
 ========================================================
  
                  Total CPU time used (sec):     1340.460
                            User time (sec):     1337.938
                          System time (sec):        2.522
                         Elapsed time (sec):     1347.083
  
                   Maximum memory used (kb):      217776.
                   Average memory used (kb):           0.
  
                          Minor page faults:        35504
                          Major page faults:           20
                 Voluntary context switches:         1145
