 vasp.5.4.4.18Apr17-6-g9f103f2a35 (build May 12 2020 04:58:55) complex          
  
 MD_VERSION_INFO: Compiled 2020-05-12T11:58:55-UTC in devlin.sd.materialsdesign.
 com:/home/medea2/data/build/wwolf/vasp-gpu5.4.4/13047/x86_64/src/src/build/std 
 from svn 13047
 
 This VASP executable licensed from Materials Design, Inc.
 
 executed on                        Lin64 date 2023.04.27  11:22:31
 running on   16 total cores
 distrk:  each k-point on   16 cores,    1 groups
 distr:  one band on NCORES_PER_BAND=   1 cores,   16 groups


--------------------------------------------------------------------------------------------------------


 INCAR:
 POTCAR:    PAW_PBE Ni 02Aug2007                  
 POTCAR:    PAW_PBE O 08Apr2002                   

 ----------------------------------------------------------------------------- 
|                                                                             |
|           W    W    AA    RRRRR   N    N  II  N    N   GGGG   !!!           |
|           W    W   A  A   R    R  NN   N  II  NN   N  G    G  !!!           |
|           W    W  A    A  R    R  N N  N  II  N N  N  G       !!!           |
|           W WW W  AAAAAA  RRRRR   N  N N  II  N  N N  G  GGG   !            |
|           WW  WW  A    A  R   R   N   NN  II  N   NN  G    G                |
|           W    W  A    A  R    R  N    N  II  N    N   GGGG   !!!           |
|                                                                             |
|      For optimal performance we recommend to set                            |
|        NCORE= 4 - approx SQRT( number of cores)                             |
|      NCORE specifies how many cores store one orbital (NPAR=cpu/NCORE).     |
|      This setting can  greatly improve the performance of VASP for DFT.     |
|      The default,   NCORE=1            might be grossly inefficient         |
|      on modern multi-core architectures or massively parallel machines.     |
|      Do your own testing !!!!                                               |
|      Unfortunately you need to use the default for GW and RPA calculations. |
|      (for HF NCORE is supported but not extensively tested yet)             |
|                                                                             |
 ----------------------------------------------------------------------------- 

 POTCAR:    PAW_PBE Ni 02Aug2007                  
  local pseudopotential read in
  partial core-charges read in
  partial kinetic energy density read in
  atomic valenz-charges read in
  non local Contribution for L=           2  read in
    real space projection operators read in
  non local Contribution for L=           2  read in
    real space projection operators read in
  non local Contribution for L=           0  read in
    real space projection operators read in
  non local Contribution for L=           0  read in
    real space projection operators read in
  non local Contribution for L=           1  read in
    real space projection operators read in
  non local Contribution for L=           1  read in
    real space projection operators read in
    PAW grid and wavefunctions read in
 
   number of l-projection  operators is LMAX  =           6
   number of lm-projection operators is LMMAX =          18
 
 POTCAR:    PAW_PBE O 08Apr2002                   
  local pseudopotential read in
  partial core-charges read in
  partial kinetic energy density read in
  kinetic energy density of atom read in
  atomic valenz-charges read in
  non local Contribution for L=           0  read in
    real space projection operators read in
  non local Contribution for L=           0  read in
    real space projection operators read in
  non local Contribution for L=           1  read in
    real space projection operators read in
  non local Contribution for L=           1  read in
    real space projection operators read in
    PAW grid and wavefunctions read in
 
   number of l-projection  operators is LMAX  =           4
   number of lm-projection operators is LMMAX =           8
 
 Optimization of the real space projectors (new method)

 maximal supplied QI-value         = 16.25
 optimisation between [QCUT,QGAM] = [ 11.38, 22.75] = [ 36.24,144.96] Ry 
 Optimized for a Real-space Cutoff    1.47 Angstroem

   l    n(q)    QCUT    max X(q) W(low)/X(q) W(high)/X(q)  e(spline) 
   2      9    11.376    60.317    0.17E-03    0.16E-04    0.16E-06
   2      9    11.376    55.921    0.17E-03    0.16E-04    0.17E-06
   0     10    11.376    51.690    0.45E-04    0.60E-04    0.21E-06
   0     10    11.376    30.015    0.37E-04    0.55E-04    0.19E-06
   1     10    11.376    18.849    0.83E-04    0.11E-03    0.92E-07
   1     10    11.376    14.624    0.69E-04    0.92E-04    0.82E-07
 Optimization of the real space projectors (new method)

 maximal supplied QI-value         = 24.76
 optimisation between [QCUT,QGAM] = [ 11.39, 22.77] = [ 36.31,145.25] Ry 
 Optimized for a Real-space Cutoff    1.10 Angstroem

   l    n(q)    QCUT    max X(q) W(low)/X(q) W(high)/X(q)  e(spline) 
   0      7    11.387    20.381    0.22E-03    0.48E-03    0.18E-06
   0      7    11.387    15.268    0.22E-03    0.52E-03    0.19E-06
   1      7    11.387     5.964    0.22E-03    0.73E-03    0.24E-06
   1      7    11.387     5.382    0.19E-03    0.60E-03    0.21E-06

 ----------------------------------------------------------------------------- 
|                                                                             |
|  ADVICE TO THIS USER RUNNING 'VASP/VAMP'   (HEAR YOUR MASTER'S VOICE ...):  |
|                                                                             |
|      You enforced a specific xc-type in the INCAR file,                     |
|      a different type was found on the POTCAR file                          |
|          I HOPE YOU KNOW, WHAT YOU ARE  DOING                               |
|                                                                             |
 ----------------------------------------------------------------------------- 

  PAW_PBE Ni 02Aug2007                  :
 energy of atom  1       EATOM=-1077.6739
 kinetic energy error for atom=    0.0030 (will be added to EATOM!!)
  PAW_PBE O 08Apr2002                   :
 energy of atom  2       EATOM= -432.3788
 kinetic energy error for atom=    0.0224 (will be added to EATOM!!)
 
 
 POSCAR: NiO2_C2_m_scale_0_950_disp_0_04_round_2 
  positions in direct lattice
  No initial velocities read in
 exchange correlation table for  LEXCH =       14
   RHO(1)=    0.500       N(1)  =     2000
   RHO(2)=  100.500       N(2)  =     4000
 


--------------------------------------------------------------------------------------------------------


 ion  position               nearest neighbor table
   1  0.007  0.997  0.000-  54 1.36  46 1.49  27 1.55  51 1.63  22 1.69  19 1.84   5 2.34  17 2.40
                            13 2.49   9 2.72   7 2.73   3 2.78
   2  1.000  0.995  0.526-  52 1.47  29 1.55  44 1.59  53 1.65  21 1.82  20 1.85   6 2.29  18 2.34
                            14 2.40   8 2.78   4 2.79  10 2.80
   3  0.995  0.341  0.005-  50 1.45  43 1.52  46 1.67  26 1.72  19 1.78  23 1.86  15 2.35  13 2.50
                             1 2.78   9 2.79   5 2.83  11 2.87
   4  0.001  0.347  0.526-  45 1.56  48 1.60  24 1.85  21 1.86  44 1.91  25 1.97  16 2.47  14 2.56
                            10 2.67  12 2.74   2 2.79   6 2.87
   5  0.002  0.700  0.999-  54 1.31  47 1.61  30 1.73  50 1.73  23 1.82  27 1.83   1 2.34  17 2.38
                             7 2.56  15 2.62  11 2.74   3 2.83
   6  0.994  0.705  0.527-  52 1.49  49 1.58  29 1.81  25 1.92  28 1.95  48 1.99   2 2.29  18 2.30
                             8 2.62  16 2.62  12 2.87   4 2.87
   7  0.348  0.991  0.008-  30 1.25  39 1.47  34 1.68  22 1.69  27 1.91  31 1.91  11 2.26   5 2.56
                            13 2.73   1 2.73   9 2.80  15 2.82
   8  0.351  0.998  0.536-  41 1.53  28 1.62  33 1.86  20 1.87  29 1.88  32 1.89  12 2.44   6 2.62
                            14 2.77  16 2.78   2 2.78  10 2.89
   9  0.346  0.342  0.998-  22 1.64  26 1.71  38 1.73  19 1.82  31 1.85  35 1.88   1 2.72   3 2.79
                             7 2.80  15 2.81  17 2.83  11 2.89
  10  0.342  0.357  0.524-  37 1.82  24 1.83  21 1.87  20 1.87  36 1.91  33 2.01  12 2.62   4 2.67
                             2 2.80  18 2.81  16 2.81   8 2.89
  11  0.350  0.708  0.992-  30 1.59  42 1.66  26 1.68  39 1.87  23 1.94  35 1.98   7 2.26  13 2.61
                             5 2.74  17 2.83   3 2.87   9 2.89
  12  0.348  0.690  0.523-  24 1.73  40 1.81  25 1.86  37 1.88  28 1.90  41 1.93   8 2.44  10 2.62
                            14 2.68   4 2.74  18 2.78   6 2.87
  13  0.700  0.008  0.008-  42 1.41  51 1.61  34 1.63  46 1.67  43 1.81  39 1.89  17 2.47   1 2.49
                             3 2.50  11 2.61  15 2.68   7 2.73
  14  0.703  0.005  0.525-  53 1.57  40 1.58  45 1.82  32 1.83  44 1.86  41 1.94   2 2.40  18 2.41
                             4 2.56  12 2.68   8 2.77  16 2.80
  15  0.702  0.346  0.992-  50 1.64  34 1.66  38 1.70  31 1.87  43 1.90  47 1.92   3 2.35   5 2.62
                            13 2.68  17 2.81   9 2.81   7 2.82
  16  0.694  0.353  0.537-  33 1.68  49 1.78  45 1.84  36 1.89  32 1.95  48 1.99   4 2.47   6 2.62
                            18 2.74   8 2.78  14 2.80  10 2.81
  17  0.702  0.699  0.009-  38 1.63  42 1.70  54 1.71  47 1.73  51 1.78  35 1.85   5 2.38   1 2.40
                            13 2.47  15 2.81   9 2.83  11 2.83
  18  0.703  0.702  0.527-  37 1.82  49 1.82  36 1.82  40 1.84  52 1.86  53 1.90   6 2.30   2 2.34
                            14 2.41  16 2.74  12 2.78  10 2.81
  19  0.115  0.232  0.100-   3 1.78   9 1.82   1 1.84  46 1.92
  20  0.236  0.116  0.425-   2 1.85   8 1.87  10 1.87
  21  0.110  0.223  0.632-   2 1.82   4 1.86  10 1.87
  22  0.241  0.115  0.942-   9 1.64   7 1.69   1 1.69
  23  0.108  0.579  0.105-   5 1.82   3 1.86  50 1.91  11 1.94
  24  0.232  0.477  0.419-  12 1.73  10 1.83   4 1.85
  25  0.122  0.593  0.640-  12 1.86   6 1.92   4 1.97
  26  0.234  0.470  0.950-  11 1.68   9 1.71   3 1.72
  27  0.111  0.925  0.109-   1 1.55   5 1.83  54 1.86   7 1.91
  28  0.240  0.821  0.416-   8 1.62  12 1.90   6 1.95
  29  0.114  0.932  0.631-   2 1.55   6 1.81   8 1.88
  30  0.245  0.828  0.949-   7 1.25  11 1.59   5 1.73
  31  0.473  0.238  0.106-   9 1.85  15 1.87   7 1.91
  32  0.582  0.113  0.420-  14 1.83   8 1.89  16 1.95
  33  0.482  0.239  0.631-  16 1.68   8 1.86  10 2.01
  34  0.580  0.112  0.948-  13 1.63  15 1.66   7 1.68  39 1.86
  35  0.466  0.576  0.109-  17 1.85   9 1.88  11 1.98
  36  0.586  0.476  0.421-  18 1.82  16 1.89  10 1.91
  37  0.475  0.582  0.631-  18 1.82  10 1.82  12 1.88
  38  0.589  0.474  0.949-  17 1.63  15 1.70   9 1.73
  39  0.462  0.937  0.106-   7 1.47  34 1.86  11 1.87  13 1.89
  40  0.581  0.815  0.428-  14 1.58  12 1.81  18 1.84
  41  0.463  0.931  0.636-   8 1.53  12 1.93  14 1.94
  42  0.585  0.818  0.950-  13 1.41  11 1.66  17 1.70
  43  0.822  0.236  0.111-   3 1.52  13 1.81  15 1.90
  44  0.935  0.113  0.418-   2 1.59  14 1.86   4 1.91
  45  0.817  0.235  0.628-   4 1.56  14 1.82  16 1.84
  46  0.927  0.117  0.940-   1 1.49  13 1.67   3 1.67  19 1.92
  47  0.810  0.587  0.103-   5 1.61  17 1.73  15 1.92
  48  0.937  0.465  0.415-   4 1.60  16 1.99   6 1.99
  49  0.811  0.582  0.631-   6 1.58  16 1.78  18 1.82
  50  0.931  0.466  0.939-   3 1.45  15 1.64   5 1.73  23 1.91
  51  0.814  0.925  0.105-  13 1.61   1 1.63  17 1.78
  52  0.942  0.825  0.428-   2 1.47   6 1.49  18 1.86
  53  0.813  0.940  0.638-  14 1.57   2 1.65  18 1.90
  54  0.938  0.813  0.948-   5 1.31   1 1.36  17 1.71  27 1.86
 
  LATTYP: Found a hexagonal cell.
 ALAT       =     7.9447265042
 C/A-ratio  =     1.1065328045
  
  Lattice vectors:
  
 A1 = (   7.9447265000,   0.0000000000,   0.0000000000)
 A2 = (  -3.9723632500,   6.8803349800,   0.0000000000)
 A3 = (   0.0000000000,   0.0000000000,   8.7911005000)


Analysis of symmetry for initial positions (statically):
=====================================================================
 Subroutine PRICEL returns:
 Original cell was already a primitive cell.
 

 Routine SETGRP: Setting up the symmetry group for a 
 hexagonal supercell.


 Subroutine GETGRP returns: Found  1 space group operations
 (whereof  1 operations were pure point group operations)
 out of a pool of 24 trial point group operations.


The static configuration has the point symmetry C_1 .


Analysis of symmetry for dynamics (positions and initial velocities):
=====================================================================
 Subroutine PRICEL returns:
 Original cell was already a primitive cell.
 

 Routine SETGRP: Setting up the symmetry group for a 
 hexagonal supercell.


 Subroutine GETGRP returns: Found  1 space group operations
 (whereof  1 operations were pure point group operations)
 out of a pool of 24 trial point group operations.


The dynamic configuration has the point symmetry C_1 .


 Subroutine INISYM returns: Found  1 space group operations
 (whereof  1 operations are pure point group operations),
 and found     1 'primitive' translations

 
 
 KPOINTS: Automatic mesh                          

Automatic generation of k-mesh.
Space group operators:
 irot       det(A)        alpha          n_x          n_y          n_z        tau_x        tau_y        tau_z
    1     1.000000     0.000000     1.000000     0.000000     0.000000     0.000000     0.000000     0.000000
 
 Subroutine IBZKPT returns following result:
 ===========================================
 
 Found     26 irreducible k-points:
 
 Following reciprocal coordinates:
            Coordinates               Weight
  0.000000  0.000000  0.000000      1.000000
  0.250000  0.000000  0.000000      2.000000
  0.500000  0.000000  0.000000      1.000000
  0.000000  0.250000  0.000000      2.000000
  0.250000  0.250000  0.000000      2.000000
  0.500000  0.250000  0.000000      2.000000
 -0.250000  0.250000  0.000000      2.000000
  0.000000  0.500000  0.000000      1.000000
  0.250000  0.500000  0.000000      2.000000
  0.500000  0.500000  0.000000      1.000000
  0.000000  0.000000  0.333333      2.000000
  0.250000  0.000000  0.333333      2.000000
  0.500000  0.000000  0.333333      2.000000
 -0.250000  0.000000  0.333333      2.000000
  0.000000  0.250000  0.333333      2.000000
  0.250000  0.250000  0.333333      2.000000
  0.500000  0.250000  0.333333      2.000000
 -0.250000  0.250000  0.333333      2.000000
  0.000000  0.500000  0.333333      2.000000
  0.250000  0.500000  0.333333      2.000000
  0.500000  0.500000  0.333333      2.000000
 -0.250000  0.500000  0.333333      2.000000
  0.000000 -0.250000  0.333333      2.000000
  0.250000 -0.250000  0.333333      2.000000
  0.500000 -0.250000  0.333333      2.000000
 -0.250000 -0.250000  0.333333      2.000000
 
 Following cartesian coordinates:
            Coordinates               Weight
  0.000000  0.000000  0.000000      1.000000
  0.031467  0.018168  0.000000      2.000000
  0.062935  0.036335  0.000000      1.000000
  0.000000  0.036335  0.000000      2.000000
  0.031467  0.054503  0.000000      2.000000
  0.062935  0.072671  0.000000      2.000000
 -0.031467  0.018168  0.000000      2.000000
  0.000000  0.072671  0.000000      1.000000
  0.031467  0.090839  0.000000      2.000000
  0.062935  0.109006  0.000000      1.000000
  0.000000  0.000000  0.037917      2.000000
  0.031467  0.018168  0.037917      2.000000
  0.062935  0.036335  0.037917      2.000000
 -0.031467 -0.018168  0.037917      2.000000
  0.000000  0.036335  0.037917      2.000000
  0.031467  0.054503  0.037917      2.000000
  0.062935  0.072671  0.037917      2.000000
 -0.031467  0.018168  0.037917      2.000000
  0.000000  0.072671  0.037917      2.000000
  0.031467  0.090839  0.037917      2.000000
  0.062935  0.109006  0.037917      2.000000
 -0.031467  0.054503  0.037917      2.000000
  0.000000 -0.036335  0.037917      2.000000
  0.031467 -0.018168  0.037917      2.000000
  0.062935  0.000000  0.037917      2.000000
 -0.031467 -0.054503  0.037917      2.000000
 


--------------------------------------------------------------------------------------------------------




 Dimension of arrays:
   k-points           NKPTS =     26   k-points in BZ     NKDIM =     26   number of bands    NBANDS=    240
   number of dos      NEDOS =    301   number of ions     NIONS =     54
   non local maximal  LDIM  =      6   non local SUM 2l+1 LMDIM =     18
   total plane-waves  NPLWV = 230400
   max r-space proj   IRMAX =   6487   max aug-charges    IRDMAX=  15739
   dimension x,y,z NGX =    60 NGY =   60 NGZ =   64
   dimension x,y,z NGXF=   120 NGYF=  120 NGZF=  128
   support grid    NGXF=   120 NGYF=  120 NGZF=  128
   ions per type =              18  36
   NGX,Y,Z   is equivalent  to a cutoff of  12.56, 12.56, 12.10 a.u.
   NGXF,Y,Z  is equivalent  to a cutoff of  25.11, 25.11, 24.21 a.u.

 SYSTEM =  unknown system                          
 POSCAR =  NiO2_C2_m_scale_0_950_disp_0_04_round_2 

 Startparameter for this run:
   NWRITE =      1    write-flag & timer
   PREC   = accura    normal or accurate (medium, high low for compatibility)
   ISTART =      0    job   : 0-new  1-cont  2-samecut
   ICHARG =      2    charge: 1-file 2-atom 10-const
   ISPIN  =      1    spin polarized calculation?
   LNONCOLLINEAR =      F non collinear calculations
   LSORBIT =      F    spin-orbit coupling
   INIWAV =      1    electr: 0-lowe 1-rand  2-diag
   LASPH  =      F    aspherical Exc in radial PAW
   METAGGA=      F    non-selfconsistent MetaGGA calc.

 Electronic Relaxation 1
   ENCUT  =  500.0 eV  36.75 Ry    6.06 a.u.  14.49 14.49 16.03*2*pi/ulx,y,z
   ENINI  =  500.0     initial cutoff
   ENAUG  =  605.4 eV  augmentation charge cutoff
   NELM   =    120;   NELMIN=  2; NELMDL= -5     # of ELM steps 
   EDIFF  = 0.1E-04   stopping-criterion for ELM
   LREAL  =      T    real-space projection
   NLSPLINE    = F    spline interpolate recip. space projectors
   LCOMPAT=      F    compatible to vasp.4.4
   GGA_COMPAT  = T    GGA compatible to vasp.4.4-vasp.4.6
   LMAXPAW     = -100 max onsite density
   LMAXMIX     =    2 max onsite mixed and CHGCAR
   VOSKOWN=      1    Vosko Wilk Nusair interpolation
   ROPT   =   -0.00025  -0.00025
 Ionic relaxation
   EDIFFG = 0.1E-03   stopping-criterion for IOM
   NSW    =      0    number of steps for IOM
   NBLOCK =      1;   KBLOCK =      1    inner block; outer block 
   IBRION =     -1    ionic relax: 0-MD 1-quasi-New 2-CG
   NFREE  =      0    steps in history (QN), initial steepest desc. (CG)
   ISIF   =      2    stress and relaxation
   IWAVPR =     10    prediction:  0-non 1-charg 2-wave 3-comb
   ISYM   =      2    0-nonsym 1-usesym 2-fastsym
   LCORR  =      T    Harris-Foulkes like correction to forces

   POTIM  = 0.5000    time-step for ionic-motion
   TEIN   =    0.0    initial temperature
   TEBEG  =    0.0;   TEEND  =   0.0 temperature during run
   SMASS  =  -3.00    Nose mass-parameter (am)
   estimated Nose-frequenzy (Omega)   =  0.10E-29 period in steps =****** mass=  -0.144E-26a.u.
   SCALEE = 1.0000    scale energy and forces
   NPACO  =    256;   APACO  = 16.0  distance and # of slots for P.C.
   PSTRESS=    0.0 pullay stress

  Mass of Ions in am
   POMASS =  58.69 16.00
  Ionic Valenz
   ZVAL   =  10.00  6.00
  Atomic Wigner-Seitz radii
   RWIGS  =   1.15  0.73
  virtual crystal weights 
   VCA    =   1.00  1.00
   NELECT =     396.0000    total number of electrons
   NUPDOWN=      -1.0000    fix difference up-down

 DOS related values:
   EMIN   =  10.00;   EMAX   =-10.00  energy-range for DOS
   EFERMI =   0.00
   ISMEAR =     0;   SIGMA  =   0.05  broadening in eV -4-tet -1-fermi 0-gaus

 Electronic relaxation 2 (details)
   IALGO  =     38    algorithm
   LDIAG  =      T    sub-space diagonalisation (order eigenvalues)
   LSUBROT=      F    optimize rotation matrix (better conditioning)
   TURBO    =      0    0=normal 1=particle mesh
   IRESTART =      0    0=no restart 2=restart with 2 vectors
   NREBOOT  =      0    no. of reboots
   NMIN     =      0    reboot dimension
   EREF     =   0.00    reference energy to select bands
   IMIX   =      4    mixing-type and parameters
     AMIX     =   0.40;   BMIX     =  1.00
     AMIX_MAG =   1.60;   BMIX_MAG =  1.00
     AMIN     =   0.10
     WC   =   100.;   INIMIX=   1;  MIXPRE=   1;  MAXMIX= -45

 Intra band minimization:
   WEIMIN = 0.0000     energy-eigenvalue tresh-hold
   EBREAK =  0.10E-07  absolut break condition
   DEPER  =   0.30     relativ break condition  

   TIME   =   0.40     timestep for ELM

  volume/ion in A,a.u.               =       8.90        60.05
  Fermi-wavevector in a.u.,A,eV,Ry     =   1.534838  2.900424 32.051634  2.355729
  Thomas-Fermi vector in A             =   2.641710
 
 Write flags
   LWAVE        =      F    write WAVECAR
   LDOWNSAMPLE  =      F    k-point downsampling of WAVECAR
   LCHARG       =      T    write CHGCAR
   LVTOT        =      F    write LOCPOT, total local potential
   LVHAR        =      F    write LOCPOT, Hartree potential only
   LELF         =      F    write electronic localiz. function (ELF)
   LORBIT       =      0    0 simple, 1 ext, 2 COOP (PROOUT), +10 PAW based schemes


 Dipole corrections
   LMONO  =      F    monopole corrections only (constant potential shift)
   LDIPOL =      F    correct potential (dipole corrections)
   IDIPOL =      0    1-x, 2-y, 3-z, 4-all directions 
   EPSILON=  1.0000000 bulk dielectric constant

 Exchange correlation treatment:
   GGA     =    PS    GGA type
   LEXCH   =    14    internal setting for exchange type
   VOSKOWN=      1    Vosko Wilk Nusair interpolation
   LHFCALC =     F    Hartree Fock is set to
   LHFONE  =     F    Hartree Fock one center treatment
   AEXX    =    0.0000 exact exchange contribution

 Linear response parameters
   LEPSILON=     F    determine dielectric tensor
   LRPA    =     F    only Hartree local field effects (RPA)
   LNABLA  =     F    use nabla operator in PAW spheres
   LVEL    =     F    velocity operator in full k-point grid
   LINTERFAST=   F  fast interpolation
   KINTER  =     0    interpolate to denser k-point grid
   CSHIFT  =0.1000    complex shift for real part using Kramers Kronig
   OMEGAMAX=  -1.0    maximum frequency
   DEG_THRESHOLD= 0.2000000E-02 threshold for treating states as degnerate
   RTIME   =   -0.100 relaxation time in fs
  (WPLASMAI=    0.000 imaginary part of plasma frequency in eV, 0.658/RTIME)
   DFIELD  = 0.0000000 0.0000000 0.0000000 field for delta impulse in time
 
 Orbital magnetization related:
   ORBITALMAG=     F  switch on orbital magnetization
   LCHIMAG   =     F  perturbation theory with respect to B field
   DQ        =  0.001000  dq finite difference perturbation B field
   LLRAUG    =     F  two centre corrections for induced B field



--------------------------------------------------------------------------------------------------------


 Static calculation
 charge density and potential will be updated during run
 non-spin polarized calculation
 Variant of blocked Davidson
 Davidson routine will perform the subspace rotation
 perform sub-space diagonalisation
    after iterative eigenvector-optimisation
 modified Broyden-mixing scheme, WC =      100.0
 initial mixing is a Kerker type mixing with AMIX =  0.4000 and BMIX =      1.0000
 Hartree-type preconditioning will be used
 using additional bands           42
 real space projection scheme for non local part
 use partial core corrections
 calculate Harris-corrections to forces 
   (improved forces if not selfconsistent)
 use gradient corrections 
 use of overlap-Matrix (Vanderbilt PP)
 Gauss-broadening in eV      SIGMA  =   0.05


--------------------------------------------------------------------------------------------------------


  energy-cutoff  :      500.00
  volume of cell :      480.54
      direct lattice vectors                 reciprocal lattice vectors
     7.944726500  0.000000000  0.000000000     0.125869657  0.072670880  0.000000000
    -3.972363250  6.880334980  0.000000000     0.000000000  0.145341761  0.000000000
     0.000000000  0.000000000  8.791100500     0.000000000  0.000000000  0.113751401

  length of vectors
     7.944726500  7.944726504  8.791100500     0.145341761  0.145341761  0.113751401


 
 k-points in units of 2pi/SCALE and weight: Automatic mesh                          
   0.00000000  0.00000000  0.00000000       0.021
   0.03146741  0.01816772  0.00000000       0.042
   0.06293483  0.03633544  0.00000000       0.021
   0.00000000  0.03633544  0.00000000       0.042
   0.03146741  0.05450316  0.00000000       0.042
   0.06293483  0.07267088  0.00000000       0.042
  -0.03146741  0.01816772  0.00000000       0.042
   0.00000000  0.07267088  0.00000000       0.021
   0.03146741  0.09083860  0.00000000       0.042
   0.06293483  0.10900632  0.00000000       0.021
   0.00000000  0.00000000  0.03791713       0.042
   0.03146741  0.01816772  0.03791713       0.042
   0.06293483  0.03633544  0.03791713       0.042
  -0.03146741 -0.01816772  0.03791713       0.042
   0.00000000  0.03633544  0.03791713       0.042
   0.03146741  0.05450316  0.03791713       0.042
   0.06293483  0.07267088  0.03791713       0.042
  -0.03146741  0.01816772  0.03791713       0.042
   0.00000000  0.07267088  0.03791713       0.042
   0.03146741  0.09083860  0.03791713       0.042
   0.06293483  0.10900632  0.03791713       0.042
  -0.03146741  0.05450316  0.03791713       0.042
   0.00000000 -0.03633544  0.03791713       0.042
   0.03146741 -0.01816772  0.03791713       0.042
   0.06293483  0.00000000  0.03791713       0.042
  -0.03146741 -0.05450316  0.03791713       0.042
 
 k-points in reciprocal lattice and weights: Automatic mesh                          
   0.00000000  0.00000000  0.00000000       0.021
   0.25000000  0.00000000  0.00000000       0.042
   0.50000000  0.00000000  0.00000000       0.021
   0.00000000  0.25000000  0.00000000       0.042
   0.25000000  0.25000000  0.00000000       0.042
   0.50000000  0.25000000  0.00000000       0.042
  -0.25000000  0.25000000  0.00000000       0.042
   0.00000000  0.50000000  0.00000000       0.021
   0.25000000  0.50000000  0.00000000       0.042
   0.50000000  0.50000000  0.00000000       0.021
   0.00000000  0.00000000  0.33333333       0.042
   0.25000000  0.00000000  0.33333333       0.042
   0.50000000  0.00000000  0.33333333       0.042
  -0.25000000  0.00000000  0.33333333       0.042
   0.00000000  0.25000000  0.33333333       0.042
   0.25000000  0.25000000  0.33333333       0.042
   0.50000000  0.25000000  0.33333333       0.042
  -0.25000000  0.25000000  0.33333333       0.042
   0.00000000  0.50000000  0.33333333       0.042
   0.25000000  0.50000000  0.33333333       0.042
   0.50000000  0.50000000  0.33333333       0.042
  -0.25000000  0.50000000  0.33333333       0.042
   0.00000000 -0.25000000  0.33333333       0.042
   0.25000000 -0.25000000  0.33333333       0.042
   0.50000000 -0.25000000  0.33333333       0.042
  -0.25000000 -0.25000000  0.33333333       0.042
 
 position of ions in fractional coordinates (direct lattice) 
   0.00715703  0.99729119  0.00014933
   0.99975849  0.99541346  0.52632519
   0.99489482  0.34067230  0.00463040
   0.00120536  0.34723765  0.52553524
   0.00178435  0.70023845  0.99889548
   0.99429531  0.70498204  0.52687945
   0.34781818  0.99112529  0.00751078
   0.35052538  0.99774930  0.53554818
   0.34642829  0.34243992  0.99815619
   0.34240293  0.35697453  0.52442081
   0.35025258  0.70799288  0.99248751
   0.34756854  0.68975607  0.52330293
   0.69994463  0.00849944  0.00803613
   0.70254324  0.00488775  0.52549684
   0.70242959  0.34649694  0.99222696
   0.69379335  0.35310103  0.53654247
   0.70158939  0.69870802  0.00869979
   0.70324751  0.70234760  0.52746503
   0.11539181  0.23211660  0.09981820
   0.23616586  0.11640690  0.42539703
   0.10955947  0.22283278  0.63220992
   0.24135805  0.11472880  0.94223531
   0.10789619  0.57869555  0.10498147
   0.23232822  0.47653836  0.41868241
   0.12168564  0.59316145  0.63950334
   0.23380972  0.46976157  0.94962862
   0.11081852  0.92533690  0.10932632
   0.23962646  0.82113138  0.41576624
   0.11425367  0.93223914  0.63129945
   0.24489157  0.82760826  0.94933010
   0.47256124  0.23784949  0.10629167
   0.58246088  0.11304154  0.41971422
   0.48173608  0.23896810  0.63110651
   0.57991102  0.11193203  0.94798762
   0.46560801  0.57641017  0.10856022
   0.58608007  0.47612607  0.42068207
   0.47514828  0.58213660  0.63135282
   0.58937894  0.47397051  0.94885901
   0.46215271  0.93673701  0.10644858
   0.58075580  0.81494792  0.42792000
   0.46340711  0.93075577  0.63556206
   0.58523728  0.81827503  0.94983918
   0.82222874  0.23602144  0.11073453
   0.93530844  0.11337131  0.41832002
   0.81670243  0.23513504  0.62775827
   0.92670406  0.11747040  0.94020297
   0.80997321  0.58697042  0.10311204
   0.93662847  0.46474537  0.41486343
   0.81095814  0.58180638  0.63141925
   0.93071060  0.46619731  0.93929486
   0.81357490  0.92524600  0.10546531
   0.94235850  0.82506396  0.42776895
   0.81308570  0.94008466  0.63815181
   0.93790919  0.81331301  0.94815791
 
 position of ions in cartesian coordinates  (Angst):
  -3.90474223  6.86169746  0.00131278
   3.98866392  6.84877805  4.62697764
   6.55089312  2.34393954  0.04070631
  -1.36977782  2.38911135  4.62003311
  -2.76742531  4.81787510  8.78139055
   5.09895955  4.85051259  4.63185020
  -1.17378937  6.81927400  0.06602802
  -1.17859438  6.86484941  4.70805787
   1.39198226  2.35610136  8.77489138
   1.30226513  2.45610435  4.61023605
  -0.02974394  4.87122818  8.72505745
   0.02137533  4.74575282  4.60040865
   5.52710579  0.05847899  0.07064643
   5.56209798  0.03362936  4.61969553
   4.20419927  2.38401502  8.72276692
   4.10935286  2.42945337  4.71679878
   2.79841376  4.80734523  0.07648073
   2.79712933  4.83238676  4.63699809
  -0.00529508  1.59703996  0.87751183
   1.41386267  0.80091847  3.73970804
  -0.01475272  1.53316417  5.55782094
   1.46177923  0.78937258  8.28328530
  -1.44158322  3.98161924  0.92290265
  -0.04719930  3.27874355  3.68067914
  -1.38949362  4.08114947  5.62193813
  -0.00850932  3.23211696  8.34828064
  -2.79535146  6.36662784  0.96109867
  -1.35806543  5.64965896  3.65504280
  -2.79547834  6.41411756  5.54981691
  -1.34196409  5.69422206  8.34565632
   2.80954523  1.63648417  0.93442075
   4.17845033  0.77776366  3.68974989
   2.87799330  1.64418058  5.54812076
   4.16259977  0.77012986  8.33385444
   1.40941772  3.96589506  0.95436380
   2.76490016  3.27590685  3.69825836
   1.46246510  4.00529481  5.55028609
   2.79967145  3.26107588  8.34151492
  -0.04938279  6.44506442  0.93580016
   1.37667683  5.60711468  3.76188773
  -0.01565727  6.40391148  5.58728994
   1.39906447  5.63000631  8.35013169
   5.59481957  1.62390657  0.97347838
   6.98041772  0.78003259  3.67749334
   5.55443565  1.61780784  5.51868604
   6.89577520  0.80823570  8.26541880
   4.10335590  4.03855311  0.90646831
   5.59511960  3.19760383  3.64710611
   4.13169434  4.00302279  5.55087008
   5.54233611  3.20759366  8.25743551
   2.78821686  6.36600242  0.92715614
   4.20932679  5.67671642  3.76055983
   2.72538575  6.46809737  5.61005670
   4.22065728  5.59586595  8.33535148
 


--------------------------------------------------------------------------------------------------------


 k-point  1 :   0.0000 0.0000 0.0000  plane waves:   12231
 k-point  2 :   0.2500 0.0000 0.0000  plane waves:   12197
 k-point  3 :   0.5000 0.0000 0.0000  plane waves:   12164
 k-point  4 :   0.0000 0.2500 0.0000  plane waves:   12197
 k-point  5 :   0.2500 0.2500 0.0000  plane waves:   12168
 k-point  6 :   0.5000 0.2500 0.0000  plane waves:   12168
 k-point  7 :  -0.2500 0.2500 0.0000  plane waves:   12197
 k-point  8 :   0.0000 0.5000 0.0000  plane waves:   12164
 k-point  9 :   0.2500 0.5000 0.0000  plane waves:   12168
 k-point 10 :   0.5000 0.5000 0.0000  plane waves:   12164
 k-point 11 :   0.0000 0.0000 0.3333  plane waves:   12236
 k-point 12 :   0.2500 0.0000 0.3333  plane waves:   12196
 k-point 13 :   0.5000 0.0000 0.3333  plane waves:   12186
 k-point 14 :  -0.2500 0.0000 0.3333  plane waves:   12196
 k-point 15 :   0.0000 0.2500 0.3333  plane waves:   12196
 k-point 16 :   0.2500 0.2500 0.3333  plane waves:   12217
 k-point 17 :   0.5000 0.2500 0.3333  plane waves:   12217
 k-point 18 :  -0.2500 0.2500 0.3333  plane waves:   12196
 k-point 19 :   0.0000 0.5000 0.3333  plane waves:   12186
 k-point 20 :   0.2500 0.5000 0.3333  plane waves:   12217
 k-point 21 :   0.5000 0.5000 0.3333  plane waves:   12186
 k-point 22 :  -0.2500 0.5000 0.3333  plane waves:   12217
 k-point 23 :   0.0000-0.2500 0.3333  plane waves:   12196
 k-point 24 :   0.2500-0.2500 0.3333  plane waves:   12196
 k-point 25 :   0.5000-0.2500 0.3333  plane waves:   12217
 k-point 26 :  -0.2500-0.2500 0.3333  plane waves:   12217

 maximum and minimum number of plane-waves per node :     12236    12164

 maximum number of plane-waves:     12236
 maximum index in each direction: 
   IXMAX=   14   IYMAX=   14   IZMAX=   16
   IXMIN=  -14   IYMIN=  -14   IZMIN=  -16

 The following grids will avoid any aliasing or wrap around errors in the Hartre
 e energy
  - symmetry arguments have not been applied
  - exchange correlation energies might require even more grid points
  - we recommend to set PREC=Normal or Accurate and rely on VASP defaults
 NGX is ok and might be reduce to    60
 NGY is ok and might be reduce to    60
 WARNING: aliasing errors must be expected set NGZ to    70 to avoid them

 serial   3D FFT for wavefunctions
 parallel 3D FFT for charge:
    minimum data exchange during FFTs selected (reduces bandwidth)


 total amount of memory used by VASP MPI-rank0   162694. kBytes
=======================================================================

   base      :      30000. kBytes
   nonlr-proj:      30291. kBytes
   fftplans  :       5062. kBytes
   grid      :      16231. kBytes
   one-center:        839. kBytes
   wavefun   :      80271. kBytes
 
     INWAV:  cpu time    0.0000: real time    0.0000
 Broyden mixing: mesh for mixing (old mesh)
   NGX = 29   NGY = 29   NGZ = 33
  (NGX  =120   NGY  =120   NGZ  =128)
  gives a total of  27753 points

 initial charge density was supplied:
 charge density of overlapping atoms calculated
 number of electron     396.0000000 magnetization 
 keeping initial charge density in first step


--------------------------------------------------------------------------------------------------------


 Maximum index for non-local projection operator         6273
 Maximum index for augmentation-charges         1294 (set IRDMAX)


--------------------------------------------------------------------------------------------------------


 First call to EWALD:  gamma=   0.226
 Maximum number of real-space cells 3x 3x 3
 Maximum number of reciprocal cells 3x 3x 3

    FEWALD:  cpu time    0.0026: real time    0.0027


--------------------------------------- Iteration      1(   1)  ---------------------------------------


    POTLOK:  cpu time    0.0754: real time    0.0779
    SETDIJ:  cpu time    0.0093: real time    0.0093
     EDDAV:  cpu time   31.3260: real time   31.4002
    --------------------------------------------
      LOOP:  cpu time   31.4123: real time   31.4892

 eigenvalue-minimisations  : 12480
 total energy-change (2. order) : 0.5738906E+04  (-0.1779180E+05)
 number of electron     396.0000000 magnetization 
 augmentation part      396.0000000 magnetization 

 Free energy of the ion-electron system (eV)
  ---------------------------------------------------
  alpha Z        PSCENC =      1443.53424874
  Ewald energy   TEWEN  =    -21818.96736155
  -Hartree energ DENC   =    -14488.22913725
  -exchange      EXHF   =         0.00000000
  -V(xc)+E(xc)   XCENC  =      1620.17577058
  PAW double counting   =     29784.60368500   -31040.73694357
  entropy T*S    EENTRO =        -0.00433896
  eigenvalues    EBANDS =      5348.14896857
  atomic energy  EATOM  =     34890.38139807
  Solvation  Ediel_sol  =         0.00000000
  ---------------------------------------------------
  free energy    TOTEN  =      5738.90628962 eV

  energy without entropy =     5738.91062858  energy(sigma->0) =     5738.90845910


--------------------------------------------------------------------------------------------------------




--------------------------------------- Iteration      1(   2)  ---------------------------------------


     EDDAV:  cpu time   31.3524: real time   31.4267
    --------------------------------------------
      LOOP:  cpu time   31.3522: real time   31.4265

 eigenvalue-minimisations  : 12816
 total energy-change (2. order) :-0.4849312E+04  (-0.4503425E+04)
 number of electron     396.0000000 magnetization 
 augmentation part      396.0000000 magnetization 

 Free energy of the ion-electron system (eV)
  ---------------------------------------------------
  alpha Z        PSCENC =      1443.53424874
  Ewald energy   TEWEN  =    -21818.96736155
  -Hartree energ DENC   =    -14488.22913725
  -exchange      EXHF   =         0.00000000
  -V(xc)+E(xc)   XCENC  =      1620.17577058
  PAW double counting   =     29784.60368500   -31040.73694357
  entropy T*S    EENTRO =        -0.01713295
  eigenvalues    EBANDS =       498.84981413
  atomic energy  EATOM  =     34890.38139807
  Solvation  Ediel_sol  =         0.00000000
  ---------------------------------------------------
  free energy    TOTEN  =       889.59434118 eV

  energy without entropy =      889.61147413  energy(sigma->0) =      889.60290766


--------------------------------------------------------------------------------------------------------




--------------------------------------- Iteration      1(   3)  ---------------------------------------


     EDDAV:  cpu time   31.5120: real time   31.5866
    --------------------------------------------
      LOOP:  cpu time   31.5118: real time   31.5863

 eigenvalue-minimisations  : 13296
 total energy-change (2. order) :-0.1158618E+04  (-0.1020063E+04)
 number of electron     396.0000000 magnetization 
 augmentation part      396.0000000 magnetization 

 Free energy of the ion-electron system (eV)
  ---------------------------------------------------
  alpha Z        PSCENC =      1443.53424874
  Ewald energy   TEWEN  =    -21818.96736155
  -Hartree energ DENC   =    -14488.22913725
  -exchange      EXHF   =         0.00000000
  -V(xc)+E(xc)   XCENC  =      1620.17577058
  PAW double counting   =     29784.60368500   -31040.73694357
  entropy T*S    EENTRO =        -0.00000130
  eigenvalues    EBANDS =      -659.78539267
  atomic energy  EATOM  =     34890.38139807
  Solvation  Ediel_sol  =         0.00000000
  ---------------------------------------------------
  free energy    TOTEN  =      -269.02373397 eV

  energy without entropy =     -269.02373267  energy(sigma->0) =     -269.02373332


--------------------------------------------------------------------------------------------------------




--------------------------------------- Iteration      1(   4)  ---------------------------------------


     EDDAV:  cpu time   31.4064: real time   31.4806
    --------------------------------------------
      LOOP:  cpu time   31.4063: real time   31.4806

 eigenvalue-minimisations  : 13280
 total energy-change (2. order) :-0.1228811E+03  (-0.1201731E+03)
 number of electron     396.0000000 magnetization 
 augmentation part      396.0000000 magnetization 

 Free energy of the ion-electron system (eV)
  ---------------------------------------------------
  alpha Z        PSCENC =      1443.53424874
  Ewald energy   TEWEN  =    -21818.96736155
  -Hartree energ DENC   =    -14488.22913725
  -exchange      EXHF   =         0.00000000
  -V(xc)+E(xc)   XCENC  =      1620.17577058
  PAW double counting   =     29784.60368500   -31040.73694357
  entropy T*S    EENTRO =        -0.00000004
  eigenvalues    EBANDS =      -782.66644523
  atomic energy  EATOM  =     34890.38139807
  Solvation  Ediel_sol  =         0.00000000
  ---------------------------------------------------
  free energy    TOTEN  =      -391.90478526 eV

  energy without entropy =     -391.90478523  energy(sigma->0) =     -391.90478524


--------------------------------------------------------------------------------------------------------




--------------------------------------- Iteration      1(   5)  ---------------------------------------


     EDDAV:  cpu time   32.5818: real time   32.6590
    CHARGE:  cpu time    1.2637: real time    1.2667
    MIXING:  cpu time    0.0021: real time    0.0022
    --------------------------------------------
      LOOP:  cpu time   33.8464: real time   33.9268

 eigenvalue-minimisations  : 13904
 total energy-change (2. order) :-0.3579159E+01  (-0.3570958E+01)
 number of electron     396.0000048 magnetization 
 augmentation part      115.9713101 magnetization 

 Broyden mixing:
  rms(total) = 0.19873E+02    rms(broyden)= 0.19872E+02
  rms(prec ) = 0.21700E+02
  weight for this iteration     100.00

 Free energy of the ion-electron system (eV)
  ---------------------------------------------------
  alpha Z        PSCENC =      1443.53424874
  Ewald energy   TEWEN  =    -21818.96736155
  -Hartree energ DENC   =    -14488.22913725
  -exchange      EXHF   =         0.00000000
  -V(xc)+E(xc)   XCENC  =      1620.17577058
  PAW double counting   =     29784.60368500   -31040.73694357
  entropy T*S    EENTRO =        -0.00000004
  eigenvalues    EBANDS =      -786.24560391
  atomic energy  EATOM  =     34890.38139807
  Solvation  Ediel_sol  =         0.00000000
  ---------------------------------------------------
  free energy    TOTEN  =      -395.48394395 eV

  energy without entropy =     -395.48394391  energy(sigma->0) =     -395.48394393


--------------------------------------------------------------------------------------------------------




--------------------------------------- Iteration      1(   6)  ---------------------------------------


    POTLOK:  cpu time    0.0593: real time    0.0594
    SETDIJ:  cpu time    0.0092: real time    0.0092
     EDDAV:  cpu time   43.0861: real time   43.1880
    CHARGE:  cpu time    1.2646: real time    1.2676
    MIXING:  cpu time    0.0021: real time    0.0021
    --------------------------------------------
      LOOP:  cpu time   44.4213: real time   44.5264

 eigenvalue-minimisations  : 19664
 total energy-change (2. order) :-0.3922085E+02  (-0.9488520E+02)
 number of electron     396.0000069 magnetization 
 augmentation part      152.1960587 magnetization 

 Broyden mixing:
  rms(total) = 0.21853E+02    rms(broyden)= 0.21852E+02
  rms(prec ) = 0.24315E+02
  weight for this iteration     100.00

 eigenvalues of (default mixing * dielectric matrix)
  average eigenvalue GAMMA=   0.4071
  0.4071

 Free energy of the ion-electron system (eV)
  ---------------------------------------------------
  alpha Z        PSCENC =      1443.53424874
  Ewald energy   TEWEN  =    -21818.96736155
  -Hartree energ DENC   =    -13913.56762825
  -exchange      EXHF   =         0.00000000
  -V(xc)+E(xc)   XCENC  =      1621.19735490
  PAW double counting   =     36927.76755231   -38026.21330462
  entropy T*S    EENTRO =        -0.03476871
  eigenvalues    EBANDS =     -1558.80228343
  atomic energy  EATOM  =     34890.38139807
  Solvation  Ediel_sol  =         0.00000000
  ---------------------------------------------------
  free energy    TOTEN  =      -434.70479255 eV

  energy without entropy =     -434.67002384  energy(sigma->0) =     -434.68740819


--------------------------------------------------------------------------------------------------------




--------------------------------------- Iteration      1(   7)  ---------------------------------------


    POTLOK:  cpu time    0.0589: real time    0.0590
    SETDIJ:  cpu time    0.0092: real time    0.0092
     EDDAV:  cpu time   40.8933: real time   40.9900
    CHARGE:  cpu time    1.2977: real time    1.3008
    MIXING:  cpu time    0.0023: real time    0.0023
    --------------------------------------------
      LOOP:  cpu time   42.2615: real time   42.3614

 eigenvalue-minimisations  : 17600
 total energy-change (2. order) : 0.1629079E+03  (-0.3983890E+02)
 number of electron     396.0000064 magnetization 
 augmentation part      131.9288986 magnetization 

 Broyden mixing:
  rms(total) = 0.72449E+01    rms(broyden)= 0.72433E+01
  rms(prec ) = 0.87432E+01
  weight for this iteration     100.00

 eigenvalues of (default mixing * dielectric matrix)
  average eigenvalue GAMMA=   0.8338
  1.2597  0.4080

 Free energy of the ion-electron system (eV)
  ---------------------------------------------------
  alpha Z        PSCENC =      1443.53424874
  Ewald energy   TEWEN  =    -21818.96736155
  -Hartree energ DENC   =    -14272.16125342
  -exchange      EXHF   =         0.00000000
  -V(xc)+E(xc)   XCENC  =      1627.55417141
  PAW double counting   =     39824.31898343   -41113.27043856
  entropy T*S    EENTRO =        -0.01572832
  eigenvalues    EBANDS =      -853.17095340
  atomic energy  EATOM  =     34890.38139807
  Solvation  Ediel_sol  =         0.00000000
  ---------------------------------------------------
  free energy    TOTEN  =      -271.79693362 eV

  energy without entropy =     -271.78120530  energy(sigma->0) =     -271.78906946


--------------------------------------------------------------------------------------------------------




--------------------------------------- Iteration      1(   8)  ---------------------------------------


    POTLOK:  cpu time    0.0597: real time    0.0599
    SETDIJ:  cpu time    0.0095: real time    0.0096
     EDDAV:  cpu time   41.9616: real time   42.0610
    CHARGE:  cpu time    1.3645: real time    1.3677
    MIXING:  cpu time    0.0028: real time    0.0028
    --------------------------------------------
      LOOP:  cpu time   43.3982: real time   43.5010

 eigenvalue-minimisations  : 17808
 total energy-change (2. order) :-0.9619567E+02  (-0.4572752E+02)
 number of electron     396.0000056 magnetization 
 augmentation part      125.2855693 magnetization 

 Broyden mixing:
  rms(total) = 0.15050E+02    rms(broyden)= 0.15050E+02
  rms(prec ) = 0.19851E+02
  weight for this iteration     100.00

 eigenvalues of (default mixing * dielectric matrix)
  average eigenvalue GAMMA=   0.7297
  1.5796  0.3880  0.2215

 Free energy of the ion-electron system (eV)
  ---------------------------------------------------
  alpha Z        PSCENC =      1443.53424874
  Ewald energy   TEWEN  =    -21818.96736155
  -Hartree energ DENC   =    -14268.99223818
  -exchange      EXHF   =         0.00000000
  -V(xc)+E(xc)   XCENC  =      1624.77826359
  PAW double counting   =     44174.70453001   -45573.68396333
  entropy T*S    EENTRO =        -0.01593138
  eigenvalues    EBANDS =      -839.73154555
  atomic energy  EATOM  =     34890.38139807
  Solvation  Ediel_sol  =         0.00000000
  ---------------------------------------------------
  free energy    TOTEN  =      -367.99259957 eV

  energy without entropy =     -367.97666819  energy(sigma->0) =     -367.98463388


--------------------------------------------------------------------------------------------------------




--------------------------------------- Iteration      1(   9)  ---------------------------------------


    POTLOK:  cpu time    0.0591: real time    0.0593
    SETDIJ:  cpu time    0.0096: real time    0.0096
     EDDAV:  cpu time   39.4641: real time   39.5574
    CHARGE:  cpu time    1.2691: real time    1.2722
    MIXING:  cpu time    0.0025: real time    0.0025
    --------------------------------------------
      LOOP:  cpu time   40.8044: real time   40.9009

 eigenvalue-minimisations  : 16688
 total energy-change (2. order) : 0.7564689E+02  (-0.2465454E+02)
 number of electron     396.0000056 magnetization 
 augmentation part      127.1845091 magnetization 

 Broyden mixing:
  rms(total) = 0.68537E+01    rms(broyden)= 0.68528E+01
  rms(prec ) = 0.89391E+01
  weight for this iteration     100.00

 eigenvalues of (default mixing * dielectric matrix)
  average eigenvalue GAMMA=   0.7348
  1.9316  0.3987  0.3987  0.2101

 Free energy of the ion-electron system (eV)
  ---------------------------------------------------
  alpha Z        PSCENC =      1443.53424874
  Ewald energy   TEWEN  =    -21818.96736155
  -Hartree energ DENC   =    -14219.24355102
  -exchange      EXHF   =         0.00000000
  -V(xc)+E(xc)   XCENC  =      1623.12888295
  PAW double counting   =     46534.14795932   -47957.12307612
  entropy T*S    EENTRO =        -0.04588116
  eigenvalues    EBANDS =      -788.15832571
  atomic energy  EATOM  =     34890.38139807
  Solvation  Ediel_sol  =         0.00000000
  ---------------------------------------------------
  free energy    TOTEN  =      -292.34570649 eV

  energy without entropy =     -292.29982533  energy(sigma->0) =     -292.32276591


--------------------------------------------------------------------------------------------------------




--------------------------------------- Iteration      1(  10)  ---------------------------------------


    POTLOK:  cpu time    0.0606: real time    0.0607
    SETDIJ:  cpu time    0.0093: real time    0.0094
     EDDAV:  cpu time   37.0546: real time   37.1422
    CHARGE:  cpu time    1.6170: real time    1.6208
    MIXING:  cpu time    0.0026: real time    0.0026
    --------------------------------------------
      LOOP:  cpu time   38.7441: real time   38.8358

 eigenvalue-minimisations  : 14816
 total energy-change (2. order) : 0.1613545E+02  (-0.1550708E+02)
 number of electron     396.0000055 magnetization 
 augmentation part      127.0157971 magnetization 

 Broyden mixing:
  rms(total) = 0.69751E+01    rms(broyden)= 0.69745E+01
  rms(prec ) = 0.94243E+01
  weight for this iteration     100.00

 eigenvalues of (default mixing * dielectric matrix)
  average eigenvalue GAMMA=   0.6785
  2.0814  0.4393  0.4393  0.2569  0.1758

 Free energy of the ion-electron system (eV)
  ---------------------------------------------------
  alpha Z        PSCENC =      1443.53424874
  Ewald energy   TEWEN  =    -21818.96736155
  -Hartree energ DENC   =    -14174.63130510
  -exchange      EXHF   =         0.00000000
  -V(xc)+E(xc)   XCENC  =      1621.85590767
  PAW double counting   =     49041.45775351   -50477.74309769
  entropy T*S    EENTRO =        -0.05798231
  eigenvalues    EBANDS =      -802.03981891
  atomic energy  EATOM  =     34890.38139807
  Solvation  Ediel_sol  =         0.00000000
  ---------------------------------------------------
  free energy    TOTEN  =      -276.21025757 eV

  energy without entropy =     -276.15227526  energy(sigma->0) =     -276.18126642


--------------------------------------------------------------------------------------------------------




--------------------------------------- Iteration      1(  11)  ---------------------------------------


    POTLOK:  cpu time    0.0595: real time    0.0597
    SETDIJ:  cpu time    0.0096: real time    0.0096
     EDDAV:  cpu time   39.9057: real time   40.0002
    CHARGE:  cpu time    1.2715: real time    1.2745
    MIXING:  cpu time    0.0026: real time    0.0026
    --------------------------------------------
      LOOP:  cpu time   41.2489: real time   41.3466

 eigenvalue-minimisations  : 17456
 total energy-change (2. order) : 0.8687492E+01  (-0.1632308E+02)
 number of electron     396.0000055 magnetization 
 augmentation part      128.4602796 magnetization 

 Broyden mixing:
  rms(total) = 0.41242E+01    rms(broyden)= 0.41236E+01
  rms(prec ) = 0.52651E+01
  weight for this iteration     100.00

 eigenvalues of (default mixing * dielectric matrix)
  average eigenvalue GAMMA=   0.6262
  2.0146  0.5275  0.5275  0.3430  0.1724  0.1724

 Free energy of the ion-electron system (eV)
  ---------------------------------------------------
  alpha Z        PSCENC =      1443.53424874
  Ewald energy   TEWEN  =    -21818.96736155
  -Hartree energ DENC   =    -14154.91571255
  -exchange      EXHF   =         0.00000000
  -V(xc)+E(xc)   XCENC  =      1621.54052547
  PAW double counting   =     49872.01815717   -51307.22617001
  entropy T*S    EENTRO =        -0.02473624
  eigenvalues    EBANDS =      -813.86311457
  atomic energy  EATOM  =     34890.38139807
  Solvation  Ediel_sol  =         0.00000000
  ---------------------------------------------------
  free energy    TOTEN  =      -267.52276548 eV

  energy without entropy =     -267.49802924  energy(sigma->0) =     -267.51039736


--------------------------------------------------------------------------------------------------------




--------------------------------------- Iteration      1(  12)  ---------------------------------------


    POTLOK:  cpu time    0.0599: real time    0.0600
    SETDIJ:  cpu time    0.0092: real time    0.0092
     EDDAV:  cpu time   40.2300: real time   40.3253
    CHARGE:  cpu time    1.1811: real time    1.1839
    MIXING:  cpu time    0.0027: real time    0.0027
    --------------------------------------------
      LOOP:  cpu time   41.4828: real time   41.5811

 eigenvalue-minimisations  : 18368
 total energy-change (2. order) : 0.5370870E+01  (-0.2801280E+01)
 number of electron     396.0000062 magnetization 
 augmentation part      129.0934723 magnetization 

 Broyden mixing:
  rms(total) = 0.24479E+01    rms(broyden)= 0.24474E+01
  rms(prec ) = 0.30106E+01
  weight for this iteration     100.00

 eigenvalues of (default mixing * dielectric matrix)
  average eigenvalue GAMMA=   0.6015
  1.9800  0.6219  0.6219  0.3172  0.3172  0.1760  0.1760

 Free energy of the ion-electron system (eV)
  ---------------------------------------------------
  alpha Z        PSCENC =      1443.53424874
  Ewald energy   TEWEN  =    -21818.96736155
  -Hartree energ DENC   =    -14153.43293493
  -exchange      EXHF   =         0.00000000
  -V(xc)+E(xc)   XCENC  =      1621.59015161
  PAW double counting   =     50020.82461310   -51450.53098544
  entropy T*S    EENTRO =        -0.01780969
  eigenvalues    EBANDS =      -815.53321522
  atomic energy  EATOM  =     34890.38139807
  Solvation  Ediel_sol  =         0.00000000
  ---------------------------------------------------
  free energy    TOTEN  =      -262.15189531 eV

  energy without entropy =     -262.13408562  energy(sigma->0) =     -262.14299046


--------------------------------------------------------------------------------------------------------




--------------------------------------- Iteration      1(  13)  ---------------------------------------


    POTLOK:  cpu time    0.0582: real time    0.0583
    SETDIJ:  cpu time    0.0091: real time    0.0091
     EDDAV:  cpu time   36.6046: real time   36.6912
    CHARGE:  cpu time    0.9005: real time    0.9026
    MIXING:  cpu time    0.0023: real time    0.0023
    --------------------------------------------
      LOOP:  cpu time   37.5746: real time   37.6635

 eigenvalue-minimisations  : 18240
 total energy-change (2. order) : 0.1136747E+01  (-0.1419324E+01)
 number of electron     396.0000058 magnetization 
 augmentation part      129.1909140 magnetization 

 Broyden mixing:
  rms(total) = 0.18538E+01    rms(broyden)= 0.18537E+01
  rms(prec ) = 0.21316E+01
  weight for this iteration     100.00

 eigenvalues of (default mixing * dielectric matrix)
  average eigenvalue GAMMA=   0.6031
  2.0285  0.6933  0.6933  0.4207  0.4207  0.1981  0.1981  0.1721

 Free energy of the ion-electron system (eV)
  ---------------------------------------------------
  alpha Z        PSCENC =      1443.53424874
  Ewald energy   TEWEN  =    -21818.96736155
  -Hartree energ DENC   =    -14157.57418541
  -exchange      EXHF   =         0.00000000
  -V(xc)+E(xc)   XCENC  =      1621.58510205
  PAW double counting   =     50172.57441605   -51596.96591390
  entropy T*S    EENTRO =        -0.00021159
  eigenvalues    EBANDS =      -815.58264061
  atomic energy  EATOM  =     34890.38139807
  Solvation  Ediel_sol  =         0.00000000
  ---------------------------------------------------
  free energy    TOTEN  =      -261.01514816 eV

  energy without entropy =     -261.01493656  energy(sigma->0) =     -261.01504236


--------------------------------------------------------------------------------------------------------




--------------------------------------- Iteration      1(  14)  ---------------------------------------


    POTLOK:  cpu time    0.0473: real time    0.0474
    SETDIJ:  cpu time    0.0078: real time    0.0078
     EDDAV:  cpu time   29.6086: real time   29.6786
    CHARGE:  cpu time    0.8834: real time    0.8855
    MIXING:  cpu time    0.0022: real time    0.0022
    --------------------------------------------
      LOOP:  cpu time   30.5493: real time   30.6215

 eigenvalue-minimisations  : 17696
 total energy-change (2. order) : 0.4290979E+00  (-0.4132444E+00)
 number of electron     396.0000059 magnetization 
 augmentation part      129.3643721 magnetization 

 Broyden mixing:
  rms(total) = 0.15009E+01    rms(broyden)= 0.15008E+01
  rms(prec ) = 0.16801E+01
  weight for this iteration     100.00

 eigenvalues of (default mixing * dielectric matrix)
  average eigenvalue GAMMA=   0.6435
  2.1350  0.8975  0.8975  0.4914  0.4914  0.3147  0.2124  0.1757  0.1757

 Free energy of the ion-electron system (eV)
  ---------------------------------------------------
  alpha Z        PSCENC =      1443.53424874
  Ewald energy   TEWEN  =    -21818.96736155
  -Hartree energ DENC   =    -14157.85153978
  -exchange      EXHF   =         0.00000000
  -V(xc)+E(xc)   XCENC  =      1621.46952649
  PAW double counting   =     50443.90768789   -51866.63998338
  entropy T*S    EENTRO =        -0.00000214
  eigenvalues    EBANDS =      -816.42002457
  atomic energy  EATOM  =     34890.38139807
  Solvation  Ediel_sol  =         0.00000000
  ---------------------------------------------------
  free energy    TOTEN  =      -260.58605024 eV

  energy without entropy =     -260.58604810  energy(sigma->0) =     -260.58604917


--------------------------------------------------------------------------------------------------------




--------------------------------------- Iteration      1(  15)  ---------------------------------------


    POTLOK:  cpu time    0.0471: real time    0.0472
    SETDIJ:  cpu time    0.0076: real time    0.0076
     EDDAV:  cpu time   26.5211: real time   26.5839
    CHARGE:  cpu time    0.8824: real time    0.8845
    MIXING:  cpu time    0.0025: real time    0.0025
    --------------------------------------------
      LOOP:  cpu time   27.4608: real time   27.5258

 eigenvalue-minimisations  : 15776
 total energy-change (2. order) : 0.4351026E-01  (-0.2335613E+00)
 number of electron     396.0000058 magnetization 
 augmentation part      129.5302599 magnetization 

 Broyden mixing:
  rms(total) = 0.12392E+01    rms(broyden)= 0.12391E+01
  rms(prec ) = 0.14654E+01
  weight for this iteration     100.00

 eigenvalues of (default mixing * dielectric matrix)
  average eigenvalue GAMMA=   0.6791
  2.1743  1.1244  1.1244  0.5808  0.5808  0.3959  0.1773  0.1773  0.2391  0.2165

 Free energy of the ion-electron system (eV)
  ---------------------------------------------------
  alpha Z        PSCENC =      1443.53424874
  Ewald energy   TEWEN  =    -21818.96736155
  -Hartree energ DENC   =    -14157.66825233
  -exchange      EXHF   =         0.00000000
  -V(xc)+E(xc)   XCENC  =      1621.27446702
  PAW double counting   =     50861.51602803   -52281.87001445
  entropy T*S    EENTRO =        -0.00013892
  eigenvalues    EBANDS =      -818.74291458
  atomic energy  EATOM  =     34890.38139807
  Solvation  Ediel_sol  =         0.00000000
  ---------------------------------------------------
  free energy    TOTEN  =      -260.54253998 eV

  energy without entropy =     -260.54240106  energy(sigma->0) =     -260.54247052


--------------------------------------------------------------------------------------------------------




--------------------------------------- Iteration      1(  16)  ---------------------------------------


    POTLOK:  cpu time    0.0472: real time    0.0473
    SETDIJ:  cpu time    0.0077: real time    0.0077
     EDDAV:  cpu time   27.2439: real time   27.3082
    CHARGE:  cpu time    0.8843: real time    0.8864
    MIXING:  cpu time    0.0025: real time    0.0025
    --------------------------------------------
      LOOP:  cpu time   28.1855: real time   28.2521

 eigenvalue-minimisations  : 16352
 total energy-change (2. order) : 0.1342814E+00  (-0.2855670E+00)
 number of electron     396.0000060 magnetization 
 augmentation part      129.9526586 magnetization 

 Broyden mixing:
  rms(total) = 0.98703E+00    rms(broyden)= 0.98692E+00
  rms(prec ) = 0.12382E+01
  weight for this iteration     100.00

 eigenvalues of (default mixing * dielectric matrix)
  average eigenvalue GAMMA=   0.6940
  2.2186  1.7640  0.7961  0.6555  0.6555  0.3915  0.3665  0.2345  0.1766  0.1766
  0.1988

 Free energy of the ion-electron system (eV)
  ---------------------------------------------------
  alpha Z        PSCENC =      1443.53424874
  Ewald energy   TEWEN  =    -21818.96736155
  -Hartree energ DENC   =    -14155.41859998
  -exchange      EXHF   =         0.00000000
  -V(xc)+E(xc)   XCENC  =      1621.07419639
  PAW double counting   =     51201.24855667   -52615.81567980
  entropy T*S    EENTRO =        -0.00002890
  eigenvalues    EBANDS =      -826.44498825
  atomic energy  EATOM  =     34890.38139807
  Solvation  Ediel_sol  =         0.00000000
  ---------------------------------------------------
  free energy    TOTEN  =      -260.40825861 eV

  energy without entropy =     -260.40822971  energy(sigma->0) =     -260.40824416


--------------------------------------------------------------------------------------------------------




--------------------------------------- Iteration      1(  17)  ---------------------------------------


    POTLOK:  cpu time    0.0471: real time    0.0473
    SETDIJ:  cpu time    0.0077: real time    0.0077
     EDDAV:  cpu time   25.4263: real time   25.4864
    CHARGE:  cpu time    0.8867: real time    0.8888
    MIXING:  cpu time    0.0025: real time    0.0025
    --------------------------------------------
      LOOP:  cpu time   26.3703: real time   26.4326

 eigenvalue-minimisations  : 14992
 total energy-change (2. order) : 0.2204182E+00  (-0.1637129E+00)
 number of electron     396.0000059 magnetization 
 augmentation part      130.1466283 magnetization 

 Broyden mixing:
  rms(total) = 0.60697E+00    rms(broyden)= 0.60688E+00
  rms(prec ) = 0.77586E+00
  weight for this iteration     100.00

 eigenvalues of (default mixing * dielectric matrix)
  average eigenvalue GAMMA=   0.7225
  2.5748  2.0663  0.7394  0.7394  0.5202  0.5202  0.4720  0.2673  0.2177  0.1780
  0.1780  0.1967

 Free energy of the ion-electron system (eV)
  ---------------------------------------------------
  alpha Z        PSCENC =      1443.53424874
  Ewald energy   TEWEN  =    -21818.96736155
  -Hartree energ DENC   =    -14157.23876264
  -exchange      EXHF   =         0.00000000
  -V(xc)+E(xc)   XCENC  =      1620.98848347
  PAW double counting   =     51404.17702066   -52814.65928107
  entropy T*S    EENTRO =        -0.00284893
  eigenvalues    EBANDS =      -828.40073711
  atomic energy  EATOM  =     34890.38139807
  Solvation  Ediel_sol  =         0.00000000
  ---------------------------------------------------
  free energy    TOTEN  =      -260.18784037 eV

  energy without entropy =     -260.18499144  energy(sigma->0) =     -260.18641591


--------------------------------------------------------------------------------------------------------




--------------------------------------- Iteration      1(  18)  ---------------------------------------


    POTLOK:  cpu time    0.0472: real time    0.0473
    SETDIJ:  cpu time    0.0076: real time    0.0076
     EDDAV:  cpu time   27.8813: real time   27.9472
    CHARGE:  cpu time    0.8849: real time    0.8870
    MIXING:  cpu time    0.0026: real time    0.0026
    --------------------------------------------
      LOOP:  cpu time   28.8235: real time   28.8916

 eigenvalue-minimisations  : 16832
 total energy-change (2. order) : 0.1381847E+00  (-0.4538331E-01)
 number of electron     396.0000059 magnetization 
 augmentation part      130.1620760 magnetization 

 Broyden mixing:
  rms(total) = 0.31917E+00    rms(broyden)= 0.31912E+00
  rms(prec ) = 0.41794E+00
  weight for this iteration     100.00

 eigenvalues of (default mixing * dielectric matrix)
  average eigenvalue GAMMA=   0.7035
  2.3404  2.3404  0.7711  0.7711  0.5343  0.5343  0.4817  0.3416  0.2616  0.2181
  0.1772  0.1772  0.1963

 Free energy of the ion-electron system (eV)
  ---------------------------------------------------
  alpha Z        PSCENC =      1443.53424874
  Ewald energy   TEWEN  =    -21818.96736155
  -Hartree energ DENC   =    -14160.90272292
  -exchange      EXHF   =         0.00000000
  -V(xc)+E(xc)   XCENC  =      1620.95928717
  PAW double counting   =     51515.33315677   -52923.65955207
  entropy T*S    EENTRO =        -0.00297715
  eigenvalues    EBANDS =      -826.72513275
  atomic energy  EATOM  =     34890.38139807
  Solvation  Ediel_sol  =         0.00000000
  ---------------------------------------------------
  free energy    TOTEN  =      -260.04965570 eV

  energy without entropy =     -260.04667855  energy(sigma->0) =     -260.04816713


--------------------------------------------------------------------------------------------------------




--------------------------------------- Iteration      1(  19)  ---------------------------------------


    POTLOK:  cpu time    0.0472: real time    0.0473
    SETDIJ:  cpu time    0.0076: real time    0.0076
     EDDAV:  cpu time   28.0062: real time   28.0724
    CHARGE:  cpu time    0.8831: real time    0.8852
    MIXING:  cpu time    0.0026: real time    0.0026
    --------------------------------------------
      LOOP:  cpu time   28.9467: real time   29.0152

 eigenvalue-minimisations  : 16944
 total energy-change (2. order) : 0.2531460E-01  (-0.2218613E-01)
 number of electron     396.0000059 magnetization 
 augmentation part      130.1813195 magnetization 

 Broyden mixing:
  rms(total) = 0.28413E+00    rms(broyden)= 0.28411E+00
  rms(prec ) = 0.34483E+00
  weight for this iteration     100.00

 eigenvalues of (default mixing * dielectric matrix)
  average eigenvalue GAMMA=   0.6928
  2.3856  2.3856  0.8244  0.8244  0.5604  0.5604  0.5170  0.3971  0.2826  0.2139
  0.2139  0.1792  0.1792  0.1755

 Free energy of the ion-electron system (eV)
  ---------------------------------------------------
  alpha Z        PSCENC =      1443.53424874
  Ewald energy   TEWEN  =    -21818.96736155
  -Hartree energ DENC   =    -14160.53978611
  -exchange      EXHF   =         0.00000000
  -V(xc)+E(xc)   XCENC  =      1620.96185547
  PAW double counting   =     51466.95618877   -52874.55705616
  entropy T*S    EENTRO =        -0.00184751
  eigenvalues    EBANDS =      -827.79198081
  atomic energy  EATOM  =     34890.38139807
  Solvation  Ediel_sol  =         0.00000000
  ---------------------------------------------------
  free energy    TOTEN  =      -260.02434110 eV

  energy without entropy =     -260.02249359  energy(sigma->0) =     -260.02341735


--------------------------------------------------------------------------------------------------------




--------------------------------------- Iteration      1(  20)  ---------------------------------------


    POTLOK:  cpu time    0.0471: real time    0.0472
    SETDIJ:  cpu time    0.0076: real time    0.0076
     EDDAV:  cpu time   28.3909: real time   28.4580
    CHARGE:  cpu time    0.8885: real time    0.8906
    MIXING:  cpu time    0.0029: real time    0.0030
    --------------------------------------------
      LOOP:  cpu time   29.3370: real time   29.4063

 eigenvalue-minimisations  : 17232
 total energy-change (2. order) : 0.1450469E-01  (-0.6837769E-02)
 number of electron     396.0000059 magnetization 
 augmentation part      130.1969568 magnetization 

 Broyden mixing:
  rms(total) = 0.18039E+00    rms(broyden)= 0.18038E+00
  rms(prec ) = 0.22901E+00
  weight for this iteration     100.00

 eigenvalues of (default mixing * dielectric matrix)
  average eigenvalue GAMMA=   0.6995
  2.3792  2.3792  0.9460  0.9460  0.6258  0.6258  0.4435  0.4435  0.4532  0.2648
  0.2315  0.1775  0.1775  0.2033  0.1957

 Free energy of the ion-electron system (eV)
  ---------------------------------------------------
  alpha Z        PSCENC =      1443.53424874
  Ewald energy   TEWEN  =    -21818.96736155
  -Hartree energ DENC   =    -14160.85632166
  -exchange      EXHF   =         0.00000000
  -V(xc)+E(xc)   XCENC  =      1620.96221006
  PAW double counting   =     51465.37240340   -52872.81717886
  entropy T*S    EENTRO =        -0.00313688
  eigenvalues    EBANDS =      -827.61609773
  atomic energy  EATOM  =     34890.38139807
  Solvation  Ediel_sol  =         0.00000000
  ---------------------------------------------------
  free energy    TOTEN  =      -260.00983642 eV

  energy without entropy =     -260.00669954  energy(sigma->0) =     -260.00826798


--------------------------------------------------------------------------------------------------------




--------------------------------------- Iteration      1(  21)  ---------------------------------------


    POTLOK:  cpu time    0.0471: real time    0.0472
    SETDIJ:  cpu time    0.0076: real time    0.0077
     EDDAV:  cpu time   27.7257: real time   27.7912
    CHARGE:  cpu time    0.8832: real time    0.8853
    MIXING:  cpu time    0.0028: real time    0.0028
    --------------------------------------------
      LOOP:  cpu time   28.6665: real time   28.7342

 eigenvalue-minimisations  : 16672
 total energy-change (2. order) : 0.8568532E-02  (-0.2006540E-02)
 number of electron     396.0000059 magnetization 
 augmentation part      130.1967904 magnetization 

 Broyden mixing:
  rms(total) = 0.16623E+00    rms(broyden)= 0.16622E+00
  rms(prec ) = 0.20781E+00
  weight for this iteration     100.00

 eigenvalues of (default mixing * dielectric matrix)
  average eigenvalue GAMMA=   0.7222
  2.7153  2.0727  1.2006  1.2006  0.7051  0.7051  0.4946  0.4946  0.4341  0.3004
  0.2693  0.2114  0.2114  0.1788  0.1788  0.1824

 Free energy of the ion-electron system (eV)
  ---------------------------------------------------
  alpha Z        PSCENC =      1443.53424874
  Ewald energy   TEWEN  =    -21818.96736155
  -Hartree energ DENC   =    -14160.19213298
  -exchange      EXHF   =         0.00000000
  -V(xc)+E(xc)   XCENC  =      1620.96457393
  PAW double counting   =     51446.90889569   -52854.49135884
  entropy T*S    EENTRO =        -0.00342317
  eigenvalues    EBANDS =      -828.13610777
  atomic energy  EATOM  =     34890.38139807
  Solvation  Ediel_sol  =         0.00000000
  ---------------------------------------------------
  free energy    TOTEN  =      -260.00126788 eV

  energy without entropy =     -259.99784471  energy(sigma->0) =     -259.99955630


--------------------------------------------------------------------------------------------------------




--------------------------------------- Iteration      1(  22)  ---------------------------------------


    POTLOK:  cpu time    0.0471: real time    0.0472
    SETDIJ:  cpu time    0.0076: real time    0.0076
     EDDAV:  cpu time   28.3556: real time   28.4226
    CHARGE:  cpu time    0.8834: real time    0.8855
    MIXING:  cpu time    0.0030: real time    0.0030
    --------------------------------------------
      LOOP:  cpu time   29.2966: real time   29.3659

 eigenvalue-minimisations  : 17168
 total energy-change (2. order) : 0.7856116E-02  (-0.1959287E-02)
 number of electron     396.0000059 magnetization 
 augmentation part      130.1934825 magnetization 

 Broyden mixing:
  rms(total) = 0.11260E+00    rms(broyden)= 0.11260E+00
  rms(prec ) = 0.15082E+00
  weight for this iteration     100.00

 eigenvalues of (default mixing * dielectric matrix)
  average eigenvalue GAMMA=   0.7564
  3.0283  1.8257  1.8257  1.2242  0.7674  0.7674  0.5269  0.5269  0.4552  0.4213
  0.2805  0.2381  0.2259  0.1781  0.1781  0.2014  0.1870

 Free energy of the ion-electron system (eV)
  ---------------------------------------------------
  alpha Z        PSCENC =      1443.53424874
  Ewald energy   TEWEN  =    -21818.96736155
  -Hartree energ DENC   =    -14159.66475847
  -exchange      EXHF   =         0.00000000
  -V(xc)+E(xc)   XCENC  =      1620.95887574
  PAW double counting   =     51444.26334814   -52852.20882710
  entropy T*S    EENTRO =        -0.00394622
  eigenvalues    EBANDS =      -828.28638912
  atomic energy  EATOM  =     34890.38139807
  Solvation  Ediel_sol  =         0.00000000
  ---------------------------------------------------
  free energy    TOTEN  =      -259.99341177 eV

  energy without entropy =     -259.98946555  energy(sigma->0) =     -259.99143866


--------------------------------------------------------------------------------------------------------




--------------------------------------- Iteration      1(  23)  ---------------------------------------


    POTLOK:  cpu time    0.0471: real time    0.0472
    SETDIJ:  cpu time    0.0077: real time    0.0077
     EDDAV:  cpu time   30.2233: real time   30.2948
    CHARGE:  cpu time    0.8859: real time    0.8880
    MIXING:  cpu time    0.0031: real time    0.0031
    --------------------------------------------
      LOOP:  cpu time   31.1670: real time   31.2408

 eigenvalue-minimisations  : 17744
 total energy-change (2. order) : 0.8241896E-02  (-0.1584294E-02)
 number of electron     396.0000059 magnetization 
 augmentation part      130.1892312 magnetization 

 Broyden mixing:
  rms(total) = 0.55933E-01    rms(broyden)= 0.55923E-01
  rms(prec ) = 0.72968E-01
  weight for this iteration     100.00

 eigenvalues of (default mixing * dielectric matrix)
  average eigenvalue GAMMA=   0.7535
  2.9504  2.0239  2.0239  1.0761  0.7929  0.7929  0.5513  0.5513  0.4636  0.4636
  0.3977  0.2734  0.2376  0.2195  0.1782  0.1782  0.2032  0.1859

 Free energy of the ion-electron system (eV)
  ---------------------------------------------------
  alpha Z        PSCENC =      1443.53424874
  Ewald energy   TEWEN  =    -21818.96736155
  -Hartree energ DENC   =    -14158.69470666
  -exchange      EXHF   =         0.00000000
  -V(xc)+E(xc)   XCENC  =      1620.93964201
  PAW double counting   =     51427.42814206   -52835.84013610
  entropy T*S    EENTRO =        -0.00773031
  eigenvalues    EBANDS =      -828.75866612
  atomic energy  EATOM  =     34890.38139807
  Solvation  Ediel_sol  =         0.00000000
  ---------------------------------------------------
  free energy    TOTEN  =      -259.98516987 eV

  energy without entropy =     -259.97743956  energy(sigma->0) =     -259.98130472


--------------------------------------------------------------------------------------------------------




--------------------------------------- Iteration      1(  24)  ---------------------------------------


    POTLOK:  cpu time    0.0473: real time    0.0474
    SETDIJ:  cpu time    0.0080: real time    0.0080
     EDDAV:  cpu time   29.5171: real time   29.5868
    CHARGE:  cpu time    0.8809: real time    0.8830
    MIXING:  cpu time    0.0033: real time    0.0033
    --------------------------------------------
      LOOP:  cpu time   30.4565: real time   30.5285

 eigenvalue-minimisations  : 17744
 total energy-change (2. order) : 0.6694304E-03  (-0.8491423E-03)
 number of electron     396.0000059 magnetization 
 augmentation part      130.1815550 magnetization 

 Broyden mixing:
  rms(total) = 0.42127E-01    rms(broyden)= 0.42124E-01
  rms(prec ) = 0.54451E-01
  weight for this iteration     100.00

 eigenvalues of (default mixing * dielectric matrix)
  average eigenvalue GAMMA=   0.7337
  2.9485  1.9115  1.9115  1.2619  0.7992  0.7992  0.5752  0.5752  0.4848  0.4434
  0.4434  0.3082  0.2780  0.2277  0.2277  0.1782  0.1782  0.2019  0.1865

 Free energy of the ion-electron system (eV)
  ---------------------------------------------------
  alpha Z        PSCENC =      1443.53424874
  Ewald energy   TEWEN  =    -21818.96736155
  -Hartree energ DENC   =    -14158.47570613
  -exchange      EXHF   =         0.00000000
  -V(xc)+E(xc)   XCENC  =      1620.92983028
  PAW double counting   =     51407.77070244   -52816.15127694
  entropy T*S    EENTRO =        -0.00766146
  eigenvalues    EBANDS =      -828.99867389
  atomic energy  EATOM  =     34890.38139807
  Solvation  Ediel_sol  =         0.00000000
  ---------------------------------------------------
  free energy    TOTEN  =      -259.98450044 eV

  energy without entropy =     -259.97683899  energy(sigma->0) =     -259.98066971


--------------------------------------------------------------------------------------------------------




--------------------------------------- Iteration      1(  25)  ---------------------------------------


    POTLOK:  cpu time    0.0472: real time    0.0473
    SETDIJ:  cpu time    0.0075: real time    0.0076
     EDDAV:  cpu time   25.7717: real time   25.8327
    CHARGE:  cpu time    0.8788: real time    0.8809
    MIXING:  cpu time    0.0033: real time    0.0033
    --------------------------------------------
      LOOP:  cpu time   26.7086: real time   26.7718

 eigenvalue-minimisations  : 15072
 total energy-change (2. order) : 0.2866428E-03  (-0.3646079E-03)
 number of electron     396.0000059 magnetization 
 augmentation part      130.1803210 magnetization 

 Broyden mixing:
  rms(total) = 0.32914E-01    rms(broyden)= 0.32912E-01
  rms(prec ) = 0.40276E-01
  weight for this iteration     100.00

 eigenvalues of (default mixing * dielectric matrix)
  average eigenvalue GAMMA=   0.7286
  2.6997  2.4628  1.5973  1.2262  0.8390  0.8390  0.6527  0.6527  0.5028  0.5028
  0.5096  0.4012  0.2772  0.2389  0.2237  0.1782  0.1782  0.1859  0.2025  0.2025

 Free energy of the ion-electron system (eV)
  ---------------------------------------------------
  alpha Z        PSCENC =      1443.53424874
  Ewald energy   TEWEN  =    -21818.96736155
  -Hartree energ DENC   =    -14158.69372156
  -exchange      EXHF   =         0.00000000
  -V(xc)+E(xc)   XCENC  =      1620.92550449
  PAW double counting   =     51401.45844436   -52809.72925205
  entropy T*S    EENTRO =        -0.00927704
  eigenvalues    EBANDS =      -828.88419725
  atomic energy  EATOM  =     34890.38139807
  Solvation  Ediel_sol  =         0.00000000
  ---------------------------------------------------
  free energy    TOTEN  =      -259.98421380 eV

  energy without entropy =     -259.97493676  energy(sigma->0) =     -259.97957528


--------------------------------------------------------------------------------------------------------




--------------------------------------- Iteration      1(  26)  ---------------------------------------


    POTLOK:  cpu time    0.0472: real time    0.0473
    SETDIJ:  cpu time    0.0077: real time    0.0077
     EDDAV:  cpu time   27.4026: real time   27.4674
    CHARGE:  cpu time    0.8780: real time    0.8801
    MIXING:  cpu time    0.0034: real time    0.0034
    --------------------------------------------
      LOOP:  cpu time   28.3389: real time   28.4059

 eigenvalue-minimisations  : 16464
 total energy-change (2. order) : 0.3148640E-03  (-0.8419548E-04)
 number of electron     396.0000059 magnetization 
 augmentation part      130.1788251 magnetization 

 Broyden mixing:
[...]
  0.119   1.092  -0.358  -0.371  -2.016  -0.122  -1.143   0.309   0.387   1.991  -0.458   0.155   1.361  -0.084  -0.177  -0.196
 -0.494   0.988  -0.806  -0.066  -0.754   0.505  -0.968   0.845   0.078   0.822   0.111  -0.049  -0.084   0.942   0.084   0.014
 -0.509  -0.426  -0.302  -0.631   0.237   0.575   0.435   0.307   0.669  -0.235  -0.058   0.006  -0.177   0.084   1.429   0.017
 -0.063   0.061  -0.020  -0.008   0.071   0.075  -0.151   0.107   0.017   0.095   0.025  -0.082  -0.196   0.014   0.017   0.133
 -0.036  -0.147  -0.016  -0.034  -0.035   0.041   0.050  -0.006   0.028   0.051  -0.080   0.002   0.019  -0.118   0.000   0.015
 -0.092  -0.009   0.019  -0.002  -0.033   0.008   0.019  -0.013  -0.050   0.008   0.000   0.002   0.015   0.004  -0.222  -0.022


------------------------ aborting loop because EDIFF is reached ----------------------------------------


    CHARGE:  cpu time    0.8982: real time    0.9003
    FORLOC:  cpu time    0.0227: real time    0.0228
    FORNL :  cpu time    7.0989: real time    7.1157
    STRESS:  cpu time   21.3616: real time   21.4122
    FORCOR:  cpu time    0.0659: real time    0.0660
    FORHAR:  cpu time    0.0312: real time    0.0313
    MIXING:  cpu time    0.0041: real time    0.0041
    OFIELD:  cpu time    0.0000: real time    0.0000

  FORCE on cell =-STRESS in cart. coord.  units (eV):
  Direction    XX          YY          ZZ          XY          YZ          ZX
  --------------------------------------------------------------------------------------
  Alpha Z  1443.53425  1443.53425  1443.53425
  Ewald     476.11711   403.69914-22698.93645  -606.89355   -94.96822   423.61150
  Hartree 10097.93648  9914.77511 -5853.76627  -279.02506   -39.93924   128.86526
  E(xc)   -2066.37507 -2066.90922 -2068.43012     0.85226     0.10638    -0.99634
  Local  -18408.04571-18096.27973 20217.41849   832.12342   134.39266  -495.12790
  n-local  -672.75831  -653.05273  -760.64323   -23.61659     1.42482    30.71880
  augment  3296.12683  3269.11472  3437.96489    22.18593     2.16227   -24.66027
  Kinetic  6160.92056  6163.70664  6469.44261    11.59248    -1.94233    -6.83825
  Fock        0.00000     0.00000     0.00000     0.00000     0.00000     0.00000
  -------------------------------------------------------------------------------------
  Total      327.4561467    378.5881816    186.5841813    -42.7811271      1.2363305     55.5727920
  in kB     1091.7719957   1262.2513845    622.0905794   -142.6366156      4.1220511    185.2853233
  external PRESSURE =     992.0379866 kB  Pullay stress =       0.0000000 kB


 VOLUME and BASIS-vectors are now :
 -----------------------------------------------------------------------------
  energy-cutoff  :      500.00
  volume of cell :      480.54
      direct lattice vectors                 reciprocal lattice vectors
     7.944726500  0.000000000  0.000000000     0.125869657  0.072670880  0.000000000
    -3.972363250  6.880334980  0.000000000     0.000000000  0.145341761  0.000000000
     0.000000000  0.000000000  8.791100500     0.000000000  0.000000000  0.113751401

  length of vectors
     7.944726500  7.944726504  8.791100500     0.145341761  0.145341761  0.113751401


 FORCES acting on ions
    electron-ion (+dipol)            ewald-force                    non-local-force                 convergence-correction
 -----------------------------------------------------------------------------------------------
   -.385E+02 -.237E+03 0.350E+02   0.412E+02 0.268E+03 -.268E+02   0.132E+01 -.453E+01 0.319E+01   -.121E-01 -.142E-01 0.349E-02
   -.487E+02 -.196E+03 0.669E+02   0.503E+02 0.218E+03 -.624E+02   0.114E+01 -.232E+01 -.114E+01   -.134E-01 0.341E-01 -.112E-01
   -.168E+03 -.924E+02 0.647E+01   0.190E+03 0.925E+02 -.300E+01   -.166E+01 0.252E+00 0.142E+01   -.485E-02 -.711E-02 0.391E-02
   -.115E+03 -.108E+03 0.860E+02   0.127E+03 0.111E+03 -.865E+02   -.311E+00 -.758E+00 0.424E+00   0.182E-03 -.314E-01 -.106E-01
   -.221E+03 0.230E+03 0.163E+02   0.254E+03 -.255E+03 -.312E+01   -.116E+01 0.451E+01 0.755E+00   -.105E-01 0.246E-02 0.736E-02
   -.228E+03 0.206E+03 0.930E+02   0.250E+03 -.215E+03 -.897E+02   -.256E+01 0.311E+01 -.705E+00   0.187E-01 0.279E-01 -.186E-01
   0.332E+02 -.307E+03 -.936E+02   -.409E+02 0.364E+03 0.110E+03   0.333E+01 -.392E+01 0.358E+00   0.341E-02 -.459E-02 0.530E-02
   0.212E+02 -.150E+03 0.423E+02   -.290E+02 0.162E+03 -.461E+02   0.390E+00 -.289E+00 -.265E+00   -.127E-03 -.496E-02 -.150E-01
   -.399E+02 -.116E+03 0.284E+02   0.406E+02 0.119E+03 -.243E+02   -.150E-02 -.231E+00 0.251E+01   0.313E-02 0.164E-02 0.425E-03
   -.705E+02 -.255E+02 0.846E+02   0.726E+02 0.232E+02 -.848E+02   0.557E+00 0.345E+00 0.459E+00   -.283E-01 -.327E-01 -.106E-01
   -.105E+03 0.203E+03 0.345E+02   0.111E+03 -.215E+03 -.300E+02   -.293E+01 0.445E+01 0.324E+01   0.969E-02 0.474E-02 0.181E-02
   -.190E+02 0.716E+02 0.589E+02   0.178E+02 -.726E+02 -.576E+02   0.289E+00 0.214E+01 0.570E+00   -.139E-01 0.151E-01 -.970E-02
   0.119E+03 -.783E+02 -.699E+02   -.122E+03 0.970E+02 0.786E+02   0.469E+00 -.140E+01 0.117E+01   0.803E-02 -.139E-01 0.557E-02
   0.189E+03 -.730E+02 0.106E+03   -.199E+03 0.832E+02 -.108E+03   0.945E+00 -.208E+00 0.942E+00   0.151E-01 0.241E-01 -.986E-02
   0.141E+03 0.192E+01 0.484E+02   -.148E+03 -.264E+01 -.441E+02   0.207E+01 0.850E+00 0.314E+01   -.328E-02 0.209E-02 0.344E-02
   0.649E+02 0.124E+02 0.117E+03   -.657E+02 -.140E+02 -.120E+03   0.210E+01 0.718E+00 -.970E+00   0.302E-01 -.361E-01 -.175E-01
   0.180E+03 0.184E+03 -.260E+02   -.187E+03 -.188E+03 0.309E+02   0.337E+01 0.256E+01 -.309E+00   0.171E-02 0.163E-01 0.608E-02
   0.134E+03 0.187E+03 0.887E+02   -.141E+03 -.194E+03 -.888E+02   0.340E+01 0.371E+01 -.311E+00   -.710E-02 0.438E-01 -.158E-01
   -.846E+02 -.115E+03 -.499E+03   0.860E+02 0.114E+03 0.524E+03   0.921E+00 0.132E+01 -.220E+02   0.381E-02 -.126E-01 0.201E-01
   -.837E+02 -.129E+03 0.403E+03   0.859E+02 0.129E+03 -.429E+03   -.186E+01 0.119E+01 0.252E+02   -.188E-01 -.180E-01 0.118E-01
   -.727E+02 -.131E+03 -.324E+03   0.731E+02 0.130E+03 0.351E+03   0.423E+00 0.297E+01 -.253E+02   -.203E-01 -.218E-01 -.268E-01
   -.573E+02 -.128E+03 0.353E+03   0.602E+02 0.128E+03 -.377E+03   -.292E+01 0.128E+01 0.139E+02   -.969E-02 -.344E-02 -.109E-01
   -.907E+02 0.518E+00 -.499E+03   0.943E+02 -.137E+00 0.523E+03   -.195E+01 0.804E+00 -.213E+02   -.478E-02 0.138E-01 0.165E-01
   -.463E+02 0.424E+01 0.410E+03   0.442E+02 -.725E+01 -.441E+03   0.292E+01 0.165E+01 0.299E+02   -.211E-01 -.377E-02 0.108E-01
   -.518E+02 0.208E+02 -.296E+03   0.504E+02 -.213E+02 0.319E+03   0.169E+01 -.428E+00 -.238E+02   0.132E-01 -.907E-02 -.151E-01
   -.665E+02 -.264E+02 0.285E+03   0.651E+02 0.243E+02 -.301E+03   0.196E+01 0.188E+01 0.841E+01   0.802E-02 0.136E-01 -.107E-01
   -.125E+03 -.319E+02 -.620E+03   0.140E+03 0.324E+02 0.659E+03   -.780E+01 -.370E+01 -.276E+02   -.102E-01 -.878E-02 0.155E-01
   -.388E+02 0.830E+02 0.447E+03   0.354E+02 -.909E+02 -.481E+03   0.360E+01 0.268E+01 0.314E+02   0.851E-02 0.708E-02 0.565E-02
   -.151E+03 -.314E+02 -.406E+03   0.164E+03 0.342E+02 0.444E+03   -.494E+01 -.725E+01 -.296E+02   -.174E-01 0.233E-01 -.215E-01
   0.163E+02 0.206E+03 0.407E+03   -.344E+02 -.260E+03 -.455E+03   0.941E+01 0.115E+02 0.199E+02   -.519E-02 -.203E-01 -.102E-01
   0.138E+02 -.744E+02 -.477E+03   -.128E+02 0.743E+02 0.500E+03   -.109E+01 0.699E+00 -.217E+02   0.230E-02 0.288E-02 0.166E-01
   0.475E+02 -.747E+02 0.411E+03   -.502E+02 0.771E+02 -.438E+03   0.195E+01 -.125E+01 0.267E+02   0.139E-01 -.781E-02 0.103E-01
   0.749E+02 -.431E+02 -.286E+03   -.832E+02 0.411E+02 0.314E+03   0.507E+01 0.179E+01 -.252E+02   0.482E-02 -.170E-01 -.104E-01
   0.476E+02 -.758E+02 0.346E+03   -.495E+02 0.776E+02 -.372E+03   0.912E+00 0.839E-01 0.145E+02   0.193E-01 -.708E-02 -.578E-02
   0.424E+02 0.406E+02 -.460E+03   -.468E+02 -.409E+02 0.481E+03   0.367E+01 0.678E+00 -.202E+02   0.599E-02 0.130E-01 0.615E-02
   0.279E+02 0.623E+02 0.406E+03   -.278E+02 -.654E+02 -.433E+03   -.261E+00 0.246E+01 0.272E+02   0.403E-02 -.814E-02 -.113E-01
   0.234E+02 0.459E+02 -.322E+03   -.232E+02 -.458E+02 0.350E+03   -.147E+01 -.370E-01 -.269E+02   -.182E-01 0.946E-02 -.219E-02
   0.654E+02 0.508E+02 0.303E+03   -.685E+02 -.547E+02 -.324E+03   0.238E+01 0.169E+01 0.120E+02   0.193E-02 0.156E-01 0.784E-03
   -.994E+02 0.458E+02 -.606E+03   0.121E+03 -.488E+02 0.650E+03   -.103E+02 -.373E+01 -.307E+02   0.216E-01 -.427E-02 0.181E-01
   0.547E+02 0.125E+03 0.459E+03   -.583E+02 -.134E+03 -.495E+03   0.425E+01 0.305E+01 0.312E+02   -.849E-02 0.259E-01 0.724E-02
   -.781E+02 0.409E+02 -.362E+03   0.928E+02 -.434E+02 0.397E+03   -.669E+01 -.287E+01 -.293E+02   0.743E-02 0.222E-02 -.196E-01
   0.393E+02 0.193E+03 0.354E+03   -.417E+02 -.218E+03 -.385E+03   0.227E+01 0.864E+01 0.167E+02   0.107E-01 0.102E-01 0.347E-02
   0.114E+03 -.656E+01 -.577E+03   -.127E+03 -.116E+01 0.618E+03   0.496E+01 0.377E+01 -.329E+02   -.964E-02 -.208E-01 0.245E-01
   0.486E+02 -.129E+03 0.490E+03   -.520E+02 0.139E+03 -.527E+03   -.315E+01 -.684E+01 0.307E+02   0.391E-02 -.539E-02 0.295E-01
   0.938E+02 -.810E+01 -.352E+03   -.101E+03 0.647E-01 0.388E+03   0.127E+01 0.553E+01 -.304E+02   0.198E-01 -.109E-01 -.282E-01
   0.320E+02 -.115E+03 0.428E+03   -.381E+02 0.126E+03 -.463E+03   -.298E+01 -.552E+01 0.195E+02   -.829E-02 -.247E-01 -.112E-01
   0.598E+02 0.150E+03 -.553E+03   -.630E+02 -.163E+03 0.588E+03   0.742E+00 0.951E+01 -.297E+02   -.220E-02 0.130E-01 0.382E-02
   0.638E+02 -.398E+02 0.437E+03   -.692E+02 0.484E+02 -.471E+03   -.959E+00 -.607E+01 0.302E+02   0.185E-01 -.223E-01 0.689E-02
   0.645E+02 0.114E+03 -.369E+03   -.702E+02 -.121E+03 0.406E+03   0.780E+00 0.447E+01 -.317E+02   0.529E-02 -.540E-02 0.238E-02
   0.274E+02 -.742E+02 0.397E+03   -.337E+02 0.920E+02 -.433E+03   -.364E+01 -.989E+01 0.208E+02   -.133E-01 0.193E-01 -.982E-02
   0.584E+02 0.609E+02 -.605E+03   -.575E+02 -.626E+02 0.649E+03   -.638E+00 -.294E+01 -.339E+02   -.867E-02 -.510E-02 0.545E-02
   0.344E+02 0.997E+02 0.590E+03   -.393E+02 -.105E+03 -.646E+03   -.293E+01 -.247E+01 0.396E+02   -.743E-02 0.467E-01 0.357E-02
   0.554E+02 0.669E+02 -.445E+03   -.539E+02 -.687E+02 0.488E+03   -.137E+00 -.457E+01 -.356E+02   0.509E-02 0.295E-01 -.288E-01
   0.104E+03 0.903E+02 0.470E+03   -.132E+03 -.970E+02 -.524E+03   0.355E+01 0.111E+01 0.241E+02   -.435E-02 -.875E-02 0.273E-02
 -----------------------------------------------------------------------------------------------
   -.972E+01 -.202E+02 0.617E+02   -.227E-12 0.313E-12 0.341E-12   0.973E+01 0.202E+02 -.616E+02   -.132E-01 0.276E-01 -.821E-01
 
 
 POSITION                                       TOTAL-FORCE (eV/Angst)
 -----------------------------------------------------------------------------------
     -3.90474      6.86170      0.00131         4.069254     26.780589     11.385734
      3.98866      6.84878      4.62698         2.648160     19.521425      3.350093
      6.55089      2.34394      0.04071        20.233355      0.349875      4.899061
     -1.36978      2.38911      4.62003        11.495087      2.508313     -0.053941
     -2.76743      4.81788      8.78139        31.404586    -19.959953     13.990846
      5.09896      4.85051      4.63185        19.106361     -6.322359      2.578281
     -1.17379      6.81927      0.06603        -4.370556     52.790321     17.140376
     -1.17859      6.86485      4.70806        -7.476399     11.620287     -4.087904
      1.39198      2.35610      8.77489         0.677265      2.762004      6.586096
      1.30227      2.45610      4.61024         2.585427     -1.957482      0.172720
     -0.02974      4.87123      8.72506         2.808142     -7.396942      7.795953
      0.02138      4.74575      4.60041        -0.953102      1.164011      1.857973
      5.52711      0.05848      0.07065        -3.158681     17.289946      9.920591
      5.56210      0.03363      4.61970        -9.039508     10.074573     -0.749861
      4.20420      2.38402      8.72277        -5.088562      0.130075      7.380987
      4.10935      2.42945      4.71680         1.300114     -0.948849     -4.274039
      2.79841      4.80735      0.07648        -4.424249     -2.193885      4.592084
      2.79713      4.83239      4.63700        -3.170959     -3.051567     -0.411732
     -0.00530      1.59704      0.87751         2.331535      0.703925      3.760779
      1.41386      0.80092      3.73971         0.360747      1.285979     -1.146026
     -0.01475      1.53316      5.55782         0.796173      2.367442      1.247508
      1.46178      0.78937      8.28329        -0.067625      0.452500     -9.666558
     -1.44158      3.98162      0.92290         1.606181      1.198228      2.677759
     -0.04720      3.27874      3.68068         0.877976     -1.364909     -0.980188
     -1.38949      4.08115      5.62194         0.254801     -0.960821     -0.293118
     -0.00851      3.23212      8.34828         0.593618     -0.214474     -7.770375
     -2.79535      6.36663      0.96110         6.828454     -3.248328     10.801872
     -1.35807      5.64966      3.65504         0.243395     -5.164459     -2.453815
     -2.79548      6.41412      5.54982         7.780063     -4.480227      8.649559
     -1.34196      5.69422      8.34566        -8.762444    -42.719675    -28.341893
      2.80955      1.63648      0.93442        -0.056093      0.665229      1.300938
      4.17845      0.77776      3.68975        -0.752582      1.140161     -0.243994
      2.87799      1.64418      5.54812        -3.232499     -0.170640      2.204570
      4.16260      0.77013      8.33385        -0.944823      1.817299    -10.791579
      1.40942      3.96590      0.95436        -0.731641      0.368468      1.005884
      2.76490      3.27591      3.69826        -0.129321     -0.651952     -0.230533
      1.46247      4.00529      5.55029        -1.271232      0.097922      0.985837
      2.79967      3.26108      8.34151        -0.793007     -2.197243     -8.698724
     -0.04938      6.44506      0.93580        11.153216     -6.687267     13.223734
      1.37668      5.60711      3.76189         0.675881     -6.397993     -4.911732
     -0.01566      6.40391      5.58729         8.011872     -5.320811      6.048447
      1.39906      5.63001      8.35013        -0.131036    -16.003959    -14.287529
      5.59482      1.62391      0.97348        -8.356568     -3.977270      7.930508
      6.98042      0.78003      3.67749        -6.541521      3.184229     -5.745790
      5.55444      1.61781      5.51869        -5.814058     -2.509975      5.046360
      6.89578      0.80824      8.26542        -9.127369      5.419500    -15.197437
      4.10336      4.03855      0.90647        -2.437830     -3.798901      5.876317
      5.59512      3.19760      3.64711        -6.343303      2.601375     -3.301439
      4.13169      4.00302      5.55087        -4.942834     -2.563006      5.404244
      5.54234      3.20759      8.25744        -9.936872      7.940608    -15.025223
      2.78822      6.36600      0.92716         0.200832     -4.654970      9.413363
      4.20933      5.67672      3.76056        -7.830366     -7.346925    -16.558097
      2.72539      6.46810      5.61006         1.344392     -6.385522      8.029625
      4.22066      5.59587      8.33535       -23.501849     -5.583921    -30.036574
 -----------------------------------------------------------------------------------
    total drift:                               -0.003431      0.008746      0.025235


--------------------------------------------------------------------------------------------------------



  FREE ENERGIE OF THE ION-ELECTRON SYSTEM (eV)
  ---------------------------------------------------
  free  energy   TOTEN  =      -259.9836494006 eV

  energy  without entropy=     -259.9737625679  energy(sigma->0) =     -259.97870598
 


--------------------------------------------------------------------------------------------------------


    POTLOK:  cpu time    0.0546: real time    0.0547


--------------------------------------------------------------------------------------------------------


     LOOP+:  cpu time 1046.8561: real time 1049.5257
    4ORBIT:  cpu time    0.0000: real time    0.0000

volume of typ            1:    23.9 %

volume of typ            2:    12.2 %
 
total charge     
 
# of ion       s       p       d       tot
------------------------------------------
    1        0.565   1.068   8.256   9.889
    2        0.498   0.902   8.126   9.526
    3        0.476   0.834   8.107   9.417
    4        0.384   0.597   7.941   8.922
    5        0.495   0.858   8.214   9.566
    6        0.410   0.636   8.029   9.074
    7        0.574   1.009   8.290   9.873
    8        0.394   0.617   7.952   8.963
    9        0.359   0.554   7.903   8.817
   10        0.298   0.402   7.830   8.531
   11        0.372   0.561   7.989   8.921
   12        0.316   0.446   7.867   8.630
   13        0.485   0.837   8.132   9.454
   14        0.400   0.637   7.985   9.023
   15        0.369   0.559   7.962   8.890
   16        0.324   0.455   7.877   8.655
   17        0.386   0.619   8.007   9.013
   18        0.319   0.457   7.927   8.702
   19        1.305   2.774   0.011   4.090
   20        1.290   2.741   0.008   4.039
   21        1.287   2.761   0.009   4.057
   22        1.272   2.922   0.020   4.214
   23        1.308   2.732   0.009   4.050
   24        1.287   2.759   0.011   4.057
   25        1.287   2.722   0.007   4.015
   26        1.270   2.882   0.017   4.170
   27        1.313   2.836   0.019   4.168
   28        1.292   2.770   0.013   4.075
   29        1.286   2.849   0.018   4.152
   30        1.301   3.104   0.058   4.462
   31        1.301   2.735   0.008   4.044
   32        1.292   2.720   0.008   4.019
   33        1.282   2.765   0.010   4.057
   34        1.273   2.922   0.023   4.218
   35        1.305   2.709   0.008   4.021
   36        1.288   2.722   0.008   4.018
   37        1.283   2.749   0.009   4.041
   38        1.268   2.889   0.019   4.176
   39        1.310   2.856   0.024   4.189
   40        1.282   2.826   0.017   4.125
   41        1.289   2.810   0.017   4.116
   42        1.272   3.008   0.035   4.315
   43        1.295   2.857   0.020   4.172
   44        1.290   2.805   0.015   4.111
   45        1.283   2.836   0.017   4.136
   46        1.277   2.977   0.030   4.284
   47        1.299   2.819   0.017   4.135
   48        1.293   2.761   0.013   4.067
   49        1.280   2.837   0.018   4.135
   50        1.280   2.971   0.033   4.284
   51        1.293   2.899   0.021   4.214
   52        1.295   2.953   0.036   4.284
   53        1.285   2.873   0.021   4.179
   54        1.300   3.173   0.071   4.544
--------------------------------------------------
tot          53.84  114.37  145.09  313.30
 

 total amount of memory used by VASP MPI-rank0   162694. kBytes
=======================================================================

   base      :      30000. kBytes
   nonlr-proj:      30291. kBytes
   fftplans  :       5062. kBytes
   grid      :      16231. kBytes
   one-center:        839. kBytes
   wavefun   :      80271. kBytes
 
  
  
 General timing and accounting informations for this job:
 ========================================================
  
                  Total CPU time used (sec):     1066.661
                            User time (sec):     1064.354
                          System time (sec):        2.308
                         Elapsed time (sec):     1072.316
  
                   Maximum memory used (kb):      214476.
                   Average memory used (kb):           0.
  
                          Minor page faults:        37735
                          Major page faults:            7
                 Voluntary context switches:         1134
