 vasp.5.4.4.18Apr17-6-g9f103f2a35 (build May 12 2020 04:58:55) complex          
  
 MD_VERSION_INFO: Compiled 2020-05-12T11:58:55-UTC in devlin.sd.materialsdesign.
 com:/home/medea2/data/build/wwolf/vasp-gpu5.4.4/13047/x86_64/src/src/build/std 
 from svn 13047
 
 This VASP executable licensed from Materials Design, Inc.
 
 executed on                        Lin64 date 2022.03.08  07:37:54
 running on   16 total cores
 distrk:  each k-point on   16 cores,    1 groups
 distr:  one band on NCORES_PER_BAND=   1 cores,   16 groups


--------------------------------------------------------------------------------------------------------


 INCAR:
 POTCAR:    PAW_PBE Ni 02Aug2007                  
 POTCAR:    PAW_PBE Ta_pv 07Sep2000               
 POTCAR:    PAW_PBE Li_sv 10Sep2004               
 POTCAR:    PAW_PBE Mn_pv 02Aug2007               
 POTCAR:    PAW_PBE O 08Apr2002                   
 POTCAR:    PAW_PBE Co 02Aug2007                  

 ----------------------------------------------------------------------------- 
|                                                                             |
|           W    W    AA    RRRRR   N    N  II  N    N   GGGG   !!!           |
|           W    W   A  A   R    R  NN   N  II  NN   N  G    G  !!!           |
|           W    W  A    A  R    R  N N  N  II  N N  N  G       !!!           |
|           W WW W  AAAAAA  RRRRR   N  N N  II  N  N N  G  GGG   !            |
|           WW  WW  A    A  R   R   N   NN  II  N   NN  G    G                |
|           W    W  A    A  R    R  N    N  II  N    N   GGGG   !!!           |
|                                                                             |
|      For optimal performance we recommend to set                            |
|        NCORE= 4 - approx SQRT( number of cores)                             |
|      NCORE specifies how many cores store one orbital (NPAR=cpu/NCORE).     |
|      This setting can  greatly improve the performance of VASP for DFT.     |
|      The default,   NCORE=1            might be grossly inefficient         |
|      on modern multi-core architectures or massively parallel machines.     |
|      Do your own testing !!!!                                               |
|      Unfortunately you need to use the default for GW and RPA calculations. |
|      (for HF NCORE is supported but not extensively tested yet)             |
|                                                                             |
 ----------------------------------------------------------------------------- 

 POTCAR:    PAW_PBE Ni 02Aug2007                  
  local pseudopotential read in
  partial core-charges read in
  partial kinetic energy density read in
  atomic valenz-charges read in
  non local Contribution for L=           2  read in
    real space projection operators read in
  non local Contribution for L=           2  read in
    real space projection operators read in
  non local Contribution for L=           0  read in
    real space projection operators read in
  non local Contribution for L=           0  read in
    real space projection operators read in
  non local Contribution for L=           1  read in
    real space projection operators read in
  non local Contribution for L=           1  read in
    real space projection operators read in
    PAW grid and wavefunctions read in
 
   number of l-projection  operators is LMAX  =           6
   number of lm-projection operators is LMMAX =          18
 
 POTCAR:    PAW_PBE Ta_pv 07Sep2000               
  local pseudopotential read in
  partial core-charges read in
  partial kinetic energy density read in
  atomic valenz-charges read in
  non local Contribution for L=           1  read in
    real space projection operators read in
  non local Contribution for L=           1  read in
    real space projection operators read in
  non local Contribution for L=           2  read in
    real space projection operators read in
  non local Contribution for L=           2  read in
    real space projection operators read in
  non local Contribution for L=           0  read in
    real space projection operators read in
  non local Contribution for L=           0  read in
    real space projection operators read in
    PAW grid and wavefunctions read in
 
   number of l-projection  operators is LMAX  =           6
   number of lm-projection operators is LMMAX =          18
 
 POTCAR:    PAW_PBE Li_sv 10Sep2004               
  local pseudopotential read in
  atomic valenz-charges read in
  non local Contribution for L=           0  read in
    real space projection operators read in
  non local Contribution for L=           0  read in
    real space projection operators read in
  non local Contribution for L=           1  read in
    real space projection operators read in
    PAW grid and wavefunctions read in
 
   number of l-projection  operators is LMAX  =           3
   number of lm-projection operators is LMMAX =           5
 
 POTCAR:    PAW_PBE Mn_pv 02Aug2007               
  local pseudopotential read in
  partial core-charges read in
  partial kinetic energy density read in
  atomic valenz-charges read in
  non local Contribution for L=           1  read in
    real space projection operators read in
  non local Contribution for L=           1  read in
    real space projection operators read in
  non local Contribution for L=           2  read in
    real space projection operators read in
  non local Contribution for L=           2  read in
    real space projection operators read in
  non local Contribution for L=           0  read in
    real space projection operators read in
  non local Contribution for L=           0  read in
    real space projection operators read in
    PAW grid and wavefunctions read in
 
   number of l-projection  operators is LMAX  =           6
   number of lm-projection operators is LMMAX =          18
 
 POTCAR:    PAW_PBE O 08Apr2002                   
  local pseudopotential read in
  partial core-charges read in
  partial kinetic energy density read in
  kinetic energy density of atom read in
  atomic valenz-charges read in
  non local Contribution for L=           0  read in
    real space projection operators read in
  non local Contribution for L=           0  read in
    real space projection operators read in
  non local Contribution for L=           1  read in
    real space projection operators read in
  non local Contribution for L=           1  read in
    real space projection operators read in
    PAW grid and wavefunctions read in
 
   number of l-projection  operators is LMAX  =           4
   number of lm-projection operators is LMMAX =           8
 
 POTCAR:    PAW_PBE Co 02Aug2007                  
  local pseudopotential read in
  partial core-charges read in
  partial kinetic energy density read in
  atomic valenz-charges read in
  non local Contribution for L=           2  read in
    real space projection operators read in
  non local Contribution for L=           2  read in
    real space projection operators read in
  non local Contribution for L=           0  read in
    real space projection operators read in
  non local Contribution for L=           0  read in
    real space projection operators read in
  non local Contribution for L=           1  read in
    real space projection operators read in
  non local Contribution for L=           1  read in
    real space projection operators read in
    PAW grid and wavefunctions read in
 
   number of l-projection  operators is LMAX  =           6
   number of lm-projection operators is LMMAX =          18
 
 Optimization of the real space projectors (new method)

 maximal supplied QI-value         = 16.25
 optimisation between [QCUT,QGAM] = [ 11.38, 22.75] = [ 36.24,144.96] Ry 
 Optimized for a Real-space Cutoff    1.47 Angstroem

   l    n(q)    QCUT    max X(q) W(low)/X(q) W(high)/X(q)  e(spline) 
   2      9    11.376    60.317    0.17E-03    0.16E-04    0.16E-06
   2      9    11.376    55.921    0.17E-03    0.16E-04    0.17E-06
   0     10    11.376    51.690    0.45E-04    0.60E-04    0.21E-06
   0     10    11.376    30.015    0.37E-04    0.55E-04    0.19E-06
   1     10    11.376    18.849    0.83E-04    0.11E-03    0.92E-07
   1     10    11.376    14.624    0.69E-04    0.92E-04    0.82E-07
 Optimization of the real space projectors (new method)

 maximal supplied QI-value         = 15.12
 optimisation between [QCUT,QGAM] = [ 11.34, 22.83] = [ 36.00,145.93] Ry 
 Optimized for a Real-space Cutoff    1.61 Angstroem

   l    n(q)    QCUT    max X(q) W(low)/X(q) W(high)/X(q)  e(spline) 
   1     11    11.338     4.092    0.40E-05    0.64E-05    0.47E-07
   1     11    11.338     4.834    0.13E-04    0.44E-04    0.21E-06
   2     10    11.338    62.294    0.15E-03    0.31E-03    0.77E-06
   2     10    11.338    50.966    0.15E-03    0.31E-03    0.77E-06
   0     11    11.338   103.792    0.33E-04    0.19E-04    0.90E-07
   0     11    11.338    56.335    0.26E-04    0.17E-04    0.79E-07
 Optimization of the real space projectors (new method)

 maximal supplied QI-value         = 22.11
 optimisation between [QCUT,QGAM] = [ 11.28, 22.77] = [ 35.61,145.23] Ry 
 Optimized for a Real-space Cutoff    1.10 Angstroem

   l    n(q)    QCUT    max X(q) W(low)/X(q) W(high)/X(q)  e(spline) 
   0      7    11.276    10.506    0.54E-04    0.58E-04    0.16E-07
   0      7    11.276     8.367    0.11E-03    0.14E-03    0.35E-07
   1      7    11.276     8.983    0.23E-03    0.43E-03    0.86E-07
 Optimization of the real space projectors (new method)

 maximal supplied QI-value         = 16.25
 optimisation between [QCUT,QGAM] = [ 11.38, 22.75] = [ 36.24,144.96] Ry 
 Optimized for a Real-space Cutoff    1.47 Angstroem

   l    n(q)    QCUT    max X(q) W(low)/X(q) W(high)/X(q)  e(spline) 
   1     10    11.376     3.658    0.62E-04    0.11E-03    0.11E-06
   1     10    11.376     5.612    0.12E-03    0.20E-03    0.19E-06
   2      9    11.376    55.373    0.10E-03    0.85E-04    0.19E-06
   2      9    11.376    50.863    0.11E-03    0.88E-04    0.19E-06
   0     10    11.376    79.536    0.52E-04    0.21E-04    0.79E-07
   0     10    11.376    38.668    0.45E-04    0.19E-04    0.74E-07
 Optimization of the real space projectors (new method)

 maximal supplied QI-value         = 24.76
 optimisation between [QCUT,QGAM] = [ 11.39, 22.77] = [ 36.31,145.25] Ry 
 Optimized for a Real-space Cutoff    1.10 Angstroem

   l    n(q)    QCUT    max X(q) W(low)/X(q) W(high)/X(q)  e(spline) 
   0      7    11.387    20.381    0.22E-03    0.48E-03    0.18E-06
   0      7    11.387    15.268    0.22E-03    0.52E-03    0.19E-06
   1      7    11.387     5.964    0.22E-03    0.73E-03    0.24E-06
   1      7    11.387     5.382    0.19E-03    0.60E-03    0.21E-06
 Optimization of the real space projectors (new method)

 maximal supplied QI-value         = 16.25
 optimisation between [QCUT,QGAM] = [ 11.38, 22.75] = [ 36.24,144.96] Ry 
 Optimized for a Real-space Cutoff    1.43 Angstroem

   l    n(q)    QCUT    max X(q) W(low)/X(q) W(high)/X(q)  e(spline) 
   2      9    11.376    65.824    0.18E-03    0.28E-04    0.14E-06
   2      9    11.376    61.429    0.18E-03    0.29E-04    0.14E-06
   0     10    11.376    56.174    0.51E-04    0.12E-03    0.20E-06
   0     10    11.376    31.263    0.46E-04    0.11E-03    0.18E-06
   1      9    11.376    19.828    0.23E-03    0.17E-03    0.10E-06
   1      9    11.376    15.139    0.20E-03    0.14E-03    0.89E-07

 ----------------------------------------------------------------------------- 
|                                                                             |
|  ADVICE TO THIS USER RUNNING 'VASP/VAMP'   (HEAR YOUR MASTER'S VOICE ...):  |
|                                                                             |
|      You enforced a specific xc-type in the INCAR file,                     |
|      a different type was found on the POTCAR file                          |
|          I HOPE YOU KNOW, WHAT YOU ARE  DOING                               |
|                                                                             |
 ----------------------------------------------------------------------------- 

  PAW_PBE Ni 02Aug2007                  :
 energy of atom  1       EATOM=-1077.6739
 kinetic energy error for atom=    0.0030 (will be added to EATOM!!)
  PAW_PBE Ta_pv 07Sep2000               :
 energy of atom  2       EATOM=-1047.1984
 kinetic energy error for atom=    0.0019 (will be added to EATOM!!)
  PAW_PBE Li_sv 10Sep2004               :
 energy of atom  3       EATOM= -202.7858
 kinetic energy error for atom=    0.0143 (will be added to EATOM!!)
  PAW_PBE Mn_pv 02Aug2007               :
 energy of atom  4       EATOM=-2025.2664
 kinetic energy error for atom=    0.0062 (will be added to EATOM!!)
  PAW_PBE O 08Apr2002                   :
 energy of atom  5       EATOM= -432.3788
 kinetic energy error for atom=    0.0224 (will be added to EATOM!!)
  PAW_PBE Co 02Aug2007                  :
 energy of atom  6       EATOM= -813.3670
 kinetic energy error for atom=    0.0028 (will be added to EATOM!!)
 
 
 POSCAR: ce12_1                                  
  positions in direct lattice
  No initial velocities read in

 METAGGA = SCAN     LMAXTAU =  6    LMIXTAU =  T

 exchange correlation table for  LEXCH =       14
   RHO(1)=    0.500       N(1)  =     2000
   RHO(2)=  100.500       N(2)  =     4000
 


--------------------------------------------------------------------------------------------------------


 ion  position               nearest neighbor table
   1  0.000  0.396  0.000-  63 2.03  64 2.03  41 2.04  42 2.04  47 2.06  48 2.06  29 2.80  30 2.80
                            38 2.85  38 2.85  11 2.86  11 2.86  10 2.87   2 2.88
   2  0.000  0.595  0.000-  41 2.02  42 2.02  49 2.06  50 2.06  65 2.07  66 2.07   1 2.88  38 2.91
                            38 2.91  15 2.94  15 2.94   9 3.03
   3  0.500  0.905  0.000-  39 2.02  40 2.02  51 2.06  52 2.06  67 2.10  68 2.10   4 2.84  37 2.87
                            37 2.87   9 2.88   9 2.88  15 2.91
   4  0.500  0.102  0.000-  69 1.90  70 1.90  39 1.91  40 1.91  53 2.06  54 2.06   3 2.84  10 2.85
                            10 2.85  11 2.85  37 2.87  37 2.87
   5  0.000  0.905  0.500-  43 2.02  44 2.02  59 2.03  60 2.03  75 2.12  76 2.12  17 2.81  18 2.81
                             6 2.83  33 2.83  34 2.83  80 2.88  80 2.88  13 2.88  13 2.88  16 2.95
   6  0.000  0.101  0.500-  43 1.88  44 1.88  61 1.90  62 1.90  77 1.91  78 1.91   5 2.83  80 2.86
                            80 2.86  14 2.87  14 2.87  12 2.89
   7  0.500  0.399  0.500-  45 1.90  46 1.90  71 1.93  72 1.93  55 2.05  56 2.05  79 2.85  79 2.85
                             8 2.85  12 2.86  12 2.86  14 2.88
   8  0.500  0.596  0.500-  45 2.00  46 2.00  73 2.06  74 2.06  57 2.07  58 2.07   7 2.85  79 2.89
                            79 2.89  16 2.92  16 2.92  13 3.03
   9  0.000  0.805  0.000-  51 2.04  52 2.04  65 2.07  66 2.07  67 2.07  68 2.07  37 2.85   3 2.88
                             3 2.88  15 2.89  15 2.89   2 3.03
  10  0.000  0.197  0.000-  63 1.87  64 1.87  69 1.89  70 1.89  53 1.90  54 1.90  37 2.81   4 2.85
                             4 2.85   1 2.87  11 2.90  11 2.90
  11  0.500  0.299  0.000-  69 2.03  70 2.03  47 2.04  48 2.04  63 2.06  64 2.06  38 2.79   4 2.85
                             1 2.86   1 2.86  10 2.90  10 2.90
  12  0.000  0.301  0.500-  71 1.89  72 1.89  55 1.96  56 1.96  77 2.01  78 2.01  79 2.78   7 2.86
                             7 2.86   6 2.89  14 2.90  14 2.90
  13  0.500  0.805  0.500-  59 2.01  60 2.01  75 2.08  76 2.08  73 2.09  74 2.09  25 2.81  26 2.81
                            80 2.87   5 2.88   5 2.88  16 2.91  16 2.91   8 3.03
  14  0.500  0.199  0.500-  77 1.93  78 1.93  61 2.00  62 2.00  71 2.01  72 2.01  80 2.82   6 2.87
                             6 2.87   7 2.88  12 2.90  12 2.90
  15  0.500  0.704  0.000-  67 1.96  68 1.96  65 1.98  66 1.98  49 2.05  50 2.05   9 2.89   9 2.89
                            32 2.90  31 2.90   3 2.91   2 2.94   2 2.94  33 2.98  34 2.98  23 3.00
  16  0.000  0.701  0.500-  75 1.97  76 1.97  73 1.98  74 1.98  57 2.03  58 2.03  31 2.89  32 2.89
                            13 2.91  13 2.91   8 2.92   8 2.92  33 2.95  34 2.95   5 2.95  23 2.97
  17  0.750  0.999  0.257-  59 1.98  62 2.05  51 2.05  43 2.15  54 2.21  39 2.21   5 2.81  80 2.83

  18  0.250  0.999  0.743-  60 1.98  61 2.05  52 2.05  44 2.15  53 2.21  40 2.21   5 2.81  80 2.83

  19  0.240  0.497  0.251-  55 2.06  47 2.07  58 2.07  50 2.15  41 2.15  45 2.23  79 2.86
  20  0.760  0.497  0.749-  56 2.06  48 2.07  57 2.07  49 2.15  42 2.15  46 2.23  79 2.86
  21  0.749  0.402  0.253-  45 2.02  41 2.03  55 2.04  47 2.04  71 2.10  79 2.82  38 2.85
  22  0.251  0.402  0.747-  46 2.02  42 2.03  56 2.04  48 2.04  72 2.10  79 2.82  38 2.85
  23  0.249  0.591  0.750-  42 2.01  57 2.02  49 2.04  46 2.13  73 2.15  65 2.17  16 2.97  15 3.00

  24  0.751  0.591  0.250-  41 2.01  58 2.02  50 2.04  45 2.13  74 2.15  66 2.17  16 2.97  15 3.00

  25  0.254  0.898  0.255-  59 2.03  75 2.08  51 2.08  67 2.10  43 2.22  39 2.24  13 2.81
  26  0.746  0.898  0.745-  60 2.03  76 2.08  52 2.08  68 2.10  44 2.22  40 2.24  13 2.81
  27  0.751  0.101  0.750-  53 2.03  44 2.04  40 2.05  69 2.07  77 2.09  61 2.19  37 2.88
  28  0.249  0.101  0.250-  54 2.03  43 2.04  39 2.05  70 2.07  78 2.09  62 2.19  37 2.88
  29  0.244  0.304  0.246-  63 2.01  47 2.09  55 2.11  70 2.20  78 2.24  71 2.25   1 2.80
  30  0.756  0.304  0.754-  64 2.01  48 2.09  56 2.11  69 2.20  77 2.24  72 2.25   1 2.80
  31  0.750  0.699  0.749-  76 2.03  68 2.06  73 2.10  65 2.11  57 2.15  49 2.16  16 2.89  15 2.90

  32  0.250  0.699  0.251-  75 2.03  67 2.06  74 2.10  66 2.11  58 2.15  50 2.16  16 2.89  15 2.90

  33  0.749  0.811  0.254-  75 2.01  67 2.04  59 2.08  51 2.14  74 2.17  66 2.20   5 2.83  16 2.95
                            15 2.98
  34  0.251  0.811  0.746-  76 2.01  68 2.04  60 2.08  52 2.14  73 2.17  65 2.20   5 2.83  16 2.95
                            15 2.98
  35  0.239  0.201  0.750-  64 2.00  77 2.12  53 2.12  61 2.14  72 2.17  69 2.25
  36  0.761  0.201  0.250-  63 2.00  78 2.12  54 2.12  62 2.14  71 2.17  70 2.25
  37  0.000  0.003  0.000-  51 1.88  52 1.88  39 1.91  40 1.91  53 1.93  54 1.93  10 2.81   9 2.85
                             3 2.87   3 2.87   4 2.87   4 2.87  27 2.88  28 2.88
  38  0.500  0.492  0.000-  47 1.86  48 1.86  41 1.90  42 1.90  49 2.01  50 2.01  11 2.79  21 2.85
                            22 2.85   1 2.85   1 2.85   2 2.91   2 2.91  15 3.05
  39  0.359  0.008  0.109-   4 1.91  37 1.91   3 2.02  28 2.05  17 2.21  25 2.24
  40  0.641  0.008  0.891-   4 1.91  37 1.91   3 2.02  27 2.05  18 2.21  26 2.24
  41  0.850  0.496  0.114-  38 1.90  24 2.01   2 2.02  21 2.03   1 2.04  19 2.15
  42  0.150  0.496  0.886-  38 1.90  23 2.01   2 2.02  22 2.03   1 2.04  20 2.15
  43  0.139  0.010  0.392-   6 1.88  80 1.92   5 2.02  28 2.04  17 2.15  25 2.22
  44  0.861  0.010  0.608-   6 1.88  80 1.92   5 2.02  27 2.04  18 2.15  26 2.22
  45  0.640  0.492  0.394-   7 1.90  79 1.90   8 2.00  21 2.02  24 2.13  19 2.23
  46  0.360  0.492  0.606-   7 1.90  79 1.90   8 2.00  22 2.02  23 2.13  20 2.23
  47  0.385  0.404  0.118-  38 1.86  11 2.04  21 2.04   1 2.06  19 2.07  29 2.09
  48  0.615  0.404  0.882-  38 1.86  11 2.04  22 2.04   1 2.06  20 2.07  30 2.09
  49  0.612  0.596  0.884-  38 2.01  23 2.04  15 2.05   2 2.06  20 2.15  31 2.16
  50  0.388  0.596  0.116-  38 2.01  24 2.04  15 2.05   2 2.06  19 2.15  32 2.16
  51  0.886  0.911  0.117-  37 1.88   9 2.04  17 2.05   3 2.06  25 2.08  33 2.14
  52  0.114  0.911  0.883-  37 1.88   9 2.04  18 2.05   3 2.06  26 2.08  34 2.14
  53  0.110  0.101  0.887-  10 1.90  37 1.93  27 2.03   4 2.06  35 2.12  18 2.21
  54  0.890  0.101  0.113-  10 1.90  37 1.93  28 2.03   4 2.06  36 2.12  17 2.21
  55  0.115  0.401  0.385-  79 1.89  12 1.96  21 2.04   7 2.05  19 2.06  29 2.11
  56  0.885  0.401  0.615-  79 1.89  12 1.96  22 2.04   7 2.05  20 2.06  30 2.11
  57  0.889  0.595  0.617-  79 1.98  23 2.02  16 2.03   8 2.07  20 2.07  31 2.15
  58  0.111  0.595  0.383-  79 1.98  24 2.02  16 2.03   8 2.07  19 2.07  32 2.15
  59  0.619  0.909  0.386-  80 1.91  17 1.98  13 2.01   5 2.03  25 2.03  33 2.08
  60  0.381  0.909  0.614-  80 1.91  18 1.98  13 2.01   5 2.03  26 2.03  34 2.08
  61  0.355  0.099  0.610-   6 1.90  80 1.94  14 2.00  18 2.05  35 2.14  27 2.19
  62  0.645  0.099  0.390-   6 1.90  80 1.94  14 2.00  17 2.05  36 2.14  28 2.19
  63  0.887  0.289  0.114-  10 1.87  36 2.00  29 2.01   1 2.03  11 2.06
  64  0.113  0.289  0.886-  10 1.87  35 2.00  30 2.01   1 2.03  11 2.06
  65  0.134  0.701  0.882-  15 1.98   9 2.07   2 2.07  31 2.11  23 2.17  34 2.20
  66  0.866  0.701  0.118-  15 1.98   9 2.07   2 2.07  32 2.11  24 2.17  33 2.20
  67  0.382  0.797  0.124-  15 1.96  33 2.04  32 2.06   9 2.07  25 2.10   3 2.10
  68  0.618  0.797  0.876-  15 1.96  34 2.04  31 2.06   9 2.07  26 2.10   3 2.10
  69  0.644  0.194  0.893-  10 1.89   4 1.90  11 2.03  27 2.07  30 2.20  35 2.25
  70  0.356  0.194  0.107-  10 1.89   4 1.90  11 2.03  28 2.07  29 2.20  36 2.25
  71  0.645  0.303  0.394-  12 1.89   7 1.93  14 2.01  21 2.10  36 2.17  29 2.25
  72  0.355  0.303  0.606-  12 1.89   7 1.93  14 2.01  22 2.10  35 2.17  30 2.25
  73  0.366  0.699  0.619-  16 1.98   8 2.06  13 2.09  31 2.10  23 2.15  34 2.17
  74  0.634  0.699  0.381-  16 1.98   8 2.06  13 2.09  32 2.10  24 2.15  33 2.17
  75  0.117  0.796  0.376-  16 1.97  33 2.01  32 2.03  13 2.08  25 2.08   5 2.12
  76  0.883  0.796  0.624-  16 1.97  34 2.01  31 2.03  13 2.08  26 2.08   5 2.12
  77  0.864  0.196  0.607-   6 1.91  14 1.93  12 2.01  27 2.09  35 2.12  30 2.24
  78  0.136  0.196  0.393-   6 1.91  14 1.93  12 2.01  28 2.09  36 2.12  29 2.24
  79  0.000  0.494  0.500-  55 1.89  56 1.89  45 1.90  46 1.90  57 1.98  58 1.98  12 2.78  21 2.82
                            22 2.82   7 2.85   7 2.85  20 2.86  19 2.86   8 2.89   8 2.89  16 2.99
  80  0.500  0.004  0.500-  59 1.91  60 1.91  43 1.92  44 1.92  61 1.94  62 1.94  14 2.82  17 2.83
                            18 2.83   6 2.86   6 2.86  13 2.87   5 2.88   5 2.88
 
  LATTYP: Found a simple monoclinic cell.
 ALAT       =    10.0473930531
 B/A-ratio  =     1.4376918723
 C/A-ratio  =     1.8940319856
 COS(beta)  =    -0.9689644564
  
  Lattice vectors:
  
 A1 = (  -3.3350006900,   0.0000000000,  -9.4777569900)
 A2 = (   0.0000000000, -14.4450553300,   0.0000000000)
 A3 = (   1.6830269600,   0.0000000000,  18.9555139800)


Analysis of symmetry for initial positions (statically):
=====================================================================
 Subroutine PRICEL returns:
 Original cell was already a primitive cell.
 

 Routine SETGRP: Setting up the symmetry group for a 
 simple monoclinic supercell.


 Subroutine GETGRP returns: Found  2 space group operations
 (whereof  2 operations were pure point group operations)
 out of a pool of  4 trial point group operations.


The static configuration has the point symmetry C_2 .


Analysis of symmetry for dynamics (positions and initial velocities):
=====================================================================
 Subroutine PRICEL returns:
 Original cell was already a primitive cell.
 

 Routine SETGRP: Setting up the symmetry group for a 
 simple monoclinic supercell.


 Subroutine GETGRP returns: Found  2 space group operations
 (whereof  2 operations were pure point group operations)
 out of a pool of  4 trial point group operations.


The dynamic configuration has the point symmetry C_2 .


Analysis of structural, dynamic, and magnetic symmetry:
=====================================================================
 Subroutine PRICEL returns:
 Original cell was already a primitive cell.
 

 Routine SETGRP: Setting up the symmetry group for a 
 simple monoclinic supercell.


 Subroutine GETGRP returns: Found  2 space group operations
 (whereof  2 operations were pure point group operations)
 out of a pool of  4 trial point group operations.


The magnetic configuration has the point symmetry C_2 .


 Subroutine INISYM returns: Found  2 space group operations
 (whereof  2 operations are pure point group operations),
 and found     1 'primitive' translations

 
 
 KPOINTS: Automatic mesh                          

Automatic generation of k-mesh.
Space group operators:
 irot       det(A)        alpha          n_x          n_y          n_z        tau_x        tau_y        tau_z
    1     1.000000     0.000000     1.000000     0.000000     0.000000     0.000000     0.000000     0.000000
    2     1.000000   180.000000     0.000000     1.000000     0.000000     0.000000     0.000000     0.000000
 
 Subroutine IBZKPT returns following result:
 ===========================================
 
 Found      5 irreducible k-points:
 
 Following reciprocal coordinates:
            Coordinates               Weight
  0.000000  0.000000  0.000000      1.000000
  0.333333  0.000000  0.000000      2.000000
  0.000000  0.000000  0.333333      2.000000
  0.333333  0.000000  0.333333      2.000000
 -0.333333  0.000000  0.333333      2.000000
 
 Following cartesian coordinates:
            Coordinates               Weight
  0.000000  0.000000  0.000000      1.000000
  0.066841  0.000000  0.011650      2.000000
  0.000000  0.000000  0.035170      2.000000
  0.066841  0.000000  0.046820      2.000000
 -0.066841  0.000000  0.023520      2.000000
 

 ----------------------------------------------------------------------------- 
|                                                                             |
|           W    W    AA    RRRRR   N    N  II  N    N   GGGG   !!!           |
|           W    W   A  A   R    R  NN   N  II  NN   N  G    G  !!!           |
|           W    W  A    A  R    R  N N  N  II  N N  N  G       !!!           |
|           W WW W  AAAAAA  RRRRR   N  N N  II  N  N N  G  GGG   !            |
|           WW  WW  A    A  R   R   N   NN  II  N   NN  G    G                |
|           W    W  A    A  R    R  N    N  II  N    N   GGGG   !!!           |
|                                                                             |
|      The number of bands has been changed from the values supplied          |
|      in the INCAR file. This is a result of running the parallel version.   |
|      The orbitals not found in the WAVECAR file will be initialized with    |
|      random numbers, which is usually adequate. For correlated              |
|      calculations, however, you should redo the groundstate calculation.    |
|      I found NBANDS    =      495  now  NBANDS  =     496                   |
|                                                                             |
 ----------------------------------------------------------------------------- 



--------------------------------------------------------------------------------------------------------




 Dimension of arrays:
   k-points           NKPTS =      5   k-points in BZ     NKDIM =      5   number of bands    NBANDS=    496
   number of dos      NEDOS =    301   number of ions     NIONS =     80
   non local maximal  LDIM  =      6   non local SUM 2l+1 LMDIM =     18
   total plane-waves  NPLWV = 272160
   max r-space proj   IRMAX =   7032   max aug-charges    IRDMAX=  22591
   dimension x,y,z NGX =    36 NGY =  108 NGZ =   70
   dimension x,y,z NGXF=    72 NGYF=  216 NGZF=  140
   support grid    NGXF=    72 NGYF=  216 NGZF=  140
   ions per type =              14   2  20   2  40   2
   NGX,Y,Z   is equivalent  to a cutoff of  12.00, 12.43, 12.10 a.u.
   NGXF,Y,Z  is equivalent  to a cutoff of  24.00, 24.86, 24.19 a.u.

 SYSTEM =  unknown system                          
 POSCAR =  ce12_1                                  

 Startparameter for this run:
   NWRITE =      1    write-flag & timer
   PREC   = accura    normal or accurate (medium, high low for compatibility)
   ISTART =      0    job   : 0-new  1-cont  2-samecut
   ICHARG =      2    charge: 1-file 2-atom 10-const
   ISPIN  =      2    spin polarized calculation?
   LNONCOLLINEAR =      F non collinear calculations
   LSORBIT =      F    spin-orbit coupling
   INIWAV =      1    electr: 0-lowe 1-rand  2-diag
   LASPH  =      T    aspherical Exc in radial PAW
   METAGGA=      F    non-selfconsistent MetaGGA calc.

 Electronic Relaxation 1
   ENCUT  =  500.0 eV  36.75 Ry    6.06 a.u.   9.09 26.34 17.54*2*pi/ulx,y,z
   ENINI  =  500.0     initial cutoff
   ENAUG  =  628.9 eV  augmentation charge cutoff
   NELM   =   1000;   NELMIN=  2; NELMDL= -5     # of ELM steps 
   EDIFF  = 0.1E-04   stopping-criterion for ELM
   LREAL  =      T    real-space projection
   NLSPLINE    = F    spline interpolate recip. space projectors
   LCOMPAT=      F    compatible to vasp.4.4
   GGA_COMPAT  = T    GGA compatible to vasp.4.4-vasp.4.6
   LMAXPAW     = -100 max onsite density
   LMAXMIX     =    2 max onsite mixed and CHGCAR
   VOSKOWN=      1    Vosko Wilk Nusair interpolation
   ROPT   =   -0.00025  -0.00025  -0.00025  -0.00025
   ROPT   =   -0.00025  -0.00025
 Ionic relaxation
   EDIFFG = 0.1E-03   stopping-criterion for IOM
   NSW    =      0    number of steps for IOM
   NBLOCK =      1;   KBLOCK =      1    inner block; outer block 
   IBRION =     -1    ionic relax: 0-MD 1-quasi-New 2-CG
   NFREE  =      0    steps in history (QN), initial steepest desc. (CG)
   ISIF   =      2    stress and relaxation
   IWAVPR =     10    prediction:  0-non 1-charg 2-wave 3-comb
   ISYM   =      2    0-nonsym 1-usesym 2-fastsym
   LCORR  =      T    Harris-Foulkes like correction to forces

   POTIM  = 0.5000    time-step for ionic-motion
   TEIN   =    0.0    initial temperature
   TEBEG  =    0.0;   TEEND  =   0.0 temperature during run
   SMASS  =  -3.00    Nose mass-parameter (am)
   estimated Nose-frequenzy (Omega)   =  0.10E-29 period in steps =****** mass=  -0.568E-27a.u.
   SCALEE = 1.0000    scale energy and forces
   NPACO  =    256;   APACO  = 16.0  distance and # of slots for P.C.
   PSTRESS=    0.0 pullay stress

  Mass of Ions in am
   POMASS =  58.69180.95  7.01 54.94 16.00 58.93
  Ionic Valenz
   ZVAL   =  10.00 11.00  3.00 13.00  6.00  9.00
  Atomic Wigner-Seitz radii
   RWIGS  =   1.15  1.34  1.23  1.17  0.73  1.16
  virtual crystal weights 
   VCA    =   1.00  1.00  1.00  1.00  1.00  1.00
   NELECT =     506.0000    total number of electrons
   NUPDOWN=      -1.0000    fix difference up-down

 DOS related values:
   EMIN   =  10.00;   EMAX   =-10.00  energy-range for DOS
   EFERMI =   0.00
   ISMEAR =     0;   SIGMA  =   0.05  broadening in eV -4-tet -1-fermi 0-gaus

 Electronic relaxation 2 (details)
   IALGO  =     58    algorithm
   LDIAG  =      T    sub-space diagonalisation (order eigenvalues)
   LSUBROT=      F    optimize rotation matrix (better conditioning)
   TURBO    =      0    0=normal 1=particle mesh
   IRESTART =      0    0=no restart 2=restart with 2 vectors
   NREBOOT  =      0    no. of reboots
   NMIN     =      0    reboot dimension
   EREF     =   0.00    reference energy to select bands
   IMIX   =      4    mixing-type and parameters
     AMIX     =   0.40;   BMIX     =  1.00
     AMIX_MAG =   1.60;   BMIX_MAG =  1.00
     AMIN     =   0.10
     WC   =   100.;   INIMIX=   1;  MIXPRE=   1;  MAXMIX= -45

 Intra band minimization:
   WEIMIN = 0.0000     energy-eigenvalue tresh-hold
   EBREAK =  0.50E-08  absolut break condition
   DEPER  =   0.30     relativ break condition  

   TIME   =   0.20     timestep for ELM

  volume/ion in A,a.u.               =       8.53        57.59
  Fermi-wavevector in a.u.,A,eV,Ry     =   1.481509  2.799647 29.863014  2.194870
  Thomas-Fermi vector in A             =   2.595411
 
 Write flags
   LWAVE        =      F    write WAVECAR
   LDOWNSAMPLE  =      F    k-point downsampling of WAVECAR
   LCHARG       =      T    write CHGCAR
   LVTOT        =      F    write LOCPOT, total local potential
   LVHAR        =      F    write LOCPOT, Hartree potential only
   LELF         =      F    write electronic localiz. function (ELF)
   LORBIT       =      0    0 simple, 1 ext, 2 COOP (PROOUT), +10 PAW based schemes


 Dipole corrections
   LMONO  =      F    monopole corrections only (constant potential shift)
   LDIPOL =      F    correct potential (dipole corrections)
   IDIPOL =      0    1-x, 2-y, 3-z, 4-all directions 
   EPSILON=  1.0000000 bulk dielectric constant

 Exchange correlation treatment:
   GGA     =    PS    GGA type
   LEXCH   =    14    internal setting for exchange type
   VOSKOWN=      1    Vosko Wilk Nusair interpolation
   LHFCALC =     F    Hartree Fock is set to
   LHFONE  =     F    Hartree Fock one center treatment
   AEXX    =    0.0000 exact exchange contribution

 Linear response parameters
   LEPSILON=     F    determine dielectric tensor
   LRPA    =     F    only Hartree local field effects (RPA)
   LNABLA  =     F    use nabla operator in PAW spheres
   LVEL    =     F    velocity operator in full k-point grid
   LINTERFAST=   F  fast interpolation
   KINTER  =     0    interpolate to denser k-point grid
   CSHIFT  =0.1000    complex shift for real part using Kramers Kronig
   OMEGAMAX=  -1.0    maximum frequency
   DEG_THRESHOLD= 0.2000000E-02 threshold for treating states as degnerate
   RTIME   =   -0.100 relaxation time in fs
  (WPLASMAI=    0.000 imaginary part of plasma frequency in eV, 0.658/RTIME)
   DFIELD  = 0.0000000 0.0000000 0.0000000 field for delta impulse in time
 
 Orbital magnetization related:
   ORBITALMAG=     F  switch on orbital magnetization
   LCHIMAG   =     F  perturbation theory with respect to B field
   DQ        =  0.001000  dq finite difference perturbation B field
   LLRAUG    =     F  two centre corrections for induced B field



--------------------------------------------------------------------------------------------------------


 Static calculation
 charge density and potential will be updated during run
 spin polarized calculation
 Conjugate gradient for all bands (Freysoldt, et al. PRB 79, 241103 (2009))
 preconditioned conjugated gradient                                        
 perform sub-space diagonalisation
    before iterative eigenvector-optimisation
 modified Broyden-mixing scheme, WC =      100.0
 initial mixing is a Kerker type mixing with AMIX =  0.4000 and BMIX =      1.0000
 Hartree-type preconditioning will be used
 using additional bands          243
 real space projection scheme for non local part
 use partial core corrections
 no Harris-corrections to forces 
 use gradient corrections 
 use of overlap-Matrix (Vanderbilt PP)
 Gauss-broadening in eV      SIGMA  =   0.05


--------------------------------------------------------------------------------------------------------


  energy-cutoff  :      500.00
  volume of cell :      682.75
      direct lattice vectors                 reciprocal lattice vectors
     4.986974420  0.000000000  0.000000000     0.200522384  0.000000000  0.034951066
     0.000000000 14.445055330  0.000000000     0.000000000  0.069227841  0.000000000
    -1.651973730  0.000000000  9.477756990     0.000000000  0.000000000  0.105510196

  length of vectors
     4.986974420 14.445055330  9.620649394     0.203545581  0.069227841  0.105510196


 
 k-points in units of 2pi/SCALE and weight: Automatic mesh                          
   0.00000000  0.00000000  0.00000000       0.111
   0.06684079  0.00000000  0.01165036       0.222
   0.00000000  0.00000000  0.03517007       0.222
   0.06684079  0.00000000  0.04682042       0.222
  -0.06684079  0.00000000  0.02351971       0.222
 
 k-points in reciprocal lattice and weights: Automatic mesh                          
   0.00000000  0.00000000  0.00000000       0.111
   0.33333333  0.00000000  0.00000000       0.222
   0.00000000  0.00000000  0.33333333       0.222
   0.33333333  0.00000000  0.33333333       0.222
  -0.33333333  0.00000000  0.33333333       0.222
 
 position of ions in fractional coordinates (direct lattice) 
   0.00000000  0.39588308  0.00000000
   0.00000000  0.59535196  0.00000000
   0.50000000  0.90472827  0.00000000
   0.50000000  0.10155388  0.00000000
   0.00000000  0.90495052  0.50000000
   0.00000000  0.10086442  0.50000000
   0.50000000  0.39853105  0.50000000
   0.50000000  0.59578208  0.50000000
   0.00000000  0.80524186  0.00000000
   0.00000000  0.19694889  0.00000000
   0.50000000  0.29911250  0.00000000
   0.00000000  0.30120817  0.50000000
   0.50000000  0.80538123  0.50000000
   0.50000000  0.19908173  0.50000000
   0.50000000  0.70355189  0.00000000
   0.00000000  0.70089591  0.50000000
   0.74967126  0.99949114  0.25696253
   0.25032874  0.99949114  0.74303747
   0.23951418  0.49686511  0.25088758
   0.76048582  0.49686511  0.74911242
   0.74891382  0.40221951  0.25286011
   0.25108618  0.40221951  0.74713989
   0.24922733  0.59081369  0.74955302
   0.75077267  0.59081369  0.25044698
   0.25431537  0.89827097  0.25488032
   0.74568463  0.89827097  0.74511968
   0.75137445  0.10067959  0.75005885
   0.24862555  0.10067959  0.24994115
   0.24407453  0.30414460  0.24555372
   0.75592547  0.30414460  0.75444628
   0.74995836  0.69866993  0.74910527
   0.25004164  0.69866993  0.25089473
   0.74939971  0.81089098  0.25360546
   0.25060029  0.81089098  0.74639454
   0.23855737  0.20060295  0.74956265
   0.76144263  0.20060295  0.25043735
   0.00000000  0.00254104  0.00000000
   0.50000000  0.49211673  0.00000000
   0.35885262  0.00826269  0.10871607
   0.64114738  0.00826269  0.89128393
   0.84985882  0.49647360  0.11403631
   0.15014118  0.49647360  0.88596369
   0.13910472  0.00958302  0.39210871
   0.86089528  0.00958302  0.60789129
   0.64038634  0.49210759  0.39448798
   0.35961366  0.49210759  0.60551202
   0.38478902  0.40413757  0.11811286
   0.61521098  0.40413757  0.88188714
   0.61193235  0.59601661  0.88407372
   0.38806765  0.59601661  0.11592628
   0.88565673  0.91128365  0.11701122
   0.11434327  0.91128365  0.88298878
   0.10983060  0.10093439  0.88663977
   0.89016940  0.10093439  0.11336023
   0.11511490  0.40078211  0.38477759
   0.88488510  0.40078211  0.61522241
   0.88897372  0.59487468  0.61731218
   0.11102628  0.59487468  0.38268782
   0.61912888  0.90917464  0.38568621
   0.38087112  0.90917464  0.61431379
   0.35546976  0.09888337  0.60998586
   0.64453024  0.09888337  0.39001414
   0.88719508  0.28859930  0.11381022
   0.11280492  0.28859930  0.88618978
   0.13413449  0.70052486  0.88243179
   0.86586551  0.70052486  0.11756821
   0.38248830  0.79743421  0.12382697
   0.61751170  0.79743421  0.87617303
   0.64387499  0.19439103  0.89309007
   0.35612501  0.19439103  0.10690993
   0.64471150  0.30265679  0.39414428
   0.35528850  0.30265679  0.60585572
   0.36619949  0.69880356  0.61870589
   0.63380051  0.69880356  0.38129411
   0.11656143  0.79558009  0.37628181
   0.88343857  0.79558009  0.62371819
   0.86442776  0.19598339  0.60662459
   0.13557224  0.19598339  0.39337541
   0.00000000  0.49395951  0.50000000
   0.50000000  0.00404396  0.50000000
 
 position of ions in cartesian coordinates  (Angst):
   0.00000000  5.71855299  0.00000000
   0.00000000  8.59989200  0.00000000
   2.49348721 13.06884992  0.00000000
   2.49348721  1.46695142  0.00000000
  -0.82598686 13.07206033  4.73887849
  -0.82598686  1.45699213  4.73887849
   1.66750035  5.75680307  4.73887849
   1.66750035  8.60610511  4.73887849
   0.00000000 11.63176322  0.00000000
   0.00000000  2.84493761  0.00000000
   2.49348721  4.32069661  0.00000000
  -0.82598686  4.35096868  4.73887849
   1.66750035 11.63377643  4.73887849
   1.66750035  2.87574661  4.73887849
   2.49348721 10.16284598  0.00000000
  -0.82598686 10.12448020  4.73887849
   3.31409605 14.43770482  2.43542841
   0.02090464 14.43770482  7.04232858
   0.77999140  7.17724401  2.37785152
   2.55500929  7.17724401  7.09990547
   3.31709580  5.81008308  2.39654668
   0.01790489  5.81008308  7.08121031
   0.00464842  8.53433644  7.10408137
   3.33035227  8.53433644  2.37367562
   0.84720865 12.97557386  2.41569373
   2.48779204 12.97557386  7.06206326
   2.50800765  1.45432225  7.10887551
   0.82699304  1.45432225  2.36888148
   0.81154514  4.39338558  2.32729849
   2.52345555  4.39338558  7.15045850
   2.50252093 10.09232580  7.09983771
   0.83247976 10.09232580  2.37791928
   3.31828763 11.71336507  2.40361092
   0.01671306 11.71336507  7.07414607
  -0.04857830  2.89772071  7.10417265
   3.38357899  2.89772071  2.37358434
   0.00000000  0.03670546  0.00000000
   2.49348721  7.10865339  0.00000000
   1.60999274  0.11935501  1.03038449
   1.72500795  0.11935501  8.44737250
   4.04983921  7.17158862  1.08080843
  -0.71483852  7.17158862  8.39694856
   0.04595839  0.13842725  3.71631107
   3.28904230  0.13842725  5.76144592
   2.54190652  7.10852137  3.73886121
   0.79309417  7.10852137  5.73889578
   1.72381366  5.83778956  1.11944498
   1.61118703  5.83778956  8.35831201
   1.59122442  8.60949291  8.37903588
   1.74377627  8.60949291  1.09872111
   4.22344800 13.16354275  1.10900391
  -0.88844731 13.16354275  8.36875308
  -0.91698322  1.45800285  8.40335628
   4.25198391  1.45800285  1.07440071
  -0.06156741  5.78931975  3.64682849
   3.39656810  5.78931975  5.83092850
   3.41350570  8.59299767  5.85073483
  -0.07850501  8.59299767  3.62702216
   2.45043640 13.13307798  3.65544017
   0.88456429 13.13307798  5.82231682
   0.76503798  1.42837575  5.78129775
   2.56996271  1.42837575  3.69645924
   4.23640768  4.16883286  1.07866561
  -0.90140699  4.16883286  8.39909138
  -0.78882887 10.11912036  8.36347407
   4.12382956 10.11912036  1.11428292
   1.70290047 11.51898129  1.17360193
   1.63210022 11.51898129  8.30415506
   1.73562677  2.80798918  8.46449065
   1.59937392  2.80798918  1.01326634
   2.56404376  4.37189408  3.73560370
   0.77095693  4.37189408  5.74215329
   0.80414161 10.09425609  5.86394407
   2.53085908 10.09425609  3.61381292
  -0.04031880 11.49219842  3.56630755
   3.37531949 11.49219842  5.91144944
   3.30875124  2.83099091  5.74944045
   0.02624945  2.83099091  3.72831654
  -0.82598686  7.13527245  4.73887849
   1.66750035  0.05841523  4.73887849
 


--------------------------------------------------------------------------------------------------------


 k-point  1 :   0.0000 0.0000 0.0000  plane waves:   17285
 k-point  2 :   0.3333 0.0000 0.0000  plane waves:   17372
 k-point  3 :   0.0000 0.0000 0.3333  plane waves:   17292
 k-point  4 :   0.3333 0.0000 0.3333  plane waves:   17333
 k-point  5 :  -0.3333 0.0000 0.3333  plane waves:   17337

 maximum and minimum number of plane-waves per node :     17372    17285

 maximum number of plane-waves:     17372
 maximum index in each direction: 
   IXMAX=    9   IYMAX=   26   IZMAX=   17
   IXMIN=   -9   IYMIN=  -26   IZMIN=  -17

 The following grids will avoid any aliasing or wrap around errors in the Hartre
 e energy
  - symmetry arguments have not been applied
  - exchange correlation energies might require even more grid points
  - we recommend to set PREC=Normal or Accurate and rely on VASP defaults
 WARNING: aliasing errors must be expected set NGX to    40 to avoid them
 NGY is ok and might be reduce to   108
 NGZ is ok and might be reduce to    70

 serial   3D FFT for wavefunctions
 parallel 3D FFT for charge:
    minimum data exchange during FFTs selected (reduces bandwidth)


 total amount of memory used by VASP MPI-rank0   402072. kBytes
=======================================================================

   base      :      30000. kBytes
   nonlr-proj:      34300. kBytes
   fftplans  :       6155. kBytes
   grid      :      58910. kBytes
   one-center:       2488. kBytes
   wavefun   :     270219. kBytes
 
     INWAV:  cpu time    0.0000: real time    0.0000
 Broyden mixing: mesh for mixing (old mesh)
   NGX = 19   NGY = 53   NGZ = 35
  (NGX  = 72   NGY  =216   NGZ  =140)
  gives a total of  35245 points

 initial charge density was supplied:
 charge density of overlapping atoms calculated
 number of electron     506.0000000 magnetization      53.0000000
 keeping initial charge density in first step


--------------------------------------------------------------------------------------------------------


 Maximum index for non-local projection operator         6789
 Maximum index for augmentation-charges         1812 (set IRDMAX)


--------------------------------------------------------------------------------------------------------


 First call to EWALD:  gamma=   0.201
 Maximum number of real-space cells 5x 2x 3
 Maximum number of reciprocal cells 2x 4x 3

    FEWALD:  cpu time    0.0028: real time    0.0028


--------------------------------------- Iteration      1(   1)  ---------------------------------------


    POTLOK:  cpu time    0.2297: real time    0.2297
    SETDIJ:  cpu time    1.8980: real time    1.8980
    TRIAL :  cpu time   35.7409: real time   35.7560
    CORREC:  cpu time    0.0005: real time    0.0005
    --------------------------------------------
      LOOP:  cpu time   37.9079: real time   37.9242

 eigenvalue-minimisations  :  9920
 total energy-change (2. order) : 0.6957145E+04  (-0.2291894E+05)
 number of electron     506.0000000 magnetization      53.0000000
 augmentation part      506.0000000 magnetization      53.0000000

 Free energy of the ion-electron system (eV)
  ---------------------------------------------------
  alpha Z        PSCENC =      1845.60443856
  Ewald energy   TEWEN  =    -32553.28372598
  -Hartree energ DENC   =    -12044.33839674
  -exchange      EXHF   =         0.00000000
  -V(xc)+E(xc)   XCENC  =      -194.71946059
  PAW double counting   =     35994.26752985   -37810.23395232
  entropy T*S    EENTRO =        -0.01266940
  eigenvalues    EBANDS =      7625.50003190
  atomic energy  EATOM  =     44094.36131501
  ---------------------------------------------------
  free energy    TOTEN  =      6957.14511030 eV

  energy without entropy =     6957.15777970  energy(sigma->0) =     6957.15144500


--------------------------------------------------------------------------------------------------------




--------------------------------------- Iteration      1(   2)  ---------------------------------------


    TRIAL :  cpu time   35.4829: real time   35.4835
    CORREC:  cpu time    0.0005: real time    0.0005
    --------------------------------------------
      LOOP:  cpu time   35.4836: real time   35.4842

 eigenvalue-minimisations  :  9920
 total energy-change (2. order) :-0.4884533E+04  (-0.4349882E+04)
 number of electron     506.0000000 magnetization      53.0000000
 augmentation part      506.0000000 magnetization      53.0000000

 Free energy of the ion-electron system (eV)
  ---------------------------------------------------
  alpha Z        PSCENC =      1845.60443856
  Ewald energy   TEWEN  =    -32553.28372598
  -Hartree energ DENC   =    -12044.33839674
  -exchange      EXHF   =         0.00000000
  -V(xc)+E(xc)   XCENC  =      -194.71946059
  PAW double counting   =     35994.26752985   -37810.23395232
  entropy T*S    EENTRO =        -0.03009178
  eigenvalues    EBANDS =      2740.98473244
  atomic energy  EATOM  =     44094.36131501
  ---------------------------------------------------
  free energy    TOTEN  =      2072.61238847 eV

  energy without entropy =     2072.64248024  energy(sigma->0) =     2072.62743435


--------------------------------------------------------------------------------------------------------




--------------------------------------- Iteration      1(   3)  ---------------------------------------


    TRIAL :  cpu time   37.5464: real time   37.5473
    CORREC:  cpu time    0.0005: real time    0.0005
    --------------------------------------------
      LOOP:  cpu time   37.5470: real time   37.5479

 eigenvalue-minimisations  : 10688
 total energy-change (2. order) :-0.7229611E+03  (-0.6438832E+03)
 number of electron     506.0000000 magnetization      53.0000000
 augmentation part      506.0000000 magnetization      53.0000000

 Free energy of the ion-electron system (eV)
  ---------------------------------------------------
  alpha Z        PSCENC =      1845.60443856
  Ewald energy   TEWEN  =    -32553.28372598
  -Hartree energ DENC   =    -12044.33839674
  -exchange      EXHF   =         0.00000000
  -V(xc)+E(xc)   XCENC  =      -194.71946059
  PAW double counting   =     35994.26752985   -37810.23395232
  entropy T*S    EENTRO =        -0.04242693
  eigenvalues    EBANDS =      2018.03593027
  atomic energy  EATOM  =     44094.36131501
  ---------------------------------------------------
  free energy    TOTEN  =      1349.65125114 eV

  energy without entropy =     1349.69367807  energy(sigma->0) =     1349.67246461


--------------------------------------------------------------------------------------------------------




--------------------------------------- Iteration      1(   4)  ---------------------------------------


    TRIAL :  cpu time   38.3800: real time   38.3806
    CORREC:  cpu time    0.0005: real time    0.0005
    --------------------------------------------
      LOOP:  cpu time   38.3806: real time   38.3812

 eigenvalue-minimisations  : 11280
 total energy-change (2. order) :-0.3622439E+02  (-0.3561717E+02)
 number of electron     506.0000000 magnetization      53.0000000
 augmentation part      506.0000000 magnetization      53.0000000

 Free energy of the ion-electron system (eV)
  ---------------------------------------------------
  alpha Z        PSCENC =      1845.60443856
  Ewald energy   TEWEN  =    -32553.28372598
  -Hartree energ DENC   =    -12044.33839674
  -exchange      EXHF   =         0.00000000
  -V(xc)+E(xc)   XCENC  =      -194.71946059
  PAW double counting   =     35994.26752985   -37810.23395232
  entropy T*S    EENTRO =        -0.04245178
  eigenvalues    EBANDS =      1981.81156774
  atomic energy  EATOM  =     44094.36131501
  ---------------------------------------------------
  free energy    TOTEN  =      1313.42686376 eV

  energy without entropy =     1313.46931553  energy(sigma->0) =     1313.44808965


--------------------------------------------------------------------------------------------------------




--------------------------------------- Iteration      1(   5)  ---------------------------------------


    TRIAL :  cpu time   43.1186: real time   43.1192
    CORREC:  cpu time    0.0005: real time    0.0005
    CHARGE:  cpu time    4.6252: real time    4.6252
    --------------------------------------------
      LOOP:  cpu time   47.7444: real time   47.7451

 eigenvalue-minimisations  : 13520
 total energy-change (2. order) :-0.8967595E+00  (-0.8960729E+00)
 number of electron     506.0000233 magnetization      16.4478294
 augmentation part      195.1246384 magnetization      12.4021319

 Free energy of the ion-electron system (eV)
  ---------------------------------------------------
  alpha Z        PSCENC =      1845.60443856
  Ewald energy   TEWEN  =    -32553.28372598
  -Hartree energ DENC   =    -12044.33839674
  -exchange      EXHF   =         0.00000000
  -V(xc)+E(xc)   XCENC  =      -194.71946059
  PAW double counting   =     35994.26752985   -37810.23395232
  entropy T*S    EENTRO =        -0.04238648
  eigenvalues    EBANDS =      1980.91474291
  atomic energy  EATOM  =     44094.36131501
  ---------------------------------------------------
  free energy    TOTEN  =      1312.53010423 eV

  energy without entropy =     1312.57249071  energy(sigma->0) =     1312.55129747


--------------------------------------------------------------------------------------------------------




--------------------------------------- Iteration      1(   6)  ---------------------------------------


    POTLOK:  cpu time    0.2216: real time    0.2216
    SETDIJ:  cpu time    1.9485: real time    1.9485
    TRIAL :  cpu time   28.7855: real time   28.7859
    CORREC:  cpu time   14.4613: real time   14.4615
    CHARGE:  cpu time    4.6173: real time    4.6173
    --------------------------------------------
      LOOP:  cpu time   50.0344: real time   50.0350

 eigenvalue-minimisations  :     0
 total energy-change (2. order) :-0.2501264E+04  (-0.3042019E+03)
 number of electron     506.0000220 magnetization      23.9325514
 augmentation part      190.3831951 magnetization      16.2725497

 Free energy of the ion-electron system (eV)
  ---------------------------------------------------
  alpha Z        PSCENC =      1845.60443856
  Ewald energy   TEWEN  =    -32553.28372598
  -Hartree energ DENC   =    -12825.15442909
  -exchange      EXHF   =         0.00000000
  -V(xc)+E(xc)   XCENC  =      1045.41165849
  PAW double counting   =     61728.59327673   -63898.02098509
  entropy T*S    EENTRO =        -0.03692159
  eigenvalues    EBANDS =      -626.20300971
  atomic energy  EATOM  =     44094.36131501
  ---------------------------------------------------
  free energy    TOTEN  =     -1188.73384755 eV

  energy without entropy =    -1188.69692596  energy(sigma->0) =    -1188.71538676


--------------------------------------------------------------------------------------------------------




--------------------------------------- Iteration      1(   7)  ---------------------------------------


    POTLOK:  cpu time    0.2221: real time    0.2221
    SETDIJ:  cpu time    1.9490: real time    1.9490
    TRIAL :  cpu time   28.7964: real time   28.7966
    CORREC:  cpu time   14.4485: real time   14.4486
    CHARGE:  cpu time    4.6147: real time    4.6148
    --------------------------------------------
      LOOP:  cpu time   50.0311: real time   50.0315

 eigenvalue-minimisations  :     0
 total energy-change (2. order) :-0.2896336E+03  (-0.2971548E+03)
 number of electron     506.0000201 magnetization      31.2693258
 augmentation part      178.4638920 magnetization      22.0877077

 Free energy of the ion-electron system (eV)
  ---------------------------------------------------
  alpha Z        PSCENC =      1845.60443856
  Ewald energy   TEWEN  =    -32553.28372598
  -Hartree energ DENC   =    -12518.85895009
  -exchange      EXHF   =         0.00000000
  -V(xc)+E(xc)   XCENC  =      1082.16024460
  PAW double counting   =     59424.38967718   -61431.59190055
  entropy T*S    EENTRO =        -0.05943740
  eigenvalues    EBANDS =     -1421.11161314
  atomic energy  EATOM  =     44094.36131501
  ---------------------------------------------------
  free energy    TOTEN  =     -1478.36743600 eV

  energy without entropy =    -1478.30799860  energy(sigma->0) =    -1478.33771730


--------------------------------------------------------------------------------------------------------




--------------------------------------- Iteration      1(   8)  ---------------------------------------


    POTLOK:  cpu time    0.2218: real time    0.2218
    SETDIJ:  cpu time    1.9473: real time    1.9473
    TRIAL :  cpu time   28.8228: real time   28.8231
    CORREC:  cpu time   14.4611: real time   14.4612
    CHARGE:  cpu time    4.6113: real time    4.6113
    --------------------------------------------
      LOOP:  cpu time   50.0645: real time   50.0650

 eigenvalue-minimisations  :     0
 total energy-change (2. order) :-0.3194770E+03  (-0.7710020E+02)
 number of electron     506.0000193 magnetization      31.9866307
 augmentation part      175.1448059 magnetization      23.1234826

 Free energy of the ion-electron system (eV)
  ---------------------------------------------------
  alpha Z        PSCENC =      1845.60443856
  Ewald energy   TEWEN  =    -32553.28372598
  -Hartree energ DENC   =    -11513.85631273
  -exchange      EXHF   =         0.00000000
  -V(xc)+E(xc)   XCENC  =      1181.29564281
  PAW double counting   =     55412.98719425   -57075.05546829
  entropy T*S    EENTRO =        -0.02295339
  eigenvalues    EBANDS =     -3189.83807304
  atomic energy  EATOM  =     44094.36131501
  ---------------------------------------------------
  free energy    TOTEN  =     -1797.84442680 eV

  energy without entropy =    -1797.82147341  energy(sigma->0) =    -1797.83295010


--------------------------------------------------------------------------------------------------------




--------------------------------------- Iteration      1(   9)  ---------------------------------------


    POTLOK:  cpu time    0.2218: real time    0.2218
    SETDIJ:  cpu time    1.9511: real time    1.9512
    TRIAL :  cpu time   28.7823: real time   28.7824
    CORREC:  cpu time   14.4542: real time   14.4543
    CHARGE:  cpu time    4.6084: real time    4.6084
    --------------------------------------------
      LOOP:  cpu time   50.0180: real time   50.0184

 eigenvalue-minimisations  :     0
 total energy-change (2. order) : 0.5073644E+01  (-0.2799915E+02)
 number of electron     506.0000193 magnetization      26.6462876
 augmentation part      174.9884569 magnetization      20.3032788

 Free energy of the ion-electron system (eV)
  ---------------------------------------------------
  alpha Z        PSCENC =      1845.60443856
  Ewald energy   TEWEN  =    -32553.28372598
  -Hartree energ DENC   =    -11360.48863283
  -exchange      EXHF   =         0.00000000
  -V(xc)+E(xc)   XCENC  =      1214.93679900
  PAW double counting   =     54253.41061783   -55844.80664860
  entropy T*S    EENTRO =        -0.03039990
  eigenvalues    EBANDS =     -3442.48199225
  atomic energy  EATOM  =     44094.36131501
  ---------------------------------------------------
  free energy    TOTEN  =     -1792.77078264 eV

  energy without entropy =    -1792.74038274  energy(sigma->0) =    -1792.75558269


--------------------------------------------------------------------------------------------------------




--------------------------------------- Iteration      1(  10)  ---------------------------------------


    POTLOK:  cpu time    0.2215: real time    0.2215
    SETDIJ:  cpu time    1.9442: real time    1.9442
    TRIAL :  cpu time   28.7755: real time   28.7756
    CORREC:  cpu time   14.4501: real time   14.4502
    CHARGE:  cpu time    4.6271: real time    4.6272
    --------------------------------------------
      LOOP:  cpu time   50.0187: real time   50.0190

 eigenvalue-minimisations  :     0
 total energy-change (2. order) :-0.8659194E+02  (-0.7829504E+02)
 number of electron     506.0000197 magnetization      29.0614721
 augmentation part      177.0079454 magnetization      22.5363868

 Free energy of the ion-electron system (eV)
  ---------------------------------------------------
  alpha Z        PSCENC =      1845.60443856
  Ewald energy   TEWEN  =    -32553.28372598
  -Hartree energ DENC   =    -11259.79911194
  -exchange      EXHF   =         0.00000000
  -V(xc)+E(xc)   XCENC  =      1219.66053430
  PAW double counting   =     53692.25094528   -55291.11932103
  entropy T*S    EENTRO =        -0.05717019
  eigenvalues    EBANDS =     -3627.00739842
  atomic energy  EATOM  =     44094.36131501
  ---------------------------------------------------
  free energy    TOTEN  =     -1879.36272411 eV

  energy without entropy =    -1879.30555392  energy(sigma->0) =    -1879.33413901


--------------------------------------------------------------------------------------------------------




--------------------------------------- Iteration      1(  11)  ---------------------------------------


    POTLOK:  cpu time    0.2219: real time    0.2219
    SETDIJ:  cpu time    1.9554: real time    1.9555
    TRIAL :  cpu time   28.7784: real time   28.7785
    CORREC:  cpu time   14.4478: real time   14.4479
    CHARGE:  cpu time    4.6092: real time    4.6092
    --------------------------------------------
      LOOP:  cpu time   50.0129: real time   50.0133

 eigenvalue-minimisations  :     0
 total energy-change (2. order) :-0.6948779E+02  (-0.2941001E+02)
 number of electron     506.0000196 magnetization      26.6910208
 augmentation part      177.3563744 magnetization      21.3789788

 Free energy of the ion-electron system (eV)
  ---------------------------------------------------
  alpha Z        PSCENC =      1845.60443856
  Ewald energy   TEWEN  =    -32553.28372598
  -Hartree energ DENC   =    -11865.77026464
  -exchange      EXHF   =         0.00000000
  -V(xc)+E(xc)   XCENC  =      1241.42161116
  PAW double counting   =     52525.72628579   -54319.50300218
  entropy T*S    EENTRO =        -0.04397721
  eigenvalues    EBANDS =     -2917.35000517
  atomic energy  EATOM  =     44094.36131501
  ---------------------------------------------------
  free energy    TOTEN  =     -1948.85051762 eV

  energy without entropy =    -1948.80654042  energy(sigma->0) =    -1948.82852902


--------------------------------------------------------------------------------------------------------




--------------------------------------- Iteration      1(  12)  ---------------------------------------


    POTLOK:  cpu time    0.2218: real time    0.2218
    SETDIJ:  cpu time    1.9518: real time    1.9518
    TRIAL :  cpu time   28.8048: real time   28.8050
    CORREC:  cpu time   14.4471: real time   14.4472
    CHARGE:  cpu time    4.6020: real time    4.6021
    --------------------------------------------
      LOOP:  cpu time   50.0277: real time   50.0281

 eigenvalue-minimisations  :     0
 total energy-change (2. order) :-0.3584782E+01  (-0.2219934E+02)
 number of electron     506.0000197 magnetization      26.0066966
 augmentation part      176.8760256 magnetization      21.2019261

 Free energy of the ion-electron system (eV)
  ---------------------------------------------------
  alpha Z        PSCENC =      1845.60443856
  Ewald energy   TEWEN  =    -32553.28372598
  -Hartree energ DENC   =    -12090.94735611
  -exchange      EXHF   =         0.00000000
  -V(xc)+E(xc)   XCENC  =      1255.21437498
  PAW double counting   =     52685.90166956   -54575.34906356
  entropy T*S    EENTRO =        -0.02797884
  eigenvalues    EBANDS =     -2613.89297449
  atomic energy  EATOM  =     44094.36131501
  ---------------------------------------------------
  free energy    TOTEN  =     -1952.43529922 eV

  energy without entropy =    -1952.40732038  energy(sigma->0) =    -1952.42130980


--------------------------------------------------------------------------------------------------------




--------------------------------------- Iteration      1(  13)  ---------------------------------------


    POTLOK:  cpu time    0.2217: real time    0.2217
    SETDIJ:  cpu time    1.9521: real time    1.9521
    TRIAL :  cpu time   28.7945: real time   28.7948
    CORREC:  cpu time   14.4580: real time   14.4581
    CHARGE:  cpu time    4.6070: real time    4.6071
    --------------------------------------------
      LOOP:  cpu time   50.0337: real time   50.0341

 eigenvalue-minimisations  :     0
 total energy-change (2. order) :-0.6410268E+01  (-0.2239922E+02)
 number of electron     506.0000193 magnetization      26.1101868
 augmentation part      173.9941622 magnetization      21.2411944

 Free energy of the ion-electron system (eV)
  ---------------------------------------------------
  alpha Z        PSCENC =      1845.60443856
  Ewald energy   TEWEN  =    -32553.28372598
  -Hartree energ DENC   =    -12252.23252734
  -exchange      EXHF   =         0.00000000
  -V(xc)+E(xc)   XCENC  =      1272.27352387
  PAW double counting   =     53190.37338787   -55153.44734019
  entropy T*S    EENTRO =        -0.00840150
  eigenvalues    EBANDS =     -2402.46666020
  atomic energy  EATOM  =     44094.36131501
  ---------------------------------------------------
  free energy    TOTEN  =     -1958.84556723 eV

  energy without entropy =    -1958.83716573  energy(sigma->0) =    -1958.84136648


--------------------------------------------------------------------------------------------------------




--------------------------------------- Iteration      1(  14)  ---------------------------------------


    POTLOK:  cpu time    0.2217: real time    0.2217
    SETDIJ:  cpu time    1.9470: real time    1.9470
    TRIAL :  cpu time   28.8164: real time   28.8166
    CORREC:  cpu time   14.4623: real time   14.4624
    CHARGE:  cpu time    4.6089: real time    4.6089
    --------------------------------------------
      LOOP:  cpu time   50.0564: real time   50.0568

 eigenvalue-minimisations  :     0
 total energy-change (2. order) :-0.1985399E+02  (-0.7141978E+01)
 number of electron     506.0000192 magnetization      26.9875926
 augmentation part      172.7249426 magnetization      21.7527522

 Free energy of the ion-electron system (eV)
  ---------------------------------------------------
  alpha Z        PSCENC =      1845.60443856
  Ewald energy   TEWEN  =    -32553.28372598
  -Hartree energ DENC   =    -12167.74605046
  -exchange      EXHF   =         0.00000000
  -V(xc)+E(xc)   XCENC  =      1294.63295413
  PAW double counting   =     52971.22805766   -54918.74618678
  entropy T*S    EENTRO =        -0.03286964
  eigenvalues    EBANDS =     -2544.74195508
  atomic energy  EATOM  =     44094.36131501
  ---------------------------------------------------
  free energy    TOTEN  =     -1978.69955442 eV

  energy without entropy =    -1978.66668478  energy(sigma->0) =    -1978.68311960


--------------------------------------------------------------------------------------------------------




--------------------------------------- Iteration      1(  15)  ---------------------------------------


    POTLOK:  cpu time    0.2214: real time    0.2214
    SETDIJ:  cpu time    1.9470: real time    1.9470
    TRIAL :  cpu time   28.7952: real time   28.7954
    CORREC:  cpu time   14.4623: real time   14.4624
    CHARGE:  cpu time    4.6065: real time    4.6065
    --------------------------------------------
      LOOP:  cpu time   50.0326: real time   50.0329

 eigenvalue-minimisations  :     0
 total energy-change (2. order) :-0.1220445E+02  (-0.2410640E+02)
 number of electron     506.0000189 magnetization      27.2274423
 augmentation part      170.5164420 magnetization      21.6804492

 Free energy of the ion-electron system (eV)
  ---------------------------------------------------
  alpha Z        PSCENC =      1845.60443856
  Ewald energy   TEWEN  =    -32553.28372598
  -Hartree energ DENC   =    -12101.68989229
  -exchange      EXHF   =         0.00000000
  -V(xc)+E(xc)   XCENC  =      1300.86832108
  PAW double counting   =     52675.01039623   -54596.23129196
  entropy T*S    EENTRO =        -0.04291811
  eigenvalues    EBANDS =     -2655.51069274
  atomic energy  EATOM  =     44094.36131501
  ---------------------------------------------------
  free energy    TOTEN  =     -1990.90400172 eV

  energy without entropy =    -1990.86108361  energy(sigma->0) =    -1990.88254266


--------------------------------------------------------------------------------------------------------




--------------------------------------- Iteration      1(  16)  ---------------------------------------


    POTLOK:  cpu time    0.2215: real time    0.2215
    SETDIJ:  cpu time    1.9550: real time    1.9551
    TRIAL :  cpu time   28.8588: real time   28.8605
    CORREC:  cpu time   14.6034: real time   14.6064
    CHARGE:  cpu time    4.6467: real time    4.6468
    --------------------------------------------
      LOOP:  cpu time   50.2857: real time   50.2906

 eigenvalue-minimisations  :     0
 total energy-change (2. order) :-0.2470685E+02  (-0.1625852E+02)
 number of electron     506.0000186 magnetization      26.6208049
 augmentation part      168.3684385 magnetization      20.9828756

 Free energy of the ion-electron system (eV)
  ---------------------------------------------------
  alpha Z        PSCENC =      1845.60443856
  Ewald energy   TEWEN  =    -32553.28372598
  -Hartree energ DENC   =    -11880.72890388
  -exchange      EXHF   =         0.00000000
  -V(xc)+E(xc)   XCENC  =      1304.22929068
  PAW double counting   =     51779.20505280   -53626.42591683
  entropy T*S    EENTRO =        -0.02387717
  eigenvalues    EBANDS =     -2978.52948013
  atomic energy  EATOM  =     44094.36131501
  ---------------------------------------------------
  free energy    TOTEN  =     -2015.61084787 eV

  energy without entropy =    -2015.58697070  energy(sigma->0) =    -2015.59890928


--------------------------------------------------------------------------------------------------------




--------------------------------------- Iteration      1(  17)  ---------------------------------------


    POTLOK:  cpu time    0.2236: real time    0.2236
    SETDIJ:  cpu time    2.0803: real time    2.0804
    TRIAL :  cpu time   31.1983: real time   31.2487
    CORREC:  cpu time   17.7555: real time   17.7587
    CHARGE:  cpu time    5.7569: real time    5.7581
    --------------------------------------------
      LOOP:  cpu time   57.0150: real time   57.0698

 eigenvalue-minimisations  :     0
 total energy-change (2. order) :-0.1489990E+02  (-0.7532181E+01)
 number of electron     506.0000185 magnetization      26.0000603
 augmentation part      167.7947974 magnetization      20.4641431

 Free energy of the ion-electron system (eV)
  ---------------------------------------------------
  alpha Z        PSCENC =      1845.60443856
  Ewald energy   TEWEN  =    -32553.28372598
  -Hartree energ DENC   =    -11676.36108981
  -exchange      EXHF   =         0.00000000
  -V(xc)+E(xc)   XCENC  =      1306.77848531
  PAW double counting   =     51155.33801000   -52936.36280702
  entropy T*S    EENTRO =        -0.01814034
  eigenvalues    EBANDS =     -3266.56150065
  atomic energy  EATOM  =     44094.36131501
  ---------------------------------------------------
  free energy    TOTEN  =     -2030.51075173 eV

  energy without entropy =    -2030.49261139  energy(sigma->0) =    -2030.50168156


--------------------------------------------------------------------------------------------------------




--------------------------------------- Iteration      1(  18)  ---------------------------------------


    POTLOK:  cpu time    0.4042: real time    0.4042
    SETDIJ:  cpu time    3.0481: real time    3.0481
    TRIAL :  cpu time   40.6996: real time   40.7093
    CORREC:  cpu time   14.4366: real time   14.4367
    CHARGE:  cpu time    4.6202: real time    4.6202
    --------------------------------------------
      LOOP:  cpu time   63.2090: real time   63.2189

 eigenvalue-minimisations  :     0
 total energy-change (2. order) :-0.6381026E+01  (-0.7278926E+01)
 number of electron     506.0000186 magnetization      26.1236965
 augmentation part      168.7068246 magnetization      20.4798441

 Free energy of the ion-electron system (eV)
  ---------------------------------------------------
  alpha Z        PSCENC =      1845.60443856
  Ewald energy   TEWEN  =    -32553.28372598
  -Hartree energ DENC   =    -11616.93978471
  -exchange      EXHF   =         0.00000000
  -V(xc)+E(xc)   XCENC  =      1305.56430838
  PAW double counting   =     50991.82477091   -52759.67006979
  entropy T*S    EENTRO =        -0.02649950
  eigenvalues    EBANDS =     -3344.33488952
  atomic energy  EATOM  =     44094.36131501
  ---------------------------------------------------
  free energy    TOTEN  =     -2036.89177747 eV

  energy without entropy =    -2036.86527797  energy(sigma->0) =    -2036.87852772


--------------------------------------------------------------------------------------------------------




--------------------------------------- Iteration      1(  19)  ---------------------------------------


    POTLOK:  cpu time    0.2224: real time    0.2224
    SETDIJ:  cpu time    1.9477: real time    1.9477
    TRIAL :  cpu time   28.7291: real time   28.7293
    CORREC:  cpu time   14.4346: real time   14.4347
    CHARGE:  cpu time    4.6023: real time    4.6023
    --------------------------------------------
      LOOP:  cpu time   49.9363: real time   49.9366

 eigenvalue-minimisations  :     0
 total energy-change (2. order) :-0.6927148E+01  (-0.3126625E+01)
 number of electron     506.0000187 magnetization      26.0025495
 augmentation part      169.2499725 magnetization      20.3139838

 Free energy of the ion-electron system (eV)
  ---------------------------------------------------
  alpha Z        PSCENC =      1845.60443856
  Ewald energy   TEWEN  =    -32553.28372598
  -Hartree energ DENC   =    -11753.74774055
  -exchange      EXHF   =         0.00000000
  -V(xc)+E(xc)   XCENC  =      1298.20937536
  PAW double counting   =     51041.84546570   -52853.11895933
  entropy T*S    EENTRO =        -0.01407067
  eigenvalues    EBANDS =     -3163.66259487
  atomic energy  EATOM  =     44094.36131501
  ---------------------------------------------------
  free energy    TOTEN  =     -2043.81892558 eV

  energy without entropy =    -2043.80485491  energy(sigma->0) =    -2043.81189025


--------------------------------------------------------------------------------------------------------




--------------------------------------- Iteration      1(  20)  ---------------------------------------


    POTLOK:  cpu time    0.2220: real time    0.2220
    SETDIJ:  cpu time    1.9423: real time    1.9423
    TRIAL :  cpu time   28.7069: real time   28.7071
    CORREC:  cpu time   14.4568: real time   14.4569
    CHARGE:  cpu time    4.6127: real time    4.6127
    --------------------------------------------
      LOOP:  cpu time   49.9410: real time   49.9413

 eigenvalue-minimisations  :     0
 total energy-change (2. order) :-0.2552333E+01  (-0.4912517E+01)
 number of electron     506.0000186 magnetization      26.0000036
 augmentation part      168.9856353 magnetization      20.0996589

 Free energy of the ion-electron system (eV)
  ---------------------------------------------------
  alpha Z        PSCENC =      1845.60443856
  Ewald energy   TEWEN  =    -32553.28372598
  -Hartree energ DENC   =    -11841.36549972
  -exchange      EXHF   =         0.00000000
  -V(xc)+E(xc)   XCENC  =      1294.22106446
  PAW double counting   =     51073.81301272   -52915.90548654
  entropy T*S    EENTRO =        -0.00030290
  eigenvalues    EBANDS =     -3043.80230639
  atomic energy  EATOM  =     44094.36131501
  ---------------------------------------------------
  free energy    TOTEN  =     -2046.37125853 eV

  energy without entropy =    -2046.37095563  energy(sigma->0) =    -2046.37110708


--------------------------------------------------------------------------------------------------------




--------------------------------------- Iteration      1(  21)  ---------------------------------------


    POTLOK:  cpu time    0.2209: real time    0.2209
    SETDIJ:  cpu time    1.9443: real time    1.9443
    TRIAL :  cpu time   28.7199: real time   28.7200
    CORREC:  cpu time   14.4376: real time   14.4376
    CHARGE:  cpu time    4.6122: real time    4.6122
    --------------------------------------------
      LOOP:  cpu time   49.9351: real time   49.9354

 eigenvalue-minimisations  :     0
 total energy-change (2. order) :-0.5283162E+01  (-0.6682562E+01)
 number of electron     506.0000182 magnetization      26.0000036
 augmentation part      166.6211480 magnetization      19.7119173

 Free energy of the ion-electron system (eV)
  ---------------------------------------------------
  alpha Z        PSCENC =      1845.60443856
  Ewald energy   TEWEN  =    -32553.28372598
  -Hartree energ DENC   =    -11895.11655065
  -exchange      EXHF   =         0.00000000
  -V(xc)+E(xc)   XCENC  =      1296.59401718
  PAW double counting   =     50941.36572167   -52800.05123723
  entropy T*S    EENTRO =        -0.00328321
  eigenvalues    EBANDS =     -2981.12809659
  atomic energy  EATOM  =     44094.36131501
  ---------------------------------------------------
  free energy    TOTEN  =     -2051.65442091 eV

  energy without entropy =    -2051.65113770  energy(sigma->0) =    -2051.65277931


--------------------------------------------------------------------------------------------------------




--------------------------------------- Iteration      1(  22)  ---------------------------------------


    POTLOK:  cpu time    0.2226: real time    0.2226
    SETDIJ:  cpu time    1.9474: real time    1.9474
    TRIAL :  cpu time   28.7148: real time   28.7150
    CORREC:  cpu time   14.4614: real time   14.4615
    CHARGE:  cpu time    4.6143: real time    4.6143
    --------------------------------------------
      LOOP:  cpu time   49.9609: real time   49.9612

 eigenvalue-minimisations  :     0
 total energy-change (2. order) :-0.6603606E+01  (-0.4899813E+01)
 number of electron     506.0000177 magnetization      26.0000037
 augmentation part      163.9022020 magnetization      19.3348153

 Free energy of the ion-electron system (eV)
  ---------------------------------------------------
  alpha Z        PSCENC =      1845.60443856
  Ewald energy   TEWEN  =    -32553.28372598
  -Hartree energ DENC   =    -11831.47636095
  -exchange      EXHF   =         0.00000000
  -V(xc)+E(xc)   XCENC  =      1313.94030278
  PAW double counting   =     50584.94168369   -52418.31071571
  entropy T*S    EENTRO =        -0.01207058
  eigenvalues    EBANDS =     -3094.03168123
  atomic energy  EATOM  =     44094.36131501
  ---------------------------------------------------
  free energy    TOTEN  =     -2058.25802703 eV

  energy without entropy =    -2058.24595645  energy(sigma->0) =    -2058.25199174


--------------------------------------------------------------------------------------------------------




--------------------------------------- Iteration      1(  23)  ---------------------------------------


    POTLOK:  cpu time    0.2224: real time    0.2224
    SETDIJ:  cpu time    1.9471: real time    1.9471
    TRIAL :  cpu time   28.7204: real time   28.7207
    CORREC:  cpu time   14.4422: real time   14.4423
    CHARGE:  cpu time    4.6149: real time    4.6149
    --------------------------------------------
      LOOP:  cpu time   49.9475: real time   49.9478

 eigenvalue-minimisations  :     0
[...]
   0.393E+02 -.772E+02 -.256E+03   -.424E+02 0.737E+02 0.270E+03   0.317E+01 0.354E+01 -.138E+02
   0.409E+02 0.118E+03 -.279E+03   -.431E+02 -.121E+03 0.291E+03   0.212E+01 0.339E+01 -.126E+02
   -.409E+02 0.118E+03 0.279E+03   0.431E+02 -.121E+03 -.291E+03   -.212E+01 0.339E+01 0.126E+02
   -.594E+02 -.279E+02 0.307E+03   0.632E+02 0.281E+02 -.322E+03   -.374E+01 -.203E+00 0.144E+02
   0.594E+02 -.279E+02 -.307E+03   -.632E+02 0.281E+02 0.322E+03   0.374E+01 -.203E+00 -.144E+02
   -.222E+02 -.121E+02 0.241E+03   0.244E+02 0.106E+02 -.253E+03   -.220E+01 0.151E+01 0.121E+02
   0.222E+02 -.121E+02 -.241E+03   -.244E+02 0.106E+02 0.253E+03   0.220E+01 0.151E+01 -.121E+02
   0.162E+02 -.309E+02 -.204E+03   -.197E+02 0.270E+02 0.218E+03   0.349E+01 0.394E+01 -.134E+02
   -.162E+02 -.309E+02 0.204E+03   0.197E+02 0.270E+02 -.218E+03   -.349E+01 0.394E+01 0.134E+02
   -.164E+01 0.530E+02 0.206E+03   0.260E+01 -.547E+02 -.217E+03   -.948E+00 0.167E+01 0.106E+02
   0.164E+01 0.530E+02 -.206E+03   -.260E+01 -.547E+02 0.217E+03   0.948E+00 0.167E+01 -.106E+02
   -.223E+02 0.178E+01 -.244E+03   0.245E+02 -.776E+00 0.258E+03   -.221E+01 -.100E+01 -.135E+02
   0.223E+02 0.178E+01 0.244E+03   -.245E+02 -.776E+00 -.258E+03   0.221E+01 -.100E+01 0.135E+02
   0.233E+02 -.486E+02 -.253E+03   -.260E+02 0.526E+02 0.265E+03   0.264E+01 -.397E+01 -.113E+02
   -.233E+02 -.486E+02 0.253E+03   0.260E+02 0.526E+02 -.265E+03   -.264E+01 -.397E+01 0.113E+02
   0.292E+02 -.112E+02 0.219E+03   -.365E+02 0.108E+02 -.233E+03   0.727E+01 0.436E+00 0.144E+02
   -.292E+02 -.112E+02 -.219E+03   0.365E+02 0.108E+02 0.233E+03   -.727E+01 0.436E+00 -.144E+02
   0.818E+01 0.577E+01 -.221E+03   -.123E+02 0.106E+01 0.236E+03   0.410E+01 -.683E+01 -.146E+02
   -.818E+01 0.577E+01 0.221E+03   0.123E+02 0.106E+01 -.236E+03   -.410E+01 -.683E+01 0.146E+02
   0.346E+02 -.519E+02 0.276E+03   -.365E+02 0.550E+02 -.290E+03   0.192E+01 -.305E+01 0.132E+02
   -.346E+02 -.519E+02 -.276E+03   0.365E+02 0.550E+02 0.290E+03   -.192E+01 -.305E+01 -.132E+02
   0.232E+02 0.123E+02 0.250E+03   -.254E+02 -.138E+02 -.263E+03   0.218E+01 0.146E+01 0.127E+02
   -.232E+02 0.123E+02 -.250E+03   0.254E+02 -.138E+02 0.263E+03   -.218E+01 0.146E+01 -.127E+02
   -.268E+02 -.915E+01 -.199E+03   0.340E+02 0.950E+01 0.213E+03   -.719E+01 -.350E+00 -.139E+02
   0.268E+02 -.915E+01 0.199E+03   -.340E+02 0.950E+01 -.213E+03   0.719E+01 -.350E+00 0.139E+02
   -.101E+02 -.297E+01 0.197E+03   0.139E+02 0.975E+01 -.210E+03   -.377E+01 -.677E+01 0.136E+02
   0.101E+02 -.297E+01 -.197E+03   -.139E+02 0.975E+01 0.210E+03   0.377E+01 -.677E+01 -.136E+02
   0.917E+01 -.335E+02 -.243E+03   -.860E+01 0.362E+02 0.255E+03   -.579E+00 -.270E+01 -.125E+02
   -.917E+01 -.335E+02 0.243E+03   0.860E+01 0.362E+02 -.255E+03   0.579E+00 -.270E+01 0.125E+02
   -.122E-06 -.962E+02 -.542E-06   0.627E-14 0.941E+02 -.857E-13   0.000E+00 0.226E+01 0.000E+00
   -.132E-06 0.615E+02 -.953E-06   -.903E-13 -.633E+02 0.286E-13   -.542E-19 0.185E+01 0.000E+00
 -----------------------------------------------------------------------------------------------
   -.751E-05 0.324E+01 0.211E-05   0.438E-13 -.142E-13 -.540E-12   -.444E-14 -.317E+01 0.000E+00
 
 
 POSITION                                       TOTAL-FORCE (eV/Angst)
 -----------------------------------------------------------------------------------
      0.00000      5.71855      0.00000        -0.000000      0.004367      0.000000
      0.00000      8.59989      0.00000        -0.000000      0.002525      0.000000
      2.49349     13.06885      0.00000        -0.000000      0.002761      0.000000
      2.49349      1.46695      0.00000        -0.000000     -0.001686      0.000000
     -0.82599     13.07206      4.73888        -0.000000      0.004559      0.000000
     -0.82599      1.45699      4.73888        -0.000000      0.000673      0.000000
      1.66750      5.75680      4.73888        -0.000000     -0.004504      0.000000
      1.66750      8.60611      4.73888        -0.000000      0.003514      0.000000
      0.00000     11.63176      0.00000        -0.000000      0.003014      0.000000
      0.00000      2.84494      0.00000        -0.000000     -0.008913      0.000000
      2.49349      4.32070      0.00000        -0.000000     -0.002180      0.000000
     -0.82599      4.35097      4.73888        -0.000000     -0.005738      0.000000
      1.66750     11.63378      4.73888        -0.000000      0.001377      0.000000
      1.66750      2.87575      4.73888        -0.000000     -0.004096      0.000000
      2.49349     10.16285      0.00000        -0.000000      0.009705      0.000000
     -0.82599     10.12448      4.73888        -0.000000      0.005655      0.000000
      3.31410     14.43770      2.43543         0.003458      0.001031      0.002742
      0.02090     14.43770      7.04233        -0.003458      0.001031     -0.002742
      0.77999      7.17724      2.37785        -0.006539      0.003108     -0.006058
      2.55501      7.17724      7.09991         0.006539      0.003108      0.006058
      3.31710      5.81008      2.39655        -0.000223     -0.003280      0.000222
      0.01790      5.81008      7.08121         0.000223     -0.003280     -0.000222
      0.00465      8.53434      7.10408         0.002332      0.007611      0.002840
      3.33035      8.53434      2.37368        -0.002332      0.007611     -0.002840
      0.84721     12.97557      2.41569         0.001208      0.000494     -0.000542
      2.48779     12.97557      7.06206        -0.001208      0.000494      0.000542
      2.50801      1.45432      7.10888         0.001602      0.010369      0.000081
      0.82699      1.45432      2.36888        -0.001602      0.010369     -0.000081
      0.81155      4.39339      2.32730         0.006599      0.005815     -0.003503
      2.52346      4.39339      7.15046        -0.006599      0.005815      0.003503
      2.50252     10.09233      7.09984         0.000043     -0.003025     -0.000437
      0.83248     10.09233      2.37792        -0.000043     -0.003025      0.000437
      3.31829     11.71337      2.40361        -0.001246     -0.008704      0.003049
      0.01671     11.71337      7.07415         0.001246     -0.008704     -0.003049
     -0.04858      2.89772      7.10417        -0.008299     -0.000835     -0.007351
      3.38358      2.89772      2.37358         0.008299     -0.000835      0.007351
      0.00000      0.03671      0.00000        -0.000000     -0.003733      0.000000
      2.49349      7.10865      0.00000        -0.000000     -0.001317      0.000000
      1.60999      0.11936      1.03038        -0.001674     -0.002871     -0.008100
      1.72501      0.11936      8.44737         0.001674     -0.002871      0.008100
      4.04984      7.17159      1.08081        -0.001196     -0.001011     -0.007778
     -0.71484      7.17159      8.39695         0.001196     -0.001011      0.007778
      0.04596      0.13843      3.71631         0.005655     -0.011054     -0.000414
      3.28904      0.13843      5.76145        -0.005655     -0.011054      0.000414
      2.54191      7.10852      3.73886         0.002647      0.000143      0.002719
      0.79309      7.10852      5.73890        -0.002647      0.000143     -0.002719
      1.72381      5.83779      1.11944         0.002008     -0.001989     -0.008459
      1.61119      5.83779      8.35831        -0.002008     -0.001989      0.008459
      1.59122      8.60949      8.37904        -0.000394     -0.003183      0.005086
      1.74378      8.60949      1.09872         0.000394     -0.003183     -0.005086
      4.22345     13.16354      1.10900         0.001728     -0.001166     -0.008342
     -0.88845     13.16354      8.36875        -0.001728     -0.001166      0.008342
     -0.91698      1.45800      8.40336         0.001731     -0.002851      0.006495
      4.25198      1.45800      1.07440        -0.001731     -0.002851     -0.006495
     -0.06157      5.78932      3.64683        -0.001702     -0.003974      0.005097
      3.39657      5.78932      5.83093         0.001702     -0.003974     -0.005097
      3.41351      8.59300      5.85073         0.000055      0.001229     -0.002793
     -0.07851      8.59300      3.62702        -0.000055      0.001229      0.002793
      2.45044     13.13308      3.65544         0.005125     -0.002959      0.008131
      0.88456     13.13308      5.82232        -0.005125     -0.002959     -0.008131
      0.76504      1.42838      5.78130         0.011199      0.002303     -0.002811
      2.56996      1.42838      3.69646        -0.011199      0.002303      0.002811
      4.23641      4.16883      1.07867        -0.007296      0.005226     -0.006484
     -0.90141      4.16883      8.39909         0.007296      0.005226      0.006484
     -0.78883     10.11912      8.36347        -0.001137     -0.000897      0.003013
      4.12383     10.11912      1.11428         0.001137     -0.000897     -0.003013
      1.70290     11.51898      1.17360        -0.000824     -0.001826     -0.003416
      1.63210     11.51898      8.30416         0.000824     -0.001826      0.003416
      1.73563      2.80799      8.46449        -0.003431      0.000470      0.006468
      1.59937      2.80799      1.01327         0.003431      0.000470     -0.006468
      2.56404      4.37189      3.73560        -0.001588     -0.005425      0.006055
      0.77096      4.37189      5.74215         0.001588     -0.005425     -0.006055
      0.80414     10.09426      5.86394         0.000676      0.000199     -0.002725
      2.53086     10.09426      3.61381        -0.000676      0.000199      0.002725
     -0.04032     11.49220      3.56631         0.000972      0.001544      0.005350
      3.37532     11.49220      5.91145        -0.000972      0.001544     -0.005350
      3.30875      2.83099      5.74944        -0.008937      0.008748     -0.006257
      0.02625      2.83099      3.72832         0.008937      0.008748      0.006257
     -0.82599      7.13527      4.73888        -0.000000     -0.002030      0.000000
      1.66750      0.05842      4.73888        -0.000000      0.009567      0.000000
 -----------------------------------------------------------------------------------
    total drift:                               -0.000008      0.068453      0.000002


--------------------------------------------------------------------------------------------------------



  FREE ENERGIE OF THE ION-ELECTRON SYSTEM (eV)
  ---------------------------------------------------
  free  energy   TOTEN  =     -2069.3650154408 eV

  energy  without entropy=    -2069.3577239913  energy(sigma->0) =    -2069.36136972
 


--------------------------------------------------------------------------------------------------------


    POTLOK:  cpu time    2.1588: real time    2.1588


--------------------------------------------------------------------------------------------------------


     LOOP+:  cpu time 2843.9931: real time 2844.4572
    4ORBIT:  cpu time    0.0000: real time    0.0000

volume of typ            1:    13.1 %

volume of typ            2:     3.0 %

volume of typ            3:    22.8 %

volume of typ            4:     2.0 %

volume of typ            5:     9.5 %

volume of typ            6:     1.9 %
 
total charge     
 
# of ion       s       p       d       tot
------------------------------------------
    1        0.210   0.243   7.858   8.310
    2        0.206   0.240   7.871   8.316
    3        0.204   0.235   7.872   8.310
    4        0.251   0.322   7.802   8.375
    5        0.210   0.238   7.864   8.312
    6        0.280   0.383   7.760   8.423
    7        0.253   0.322   7.796   8.371
    8        0.211   0.246   7.872   8.329
    9        0.202   0.236   7.872   8.310
   10        0.285   0.395   7.759   8.439
   11        0.212   0.244   7.856   8.311
   12        0.252   0.323   7.794   8.369
   13        0.206   0.237   7.872   8.315
   14        0.239   0.294   7.812   8.346
   15        0.296   6.203   1.885   8.383
   16        0.296   6.203   1.878   8.377
   17        2.083   0.265   0.108   2.456
   18        2.083   0.265   0.108   2.456
   19        2.075   0.247   0.100   2.422
   20        2.075   0.247   0.100   2.422
   21        2.090   0.287   0.119   2.496
   22        2.090   0.287   0.119   2.496
   23        2.088   0.287   0.120   2.494
   24        2.088   0.287   0.120   2.494
   25        2.077   0.249   0.100   2.426
   26        2.077   0.249   0.100   2.426
   27        2.089   0.284   0.118   2.491
   28        2.089   0.284   0.118   2.491
   29        2.069   0.229   0.090   2.388
   30        2.069   0.229   0.090   2.388
   31        2.080   0.267   0.109   2.456
   32        2.080   0.267   0.109   2.456
   33        2.080   0.267   0.110   2.457
   34        2.080   0.267   0.110   2.457
   35        2.074   0.238   0.095   2.406
   36        2.074   0.238   0.095   2.406
   37        0.230   6.251   4.546  11.028
   38        0.226   6.240   4.561  11.027
   39        1.261   2.846   0.005   4.112
   40        1.261   2.846   0.005   4.112
   41        1.255   2.862   0.004   4.121
   42        1.255   2.862   0.004   4.121
   43        1.261   2.835   0.005   4.101
   44        1.261   2.835   0.005   4.101
   45        1.258   2.848   0.005   4.111
   46        1.258   2.848   0.005   4.111
   47        1.257   2.856   0.005   4.118
   48        1.257   2.856   0.005   4.118
   49        1.256   2.876   0.004   4.136
   50        1.256   2.876   0.004   4.136
   51        1.256   2.853   0.004   4.113
   52        1.256   2.853   0.004   4.113
   53        1.263   2.844   0.005   4.112
   54        1.263   2.844   0.005   4.112
   55        1.259   2.842   0.004   4.105
   56        1.259   2.842   0.004   4.105
   57        1.254   2.876   0.004   4.135
   58        1.254   2.876   0.004   4.135
   59        1.251   2.858   0.004   4.113
   60        1.251   2.858   0.004   4.112
   61        1.261   2.831   0.005   4.097
   62        1.261   2.831   0.005   4.097
   63        1.261   2.832   0.004   4.097
   64        1.261   2.832   0.004   4.097
   65        1.258   2.869   0.005   4.132
   66        1.258   2.869   0.005   4.132
   67        1.258   2.877   0.005   4.139
   68        1.258   2.877   0.005   4.139
   69        1.264   2.826   0.005   4.095
   70        1.264   2.826   0.005   4.095
   71        1.262   2.827   0.005   4.094
   72        1.262   2.827   0.005   4.094
   73        1.257   2.870   0.005   4.133
   74        1.257   2.870   0.005   4.133
   75        1.257   2.879   0.005   4.141
   76        1.257   2.879   0.005   4.141
   77        1.265   2.823   0.005   4.092
   78        1.265   2.823   0.005   4.092
   79        0.243   0.338   6.826   7.406
   80        0.243   0.336   6.816   7.396
--------------------------------------------------
tot          96.71  148.83  138.49  384.03
 
magnetization (x)
 
# of ion       s       p       d       tot
------------------------------------------
    1        0.006   0.001   1.608   1.615
    2        0.005   0.001   1.635   1.641
    3        0.006   0.002   1.637   1.645
    4        0.007   0.002   0.945   0.954
    5        0.003   0.000   1.605   1.608
    6        0.000   0.001   0.164   0.165
    7        0.003   0.001   0.879   0.884
    8        0.003   0.001   1.611   1.615
    9        0.005   0.001   1.634   1.639
   10        0.000   0.001   0.073   0.074
   11        0.004   0.001   1.609   1.614
   12        0.002   0.002   0.876   0.879
   13        0.002   0.001   1.618   1.621
   14        0.003   0.002   1.161   1.167
   15       -0.001  -0.000  -0.003  -0.004
   16       -0.001  -0.001  -0.002  -0.004
   17        0.003   0.007   0.001   0.011
   18        0.003   0.007   0.001   0.011
   19        0.002   0.002   0.000   0.004
   20        0.002   0.002   0.000   0.004
   21        0.006   0.013   0.003   0.021
   22        0.006   0.013   0.003   0.021
   23        0.004   0.010   0.002   0.016
   24        0.004   0.010   0.002   0.016
   25        0.003   0.004   0.000   0.006
   26        0.003   0.004   0.000   0.006
   27        0.005   0.013   0.003   0.021
   28        0.005   0.013   0.003   0.021
   29        0.001   0.001  -0.001   0.001
   30        0.001   0.001  -0.001   0.001
   31        0.001   0.002   0.000   0.003
   32        0.001   0.002   0.000   0.003
   33        0.002   0.005   0.001   0.008
   34        0.002   0.005   0.001   0.008
   35        0.002   0.002  -0.001   0.004
   36        0.002   0.002  -0.001   0.004
   37        0.012   0.013   2.679   2.704
   38        0.011   0.011   2.653   2.675
   39        0.008   0.046   0.001   0.054
   40        0.008   0.046   0.001   0.054
   41        0.011   0.111   0.001   0.123
   42        0.011   0.111   0.001   0.123
   43        0.006   0.041   0.000   0.048
   44        0.006   0.041   0.000   0.048
   45        0.007   0.025   0.000   0.032
   46        0.007   0.025   0.000   0.032
   47        0.011   0.111   0.001   0.122
   48        0.011   0.111   0.001   0.122
   49        0.005   0.050   0.000   0.056
   50        0.005   0.050   0.000   0.056
   51        0.011   0.118   0.001   0.129
   52        0.011   0.117   0.001   0.129
   53        0.007   0.074   0.001   0.082
   54        0.007   0.074   0.001   0.082
   55        0.010   0.090   0.000   0.100
   56        0.010   0.090   0.000   0.101
   57        0.005   0.046   0.000   0.051
   58        0.005   0.046   0.000   0.051
   59        0.009   0.090   0.000   0.099
   60        0.009   0.090   0.000   0.099
   61        0.005   0.019   0.000   0.024
   62        0.005   0.019   0.000   0.024
   63        0.011   0.073   0.000   0.084
   64        0.011   0.073   0.000   0.084
   65        0.009   0.080   0.000   0.090
   66        0.009   0.080   0.000   0.090
   67        0.009   0.077   0.000   0.087
   68        0.009   0.077   0.000   0.087
   69        0.008   0.025   0.000   0.033
   70        0.008   0.025   0.000   0.033
   71        0.007  -0.015   0.000  -0.008
   72        0.007  -0.015   0.000  -0.008
   73        0.009   0.070   0.000   0.079
   74        0.009   0.070   0.000   0.079
   75        0.009   0.073   0.000   0.082
   76        0.009   0.073   0.000   0.082
   77        0.008   0.002   0.000   0.010
   78        0.008   0.002   0.000   0.010
   79       -0.001  -0.001  -0.082  -0.085
   80       -0.001  -0.001  -0.066  -0.068
--------------------------------------------------
tot           0.45    2.56   22.27   25.28
 

 total amount of memory used by VASP MPI-rank0   402072. kBytes
=======================================================================

   base      :      30000. kBytes
   nonlr-proj:      34300. kBytes
   fftplans  :       6155. kBytes
   grid      :      58910. kBytes
   one-center:       2488. kBytes
   wavefun   :     270219. kBytes
 
  
  
 General timing and accounting informations for this job:
 ========================================================
  
                  Total CPU time used (sec):     2866.473
                            User time (sec):     2854.113
                          System time (sec):       12.360
                         Elapsed time (sec):     2873.011
  
                   Maximum memory used (kb):      576056.
                   Average memory used (kb):           0.
  
                          Minor page faults:      1274034
                          Major page faults:           56
                 Voluntary context switches:         2197
