 vasp.5.4.4.18Apr17-6-g9f103f2a35 (build May 12 2020 05:39:39) gamma-only       
  
 MD_VERSION_INFO: Compiled 2020-05-12T12:39:39-UTC in devlin.sd.materialsdesign.
 com:/home/medea2/data/build/wwolf/vasp-gpu5.4.4/13047/x86_64/src/src/build/gam 
 from svn 13047
 
 This VASP executable licensed from Materials Design, Inc.
 
 executed on                        Lin64 date 2023.01.19  16:57:54
 running on   16 total cores
 distrk:  each k-point on   16 cores,    1 groups
 distr:  one band on NCORES_PER_BAND=   1 cores,   16 groups


--------------------------------------------------------------------------------------------------------


 INCAR:
 POTCAR:    PAW_PBE Li_sv 10Sep2004               
 POTCAR:    PAW_PBE Ni 02Aug2007                  
 POTCAR:    PAW_PBE O 08Apr2002                   

 ----------------------------------------------------------------------------- 
|                                                                             |
|           W    W    AA    RRRRR   N    N  II  N    N   GGGG   !!!           |
|           W    W   A  A   R    R  NN   N  II  NN   N  G    G  !!!           |
|           W    W  A    A  R    R  N N  N  II  N N  N  G       !!!           |
|           W WW W  AAAAAA  RRRRR   N  N N  II  N  N N  G  GGG   !            |
|           WW  WW  A    A  R   R   N   NN  II  N   NN  G    G                |
|           W    W  A    A  R    R  N    N  II  N    N   GGGG   !!!           |
|                                                                             |
|      For optimal performance we recommend to set                            |
|        NCORE= 4 - approx SQRT( number of cores)                             |
|      NCORE specifies how many cores store one orbital (NPAR=cpu/NCORE).     |
|      This setting can  greatly improve the performance of VASP for DFT.     |
|      The default,   NCORE=1            might be grossly inefficient         |
|      on modern multi-core architectures or massively parallel machines.     |
|      Do your own testing !!!!                                               |
|      Unfortunately you need to use the default for GW and RPA calculations. |
|      (for HF NCORE is supported but not extensively tested yet)             |
|                                                                             |
 ----------------------------------------------------------------------------- 

 POTCAR:    PAW_PBE Li_sv 10Sep2004               
  local pseudopotential read in
  atomic valenz-charges read in
  non local Contribution for L=           0  read in
    real space projection operators read in
  non local Contribution for L=           0  read in
    real space projection operators read in
  non local Contribution for L=           1  read in
    real space projection operators read in
    PAW grid and wavefunctions read in
 
   number of l-projection  operators is LMAX  =           3
   number of lm-projection operators is LMMAX =           5
 
 POTCAR:    PAW_PBE Ni 02Aug2007                  
  local pseudopotential read in
  partial core-charges read in
  partial kinetic energy density read in
  atomic valenz-charges read in
  non local Contribution for L=           2  read in
    real space projection operators read in
  non local Contribution for L=           2  read in
    real space projection operators read in
  non local Contribution for L=           0  read in
    real space projection operators read in
  non local Contribution for L=           0  read in
    real space projection operators read in
  non local Contribution for L=           1  read in
    real space projection operators read in
  non local Contribution for L=           1  read in
    real space projection operators read in
    PAW grid and wavefunctions read in
 
   number of l-projection  operators is LMAX  =           6
   number of lm-projection operators is LMMAX =          18
 
 POTCAR:    PAW_PBE O 08Apr2002                   
  local pseudopotential read in
  partial core-charges read in
  partial kinetic energy density read in
  kinetic energy density of atom read in
  atomic valenz-charges read in
  non local Contribution for L=           0  read in
    real space projection operators read in
  non local Contribution for L=           0  read in
    real space projection operators read in
  non local Contribution for L=           1  read in
    real space projection operators read in
  non local Contribution for L=           1  read in
    real space projection operators read in
    PAW grid and wavefunctions read in
 
   number of l-projection  operators is LMAX  =           4
   number of lm-projection operators is LMMAX =           8
 
 Optimization of the real space projectors (new method)

 maximal supplied QI-value         = 22.11
 optimisation between [QCUT,QGAM] = [ 11.28, 22.77] = [ 35.61,145.23] Ry 
 Optimized for a Real-space Cutoff    1.10 Angstroem

   l    n(q)    QCUT    max X(q) W(low)/X(q) W(high)/X(q)  e(spline) 
   0      7    11.276    10.506    0.54E-04    0.58E-04    0.16E-07
   0      7    11.276     8.367    0.11E-03    0.14E-03    0.35E-07
   1      7    11.276     8.983    0.23E-03    0.43E-03    0.86E-07
 Optimization of the real space projectors (new method)

 maximal supplied QI-value         = 16.25
 optimisation between [QCUT,QGAM] = [ 11.38, 22.75] = [ 36.24,144.96] Ry 
 Optimized for a Real-space Cutoff    1.47 Angstroem

   l    n(q)    QCUT    max X(q) W(low)/X(q) W(high)/X(q)  e(spline) 
   2      9    11.376    60.317    0.17E-03    0.16E-04    0.16E-06
   2      9    11.376    55.921    0.17E-03    0.16E-04    0.17E-06
   0     10    11.376    51.690    0.45E-04    0.60E-04    0.21E-06
   0     10    11.376    30.015    0.37E-04    0.55E-04    0.19E-06
   1     10    11.376    18.849    0.83E-04    0.11E-03    0.92E-07
   1     10    11.376    14.624    0.69E-04    0.92E-04    0.82E-07
 Optimization of the real space projectors (new method)

 maximal supplied QI-value         = 24.76
 optimisation between [QCUT,QGAM] = [ 11.39, 22.77] = [ 36.31,145.25] Ry 
 Optimized for a Real-space Cutoff    1.10 Angstroem

   l    n(q)    QCUT    max X(q) W(low)/X(q) W(high)/X(q)  e(spline) 
   0      7    11.387    20.381    0.22E-03    0.48E-03    0.18E-06
   0      7    11.387    15.268    0.22E-03    0.52E-03    0.19E-06
   1      7    11.387     5.964    0.22E-03    0.73E-03    0.24E-06
   1      7    11.387     5.382    0.19E-03    0.60E-03    0.21E-06

 ----------------------------------------------------------------------------- 
|                                                                             |
|  ADVICE TO THIS USER RUNNING 'VASP/VAMP'   (HEAR YOUR MASTER'S VOICE ...):  |
|                                                                             |
|      You enforced a specific xc-type in the INCAR file,                     |
|      a different type was found on the POTCAR file                          |
|          I HOPE YOU KNOW, WHAT YOU ARE  DOING                               |
|                                                                             |
 ----------------------------------------------------------------------------- 

  PAW_PBE Li_sv 10Sep2004               :
 energy of atom  1       EATOM= -202.7858
 kinetic energy error for atom=    0.0143 (will be added to EATOM!!)
  PAW_PBE Ni 02Aug2007                  :
 energy of atom  2       EATOM=-1077.6739
 kinetic energy error for atom=    0.0030 (will be added to EATOM!!)
  PAW_PBE O 08Apr2002                   :
 energy of atom  3       EATOM= -432.3788
 kinetic energy error for atom=    0.0224 (will be added to EATOM!!)
 
 
 POSCAR: ce4_1                                   
  positions in direct lattice
  No initial velocities read in
 exchange correlation table for  LEXCH =       14
   RHO(1)=    0.500       N(1)  =     2000
   RHO(2)=  100.500       N(2)  =     4000
 


--------------------------------------------------------------------------------------------------------


 ion  position               nearest neighbor table
   1  0.989  0.500  0.989- 104 2.08 103 2.08  68 2.09  91 2.09  55 2.19  56 2.19  51 2.82  50 2.82

   2  0.103  0.835  0.212-  52 2.04  69 2.05  57 2.09  70 2.14  76 2.16  75 2.17  25 2.81  33 2.81

   3  0.212  0.165  0.103-  53 2.04  90 2.05  54 2.09  59 2.14  77 2.16  60 2.17  25 2.81  44 2.81

   4  0.332  0.499  0.998-  92 2.08  56 2.11  61 2.12  97 2.12  91 2.12  62 2.13
   5  0.443  0.833  0.223-  76 2.08  82 2.11  63 2.12  57 2.12  81 2.12  58 2.13
   6  0.558  0.166  0.112-  66 2.08  96 2.11  59 2.12  83 2.12  65 2.12  60 2.13
   7  0.666  0.500  0.989-  98 2.05 103 2.09  97 2.09  68 2.11  67 2.18  62 2.18  48 2.82  50 2.83

   8  0.778  0.833  0.214-  64 2.04  69 2.04  70 2.11  63 2.11  82 2.15  87 2.15  33 2.80  31 2.80

   9  0.889  0.167  0.101-  53 2.05 102 2.09  54 2.09  65 2.11  66 2.18  71 2.18  25 2.82  50 2.83

  10  0.998  0.501  0.332-  67 2.08  55 2.11  74 2.12  86 2.12  68 2.12  73 2.13
  11  0.112  0.834  0.558-  93 2.08  87 2.11  70 2.12  94 2.12  88 2.12  75 2.13
  12  0.223  0.167  0.443-  77 2.08  95 2.11  72 2.12  54 2.12  78 2.12  71 2.13
  13  0.341  0.500  0.341-  79 2.04  80 2.04  61 2.11  74 2.11  56 2.15  55 2.15  38 2.80  39 2.80

  14  0.455  0.833  0.566-  99 2.05 100 2.09  94 2.09  81 2.11  76 2.18  75 2.18  48 2.82  49 2.83

  15  0.566  0.167  0.455-  84 2.05 101 2.09  83 2.09  78 2.11  77 2.18  60 2.18  41 2.82  49 2.83

  16  0.669  0.498  0.343-  85 2.04  80 2.05  86 2.09  61 2.14  67 2.16  62 2.17  41 2.81  39 2.81

  17  0.778  0.833  0.566- 100 2.08 105 2.08  88 2.09  81 2.09  82 2.19  87 2.19  51 2.82  49 2.82

  18  0.887  0.168  0.452-  84 2.04  89 2.05  83 2.09  72 2.14  66 2.16  71 2.17  41 2.81  43 2.81

  19  0.989  0.500  0.666-  85 2.05 104 2.09  86 2.09  91 2.11  92 2.18  73 2.18  41 2.82  51 2.83

  20  0.101  0.833  0.889-  52 2.05 105 2.09  57 2.09  88 2.11  93 2.18  58 2.18  25 2.82  51 2.83

  21  0.214  0.167  0.778-  89 2.04  90 2.04  59 2.11  72 2.11  95 2.15  96 2.15  44 2.80  43 2.80

  22  0.343  0.502  0.669-  98 2.04  79 2.05  97 2.09  74 2.14  92 2.16  73 2.17  48 2.81  38 2.81

  23  0.452  0.832  0.887-  99 2.04  64 2.05  94 2.09  63 2.14  93 2.16  58 2.17  48 2.81  31 2.81

  24  0.566  0.167  0.778- 101 2.08 102 2.08  65 2.09  78 2.09  95 2.19  96 2.19  50 2.82  49 2.82

  25  0.998  0.000  0.998- 105 1.92 102 1.92  54 1.94  57 1.94  69 1.98  90 1.98   2 2.81   3 2.81
                            20 2.82   9 2.82  49 2.83  43 2.86  31 2.86  37 2.87  34 2.87  28 2.87
  26  0.112  0.334  0.224-  53 1.86  74 1.92  77 1.93  71 1.94  68 1.94  56 1.94  38 2.83  35 2.84
                            29 2.85  32 2.86  44 2.86  50 2.87
  27  0.224  0.666  0.112-  52 1.86  61 1.92  76 1.93  58 1.94  91 1.94  55 1.94  39 2.83  30 2.84
                            36 2.85  45 2.86  33 2.86  51 2.87
  28  0.335  0.999  0.001-  90 1.86  63 1.92  96 1.92  57 1.93  60 1.94  93 1.94  31 2.83  40 2.84
                            46 2.85  37 2.86  43 2.87  25 2.87
  29  0.443  0.332  0.220-  80 1.86  59 1.92  56 1.92  83 1.93  62 1.94  77 1.94  44 2.83  47 2.84
                            26 2.85  32 2.86  38 2.87  41 2.87
  30  0.555  0.665  0.112-  64 1.86  61 1.92  82 1.92  97 1.93  58 1.94  67 1.94  39 2.83  27 2.84
                            42 2.85  45 2.86  33 2.87  48 2.87
  31  0.666  0.997  0.001- 102 1.87  63 1.92  69 1.94  99 1.94  96 1.96  66 1.96   8 2.80  23 2.81
                            28 2.83  40 2.83  25 2.86  49 2.86  46 2.86  34 2.87
  32  0.778  0.333  0.222-  71 1.92  62 1.92  83 1.96  86 1.96  65 1.96  68 1.96  26 2.86  47 2.86
                            35 2.86  29 2.86  50 2.86  41 2.87
  33  0.890  0.669  0.113- 103 1.87  70 1.92  64 1.94  52 1.94  55 1.96  67 1.96   8 2.80   2 2.81
                            36 2.83  42 2.83  48 2.86  51 2.86  27 2.86  30 2.87
  34  0.001  0.001  0.335-  69 1.86  72 1.92  87 1.92  54 1.93  75 1.94  66 1.94  43 2.83  46 2.84
                            40 2.85  37 2.86  31 2.87  25 2.87
  35  0.112  0.335  0.555-  89 1.86  74 1.92  95 1.92  86 1.93  71 1.94  92 1.94  38 2.83  26 2.84
                            47 2.85  32 2.86  44 2.87  41 2.87
  36  0.220  0.668  0.443-  79 1.86  70 1.92  55 1.92  94 1.93  73 1.94  76 1.94  33 2.83  42 2.84
                            27 2.85  45 2.86  39 2.87  48 2.87
  37  0.334  0.000  0.334-  60 1.92  75 1.92  57 1.96  54 1.96  78 1.96  81 1.96  46 2.86  40 2.86
                            28 2.86  34 2.86  49 2.86  25 2.87
  38  0.442  0.336  0.554- 101 1.87  74 1.92  80 1.94  98 1.94  95 1.96  77 1.96  13 2.80  22 2.81
                            35 2.83  26 2.83  41 2.86  50 2.86  47 2.86  29 2.87
  39  0.554  0.664  0.442- 100 1.87  61 1.92  79 1.94  85 1.94  82 1.96  76 1.96  13 2.80  16 2.81
                            30 2.83  27 2.83  48 2.86  51 2.86  42 2.86  36 2.87
  40  0.666  0.999  0.332-  84 1.86  63 1.92  66 1.93  60 1.94  81 1.94  87 1.94  31 2.83  28 2.84
                            34 2.85  37 2.86  43 2.86  49 2.87
  41  0.778  0.333  0.557- 101 1.92 104 1.92  83 1.94  86 1.94  89 1.98  80 1.98  18 2.81  16 2.81
                            15 2.82  19 2.82  50 2.83  44 2.86  38 2.86  32 2.87  35 2.87  29 2.87
  42  0.889  0.668  0.443-  85 1.86  70 1.92  67 1.93  73 1.94  88 1.94  82 1.94  33 2.83  36 2.84
                            30 2.85  45 2.86  39 2.86  51 2.87
  43  0.001  0.003  0.666- 105 1.87  72 1.92  90 1.94  84 1.94  87 1.96  93 1.96  21 2.80  18 2.81
                            34 2.83  46 2.83  25 2.86  49 2.86  40 2.86  28 2.87
  44  0.113  0.331  0.890- 104 1.87  59 1.92  89 1.94  53 1.94  56 1.96  92 1.96  21 2.80   3 2.81
                            29 2.83  47 2.83  41 2.86  50 2.86  26 2.86  35 2.87
  45  0.222  0.667  0.778-  58 1.92  73 1.92  94 1.96  97 1.96  88 1.96  91 1.96  27 2.86  42 2.86
                            30 2.86  36 2.86  51 2.86  48 2.87
  46  0.332  0.001  0.666-  99 1.86  72 1.92  93 1.93  75 1.94  78 1.94  96 1.94  43 2.83  34 2.84
                            28 2.85  37 2.86  31 2.86  49 2.87
  47  0.443  0.332  0.889-  98 1.86  59 1.92  92 1.93  62 1.94  65 1.94  95 1.94  44 2.83  29 2.84
                            35 2.85  32 2.86  38 2.86  50 2.87
  48  0.557  0.667  0.778- 100 1.92 103 1.92  94 1.94  97 1.94  64 1.98  79 1.98  23 2.81  22 2.81
                            14 2.82   7 2.82  51 2.83  33 2.86  39 2.86  45 2.87  30 2.87  36 2.87
  49  0.668  0.000  0.668- 102 1.92 105 1.92  81 1.93  78 1.93  84 1.98  99 1.98  24 2.82  17 2.82
                            25 2.83  15 2.83  14 2.83  31 2.86  43 2.86  37 2.86  40 2.87  46 2.87
  50  0.778  0.333  0.887- 101 1.92 104 1.92  65 1.93  68 1.93  53 1.98  98 1.98  24 2.82   1 2.82
                            41 2.83   9 2.83   7 2.83  44 2.86  38 2.86  32 2.86  26 2.87  47 2.87
  51  0.887  0.667  0.778- 100 1.92 103 1.92  88 1.93  91 1.93  52 1.98  85 1.98  17 2.82   1 2.82
                            48 2.83  20 2.83  19 2.83  33 2.86  39 2.86  45 2.86  27 2.87  42 2.87
  52  0.014  0.737  0.009-  27 1.86  33 1.94  51 1.98   2 2.04  20 2.05
  53  0.009  0.263  0.014-  26 1.86  44 1.94  50 1.98   3 2.04   9 2.05
  54  0.108  0.073  0.220-  34 1.93  25 1.94  37 1.96   3 2.09   9 2.09  12 2.12
  55  0.112  0.594  0.225-  36 1.92  27 1.94  33 1.96  10 2.11  13 2.15   1 2.19
  56  0.225  0.406  0.112-  29 1.92  26 1.94  44 1.96   4 2.11  13 2.15   1 2.19
  57  0.220  0.927  0.108-  28 1.93  25 1.94  37 1.96   2 2.09  20 2.09   5 2.12
  58  0.333  0.738  0.999-  45 1.92  27 1.94  30 1.94   5 2.13  23 2.17  20 2.18
  59  0.335  0.260  0.001-  47 1.92  29 1.92  44 1.92  21 2.11   6 2.12   3 2.14
  60  0.444  0.071  0.223-  37 1.92  40 1.94  28 1.94   6 2.13   3 2.17  15 2.18
  61  0.443  0.593  0.220-  27 1.92  30 1.92  39 1.92  13 2.11   4 2.12  16 2.14
  62  0.557  0.405  0.112-  32 1.92  47 1.94  29 1.94   4 2.13  16 2.17   7 2.18
  63  0.555  0.927  0.112-  40 1.92  28 1.92  31 1.92   8 2.11   5 2.12  23 2.14
  64  0.662  0.737  0.009-  30 1.86  33 1.94  48 1.98   8 2.04  23 2.05
  65  0.666  0.260  0.996-  50 1.93  47 1.94  32 1.96  24 2.09   9 2.11   6 2.12
  66  0.777  0.073  0.224-  40 1.93  34 1.94  31 1.96   6 2.08  18 2.16   9 2.18
  67  0.779  0.594  0.224-  42 1.93  30 1.94  33 1.96  10 2.08  16 2.16   7 2.18
  68  0.889  0.407  0.108-  50 1.93  26 1.94  32 1.96   1 2.09   7 2.11  10 2.12
  69  0.893  0.930  0.125-  34 1.86  31 1.94  25 1.98   8 2.04   2 2.05
  70  0.001  0.740  0.335-  42 1.92  36 1.92  33 1.92   8 2.11  11 2.12   2 2.14
  71  0.999  0.262  0.333-  32 1.92  26 1.94  35 1.94  12 2.13  18 2.17   9 2.18
  72  0.112  0.073  0.555-  46 1.92  34 1.92  43 1.92  21 2.11  12 2.12  18 2.14
  73  0.112  0.595  0.557-  45 1.92  42 1.94  36 1.94  10 2.13  22 2.17  19 2.18
  74  0.220  0.407  0.443-  26 1.92  35 1.92  38 1.92  13 2.11  10 2.12  22 2.14
  75  0.223  0.929  0.444-  37 1.92  46 1.94  34 1.94  11 2.13   2 2.17  14 2.18
  76  0.332  0.740  0.331-  27 1.93  36 1.94  39 1.96   5 2.08   2 2.16  14 2.18
  77  0.331  0.260  0.332-  26 1.93  29 1.94  38 1.96  12 2.08   3 2.16  15 2.18
  78  0.448  0.073  0.559-  49 1.93  46 1.94  37 1.96  24 2.09  15 2.11  12 2.12
  79  0.431  0.596  0.546-  36 1.86  39 1.94  48 1.98  13 2.04  22 2.05
  80  0.546  0.404  0.431-  29 1.86  38 1.94  41 1.98  13 2.04  16 2.05
  81  0.559  0.927  0.448-  49 1.93  40 1.94  37 1.96  17 2.09  14 2.11   5 2.12
  82  0.665  0.739  0.331-  30 1.92  42 1.94  39 1.96   5 2.11   8 2.15  17 2.19
  83  0.666  0.260  0.335-  29 1.93  41 1.94  32 1.96  18 2.09  15 2.09   6 2.12
  84  0.773  0.071  0.542-  40 1.86  43 1.94  49 1.98  18 2.04  15 2.05
  85  0.782  0.596  0.547-  42 1.86  39 1.94  51 1.98  16 2.04  19 2.05
  86  0.890  0.406  0.448-  35 1.93  41 1.94  32 1.96  16 2.09  19 2.09  10 2.12
  87  0.890  0.927  0.443-  34 1.92  40 1.94  43 1.96  11 2.11   8 2.15  17 2.19
  88  0.996  0.740  0.666-  51 1.93  42 1.94  45 1.96  17 2.09  20 2.11  11 2.12
  89  0.009  0.263  0.662-  35 1.86  44 1.94  41 1.98  21 2.04  18 2.05
  90  0.125  0.070  0.893-  28 1.86  43 1.94  25 1.98  21 2.04   3 2.05
  91  0.108  0.593  0.889-  51 1.93  27 1.94  45 1.96   1 2.09  19 2.11   4 2.12
  92  0.224  0.406  0.779-  47 1.93  35 1.94  44 1.96   4 2.08  22 2.16  19 2.18
  93  0.224  0.927  0.777-  46 1.93  28 1.94  43 1.96  11 2.08  23 2.16  20 2.18
  94  0.335  0.740  0.666-  36 1.93  48 1.94  45 1.96  23 2.09  14 2.09  11 2.12
  95  0.331  0.261  0.665-  35 1.92  47 1.94  38 1.96  12 2.11  21 2.15  24 2.19
  96  0.443  0.073  0.890-  28 1.92  46 1.94  31 1.96   6 2.11  21 2.15  24 2.19
  97  0.448  0.594  0.890-  30 1.93  48 1.94  45 1.96  22 2.09   7 2.09   4 2.12
  98  0.547  0.404  0.782-  47 1.86  38 1.94  50 1.98  22 2.04   7 2.05
  99  0.542  0.929  0.773-  46 1.86  31 1.94  49 1.98  23 2.04  14 2.05
 100  0.662  0.733  0.657-  39 1.87  51 1.92  48 1.92  17 2.08  14 2.09
 101  0.657  0.267  0.662-  38 1.87  50 1.92  41 1.92  24 2.08  15 2.09
 102  0.773  0.067  0.893-  31 1.87  49 1.92  25 1.92  24 2.08   9 2.09
 103  0.783  0.600  0.899-  33 1.87  51 1.92  48 1.92   1 2.08   7 2.09
 104  0.899  0.400  0.783-  44 1.87  50 1.92  41 1.92   1 2.08  19 2.09
 105  0.893  0.933  0.773-  43 1.87  49 1.92  25 1.92  17 2.08  20 2.09
 
  LATTYP: Found a hexagonal cell.
 ALAT       =     8.5649533523
 C/A-ratio  =     1.6407223947
  
  Lattice vectors:
  
 A1 = (   4.2824766946,  -7.4174671747,   0.0000000000)
 A2 = (  -8.5649532931,   0.0000000000,   0.0000000000)
 A3 = (   0.0000000000,   0.0000000000, -14.0527107746)


Analysis of symmetry for initial positions (statically):
=====================================================================
 Subroutine PRICEL returns:
 Original cell was already a primitive cell.
 

 Routine SETGRP: Setting up the symmetry group for a 
 hexagonal supercell.


 Subroutine GETGRP returns: Found  6 space group operations
 (whereof  2 operations were pure point group operations)
 out of a pool of 24 trial point group operations.


The static configuration has the point symmetry C_2 .
 The point group associated with its full space group is D_3 .


Analysis of symmetry for dynamics (positions and initial velocities):
=====================================================================
 Subroutine PRICEL returns:
 Original cell was already a primitive cell.
 

 Routine SETGRP: Setting up the symmetry group for a 
 hexagonal supercell.


 Subroutine GETGRP returns: Found  6 space group operations
 (whereof  2 operations were pure point group operations)
 out of a pool of 24 trial point group operations.


The dynamic configuration has the point symmetry C_2 .
 The point group associated with its full space group is D_3 .


Analysis of structural, dynamic, and magnetic symmetry:
=====================================================================
 Subroutine PRICEL returns:
 Original cell was already a primitive cell.
 

 Routine SETGRP: Setting up the symmetry group for a 
 hexagonal supercell.


 Subroutine GETGRP returns: Found  6 space group operations
 (whereof  2 operations were pure point group operations)
 out of a pool of 24 trial point group operations.


The magnetic configuration has the point symmetry C_2 .
 The point group associated with its full space group is D_3 .


 Subroutine INISYM returns: Found  6 space group operations
 (whereof  2 operations are pure point group operations),
 and found     1 'primitive' translations

 
 
 KPOINTS: Automatic mesh                          

Automatic generation of k-mesh.
Space group operators:
 irot       det(A)        alpha          n_x          n_y          n_z        tau_x        tau_y        tau_z
    1     1.000000     0.000001     1.000000     0.000000     0.000000     0.000000     0.000000     0.000000
    2     1.000000   179.999999    -0.500000    -0.866025     0.000000     0.000000     0.000000     0.000000
    3     1.000000   120.000000     0.000000     0.000000     1.000000    -0.444444    -0.333333    -0.222222
    4     1.000000   120.000000     0.000000     0.000000    -1.000000    -0.222222    -0.666667    -0.444444
    5     1.000000   179.999999     0.500000    -0.866025     0.000000    -0.222222    -0.666667    -0.444444
    6     1.000000   179.999999     1.000000     0.000000     0.000000    -0.444444    -0.333333    -0.222222
 
 Subroutine IBZKPT returns following result:
 ===========================================
 
 Found      1 irreducible k-points:
 
 Following reciprocal coordinates:
            Coordinates               Weight
  0.000000  0.000000  0.000000      1.000000
 
 Following cartesian coordinates:
            Coordinates               Weight
  0.000000  0.000000  0.000000      1.000000
 


--------------------------------------------------------------------------------------------------------




 Dimension of arrays:
   k-points           NKPTS =      1   k-points in BZ     NKDIM =      1   number of bands    NBANDS=    448
   number of dos      NEDOS =    301   number of ions     NIONS =    105
   non local maximal  LDIM  =      6   non local SUM 2l+1 LMDIM =     18
   total plane-waves  NPLWV = 442368
   max r-space proj   IRMAX =   6702   max aug-charges    IRDMAX=  16259
   dimension x,y,z NGX =    64 NGY =  108 NGZ =   64
   dimension x,y,z NGXF=   128 NGYF=  216 NGZF=  128
   support grid    NGXF=   128 NGYF=  216 NGZF=  128
   ions per type =              24  27  54
   NGX,Y,Z   is equivalent  to a cutoff of  12.42, 12.78, 12.42 a.u.
   NGXF,Y,Z  is equivalent  to a cutoff of  24.84, 25.55, 24.84 a.u.

 SYSTEM =  unknown system                          
 POSCAR =  ce4_1                                   

 Startparameter for this run:
   NWRITE =      1    write-flag & timer
   PREC   = accura    normal or accurate (medium, high low for compatibility)
   ISTART =      0    job   : 0-new  1-cont  2-samecut
   ICHARG =      2    charge: 1-file 2-atom 10-const
   ISPIN  =      2    spin polarized calculation?
   LNONCOLLINEAR =      F non collinear calculations
   LSORBIT =      F    spin-orbit coupling
   INIWAV =      1    electr: 0-lowe 1-rand  2-diag
   LASPH  =      F    aspherical Exc in radial PAW
   METAGGA=      F    non-selfconsistent MetaGGA calc.

 Electronic Relaxation 1
   ENCUT  =  500.0 eV  36.75 Ry    6.06 a.u.  15.62 25.62 15.62*2*pi/ulx,y,z
   ENINI  =  500.0     initial cutoff
   ENAUG  =  628.9 eV  augmentation charge cutoff
   NELM   =     80;   NELMIN=  2; NELMDL= -5     # of ELM steps 
   EDIFF  = 0.1E-04   stopping-criterion for ELM
   LREAL  =      T    real-space projection
   NLSPLINE    = F    spline interpolate recip. space projectors
   LCOMPAT=      F    compatible to vasp.4.4
   GGA_COMPAT  = T    GGA compatible to vasp.4.4-vasp.4.6
   LMAXPAW     = -100 max onsite density
   LMAXMIX     =    2 max onsite mixed and CHGCAR
   VOSKOWN=      1    Vosko Wilk Nusair interpolation
   ROPT   =   -0.00025  -0.00025  -0.00025
 Ionic relaxation
   EDIFFG = -.2E-01   stopping-criterion for IOM
   NSW    =     20    number of steps for IOM
   NBLOCK =      1;   KBLOCK =     20    inner block; outer block 
   IBRION =      1    ionic relax: 0-MD 1-quasi-New 2-CG
   NFREE  =      0    steps in history (QN), initial steepest desc. (CG)
   ISIF   =      3    stress and relaxation
   IWAVPR =     11    prediction:  0-non 1-charg 2-wave 3-comb
   ISYM   =      2    0-nonsym 1-usesym 2-fastsym
   LCORR  =      T    Harris-Foulkes like correction to forces

   POTIM  = 0.5000    time-step for ionic-motion
   TEIN   =    0.0    initial temperature
   TEBEG  =    0.0;   TEEND  =   0.0 temperature during run
   SMASS  =  -3.00    Nose mass-parameter (am)
   estimated Nose-frequenzy (Omega)   =  0.10E-29 period in steps =****** mass=  -0.168E-26a.u.
   SCALEE = 1.0000    scale energy and forces
   NPACO  =    256;   APACO  = 16.0  distance and # of slots for P.C.
   PSTRESS=    0.0 pullay stress

  Mass of Ions in am
   POMASS =   7.01 58.69 16.00
  Ionic Valenz
   ZVAL   =   3.00 10.00  6.00
  Atomic Wigner-Seitz radii
   RWIGS  =   1.23  1.15  0.73
  virtual crystal weights 
   VCA    =   1.00  1.00  1.00
   NELECT =     666.0000    total number of electrons
   NUPDOWN=      -1.0000    fix difference up-down

 DOS related values:
   EMIN   =  10.00;   EMAX   =-10.00  energy-range for DOS
   EFERMI =   0.00
   ISMEAR =     0;   SIGMA  =   0.05  broadening in eV -4-tet -1-fermi 0-gaus

 Electronic relaxation 2 (details)
   IALGO  =     38    algorithm
   LDIAG  =      T    sub-space diagonalisation (order eigenvalues)
   LSUBROT=      F    optimize rotation matrix (better conditioning)
   TURBO    =      0    0=normal 1=particle mesh
   IRESTART =      0    0=no restart 2=restart with 2 vectors
   NREBOOT  =      0    no. of reboots
   NMIN     =      0    reboot dimension
   EREF     =   0.00    reference energy to select bands
   IMIX   =      4    mixing-type and parameters
     AMIX     =   0.40;   BMIX     =  1.00
     AMIX_MAG =   1.60;   BMIX_MAG =  1.00
     AMIN     =   0.10
     WC   =   100.;   INIMIX=   1;  MIXPRE=   1;  MAXMIX= -45

 Intra band minimization:
   WEIMIN = 0.0010     energy-eigenvalue tresh-hold
   EBREAK =  0.56E-08  absolut break condition
   DEPER  =   0.30     relativ break condition  

   TIME   =   0.40     timestep for ELM

  volume/ion in A,a.u.               =       8.50        57.38
  Fermi-wavevector in a.u.,A,eV,Ry     =   1.484748  2.805766 29.993713  2.204476
  Thomas-Fermi vector in A             =   2.598246
 
 Write flags
   LWAVE        =      F    write WAVECAR
   LDOWNSAMPLE  =      F    k-point downsampling of WAVECAR
   LCHARG       =      T    write CHGCAR
   LVTOT        =      F    write LOCPOT, total local potential
   LVHAR        =      F    write LOCPOT, Hartree potential only
   LELF         =      F    write electronic localiz. function (ELF)
   LORBIT       =      0    0 simple, 1 ext, 2 COOP (PROOUT), +10 PAW based schemes


 Dipole corrections
   LMONO  =      F    monopole corrections only (constant potential shift)
   LDIPOL =      F    correct potential (dipole corrections)
   IDIPOL =      0    1-x, 2-y, 3-z, 4-all directions 
   EPSILON=  1.0000000 bulk dielectric constant

 Exchange correlation treatment:
   GGA     =    PS    GGA type
   LEXCH   =    14    internal setting for exchange type
   VOSKOWN=      1    Vosko Wilk Nusair interpolation
   LHFCALC =     F    Hartree Fock is set to
   LHFONE  =     F    Hartree Fock one center treatment
   AEXX    =    0.0000 exact exchange contribution

 Linear response parameters
   LEPSILON=     F    determine dielectric tensor
   LRPA    =     F    only Hartree local field effects (RPA)
   LNABLA  =     F    use nabla operator in PAW spheres
   LVEL    =     F    velocity operator in full k-point grid
   LINTERFAST=   F  fast interpolation
   KINTER  =     0    interpolate to denser k-point grid
   CSHIFT  =0.1000    complex shift for real part using Kramers Kronig
   OMEGAMAX=  -1.0    maximum frequency
   DEG_THRESHOLD= 0.2000000E-02 threshold for treating states as degnerate
   RTIME   =   -0.100 relaxation time in fs
  (WPLASMAI=    0.000 imaginary part of plasma frequency in eV, 0.658/RTIME)
   DFIELD  = 0.0000000 0.0000000 0.0000000 field for delta impulse in time
 
 Orbital magnetization related:
   ORBITALMAG=     F  switch on orbital magnetization
   LCHIMAG   =     F  perturbation theory with respect to B field
   DQ        =  0.001000  dq finite difference perturbation B field
   LLRAUG    =     F  two centre corrections for induced B field



--------------------------------------------------------------------------------------------------------


 quasi-Newton-method for relaxation of ions
 charge density and potential will be updated during run
 spin polarized calculation
 Variant of blocked Davidson
 Davidson routine will perform the subspace rotation
 perform sub-space diagonalisation
    after iterative eigenvector-optimisation
 modified Broyden-mixing scheme, WC =      100.0
 initial mixing is a Kerker type mixing with AMIX =  0.4000 and BMIX =      1.0000
 Hartree-type preconditioning will be used
 using additional bands          115
 real space projection scheme for non local part
 use partial core corrections
 calculate Harris-corrections to forces 
   (improved forces if not selfconsistent)
 use gradient corrections 
 use of overlap-Matrix (Vanderbilt PP)
 Gauss-broadening in eV      SIGMA  =   0.05


--------------------------------------------------------------------------------------------------------


  energy-cutoff  :      500.00
  volume of cell :      892.77
      direct lattice vectors                 reciprocal lattice vectors
    -4.282476695  7.417467175  0.000000000     0.000000000  0.134816909  0.000000000
     0.000000000  0.000000000 14.052710775     0.000000000  0.000000000  0.071160648
     8.564953293  0.000000000  0.000000000     0.116754869  0.067408455  0.000000000

  length of vectors
     8.564953352 14.052710775  8.564953293     0.134816909  0.071160648  0.134816910


 
 k-points in units of 2pi/SCALE and weight: Automatic mesh                          
   0.00000000  0.00000000  0.00000000       1.000
 
 k-points in reciprocal lattice and weights: Automatic mesh                          
   0.00000000  0.00000000  0.00000000       1.000
 
 position of ions in fractional coordinates (direct lattice) 
   0.98947915  0.50000000  0.98947915
   0.10326019  0.83486569  0.21208113
   0.21208113  0.16513431  0.10326019
   0.33227873  0.49940597  0.99758440
   0.44308344  0.83273930  0.22327682
   0.55797116  0.16607264  0.11247211
   0.66635268  0.50016512  0.98947680
   0.77777778  0.83333333  0.21437573
   0.88920288  0.16650155  0.10090189
   0.99758440  0.50059403  0.33227873
   0.11247211  0.83392736  0.55797116
   0.22327682  0.16726070  0.44308344
   0.34117982  0.50000000  0.34117982
   0.45465366  0.83316821  0.56607876
   0.56607876  0.16683179  0.45465366
   0.66895684  0.49846764  0.34347442
   0.77777778  0.83333333  0.56607641
   0.88659872  0.16819903  0.45229536
   0.98947680  0.49983488  0.66635268
   0.10090189  0.83349845  0.88920288
   0.21437573  0.16666667  0.77777778
   0.34347442  0.50153236  0.66895684
   0.45229536  0.83180097  0.88659872
   0.56607641  0.16666667  0.77777778
   0.99842275  0.00000000  0.99842275
   0.11217059  0.33446167  0.22373140
   0.22373140  0.66553833  0.11217059
   0.33511557  0.99873594  0.00057706
   0.44323926  0.33206927  0.22043998
   0.55497850  0.66540261  0.11231629
   0.66557316  0.99739386  0.00111918
   0.77777778  0.33333333  0.22169968
   0.88998240  0.66927281  0.11332380
   0.00057706  0.00126406  0.33511557
   0.11231629  0.33459739  0.55497850
   0.22043998  0.66793073  0.44323926
   0.33385587  0.00000000  0.33385587
   0.44223175  0.33593947  0.55443638
   0.55443638  0.66406053  0.44223175
   0.66621697  0.99887166  0.33182415
   0.77777778  0.33333333  0.55713281
   0.88933859  0.66779501  0.44338496
   0.00111918  0.00260614  0.66557316
   0.11332380  0.33072719  0.88998240
   0.22169968  0.66666667  0.77777778
   0.33182415  0.00112834  0.66621697
   0.44338496  0.33220499  0.88933859
   0.55713281  0.66666667  0.77777778
   0.66816917  0.00000000  0.66816917
   0.77777778  0.33333333  0.88738639
   0.88738639  0.66666667  0.77777778
   0.01351645  0.73722901  0.00891066
   0.00891066  0.26277099  0.01351645
   0.10799474  0.07292354  0.22017134
   0.11237293  0.59408662  0.22485647
   0.22485647  0.40591338  0.11237293
   0.22017134  0.92707646  0.10799474
   0.33269507  0.73791670  0.99884965
   0.33521736  0.26015222  0.00058557
   0.44393236  0.07125003  0.22286048
   0.44314598  0.59348555  0.22033819
   0.55670591  0.40458337  0.11162319
   0.55496999  0.92681889  0.11240957
   0.66238092  0.73709312  0.00912050
   0.66627420  0.25986068  0.99640405
   0.77693020  0.07307690  0.22353503
   0.77862536  0.59358976  0.22438262
   0.88928136  0.40680599  0.10790763
   0.89317464  0.92957355  0.12451736
   0.00058557  0.73984778  0.33521736
   0.99884965  0.26208330  0.33269507
   0.11240957  0.07318111  0.55496999
   0.11162319  0.59541663  0.55670591
   0.22033819  0.40651445  0.44314598
   0.22286048  0.92874997  0.44393236
   0.33202052  0.73974357  0.33117293
   0.33117293  0.26025643  0.33202052
   0.44764792  0.07347265  0.55915151
   0.43103819  0.59624021  0.54643506
   0.54643506  0.40375979  0.43103819
   0.55915151  0.92652735  0.44764792
   0.66529424  0.73924671  0.33069908
   0.66560118  0.26040979  0.33538421
   0.77317199  0.07056234  0.54203911
   0.78238357  0.59610432  0.54664490
   0.88995438  0.40625688  0.44756081
   0.89026132  0.92741996  0.44318262
   0.99640405  0.74013932  0.66627420
   0.00912050  0.26290688  0.66238092
   0.12451736  0.07042645  0.89317464
   0.10790763  0.59319401  0.88928136
   0.22438262  0.40641024  0.77862536
   0.22353503  0.92692310  0.77693020
   0.33538421  0.73959021  0.66560118
   0.33069908  0.26075329  0.66529424
   0.44318262  0.07258004  0.89026132
   0.44756081  0.59374312  0.88995438
   0.54664490  0.40389568  0.78238357
   0.54203911  0.92943766  0.77317199
   0.66214193  0.73330065  0.65701480
   0.65701480  0.26669935  0.66214193
   0.77265065  0.06663398  0.89341363
   0.78290491  0.60003268  0.89854076
   0.89854076  0.39996732  0.78290491
   0.89341363  0.93336602  0.77265065
 
 position of ions in cartesian coordinates  (Angst):
   4.23742130  7.33942912  7.02635539
   1.37425562  0.76592907 11.73212608
  -0.02381379  1.57310482  2.32058470
   7.12128787  2.46466657  7.01800766
   0.01486103  3.28655687 11.70224453
  -1.42618012  4.13873276  2.33377078
   5.62118275  4.94264913  7.02867577
  -1.49469710  5.76914115 11.71059227
  -2.94377064  6.59563317  2.33979813
  -1.42618014  7.39954954  7.03470312
   4.29733773  0.83425818 11.71894000
   2.83881119  1.65614848  2.35046624
   1.46109460  2.53069012  7.02635539
   2.90139444  3.37237860 11.70827188
   1.46986827  4.19887062  2.34443889
   0.07705029  4.96196540  7.00482158
   1.51760280  5.76914115 11.71059227
   0.07705028  6.57631690  2.36365232
   1.46986825  7.33941168  7.02403500
   7.18387114  0.74843646 11.71291265
   5.74357129  1.59012494  2.34211851
   4.25866289  2.54771024  7.04788920
   5.65673229  3.35488599 11.68905845
   4.23742132  4.19885319  2.34211851
   4.27572206  7.40576797  0.00000000
   1.43588105  0.83202167  4.70009311
   0.00261136  1.65952032  9.35261766
  -1.43018213  2.48570874 14.03494730
  -0.01010367  3.28771266  4.66647341
  -1.41469871  4.11653481  9.35071043
  -2.84071582  4.93686707 14.01608744
  -1.43196781  5.76914115  4.68423688
  -2.84071583  6.60141524  9.40509723
   2.86777796  0.00428032  0.01776347
   4.27237304  0.83310239  4.70200035
   2.85229448  1.63510632  9.38623737
   1.42972995  2.47636496  0.00000000
   2.85487454  3.28023949  4.72086021
   1.41333341  4.11251365  9.33185056
  -0.01100030  4.94164251 14.03685454
   1.44100128  5.76914115  4.68423688
  -0.01100031  6.59663980  9.38433013
   5.69581017  0.00830148  0.03662333
   7.13735116  0.84057557  4.64761355
   5.71220665  1.64445010  9.36847390
   4.28508804  2.46129474  0.01585624
   5.71835773  3.28879339  4.66838064
   4.27572208  4.13251433  9.36847390
   2.86141883  4.95612289  0.00000000
   4.26960777  5.76914115  4.68423688
   2.86141882  6.58215942  9.36847390
   0.01843550  0.10025782 10.36006605
   0.07760807  0.06609453  3.69264472
   1.42327229  0.80104744  1.02477342
   1.44465071  0.83352252  8.34852745
  -0.00047370  1.66786549  5.70418333
  -0.01790873  1.63311369 13.02793736
   7.13034172  2.46775476 10.36972996
  -1.43054515  2.48646376  3.65584391
   0.00765962  3.29285371  1.00125606
  -0.01057603  3.28702076  8.34008078
  -1.42803268  4.12934781  5.68549308
  -1.41386333  4.11647168 13.02431780
  -2.75851420  4.91318873 10.35815643
   5.68085042  4.94206701  3.65174698
  -1.41261838  5.76285426  1.02692854
  -1.41261830  5.77542805  8.34154522
  -2.88410289  6.59621530  5.71672692
  -2.75851421  6.62509357 13.06302824
   2.86861334  0.00434345 10.39686687
  -1.42803261  7.40893449  3.68298081
   4.27190068  0.83379430  1.02839297
   4.29013641  0.82796135  8.36721769
   2.85193146  1.63435129  5.71262999
   2.84786512  1.65306029 13.05145471
   1.41461054  2.46275131 10.39540244
   1.42549989  2.45646434  3.65730834
   2.87206478  3.32041375  1.03248990
   2.83427976  3.19721163  8.37879122
   1.35172656  4.05316412  5.67391955
   1.43953022  4.14748797 13.02022087
  -0.01668490  4.93479819 10.38842021
   0.02212855  4.93707490  3.65946346
   1.33144863  5.73497786  0.99159216
   1.33144863  5.80330445  8.37688160
   0.02212854  6.60120740  5.70901043
  -0.01668491  6.60348412 13.03276446
   1.43953028  7.39079433 10.40096380
   5.63420331  0.06765101  3.69455435
   7.11675638  0.92360343  0.98968253
   7.15454140  0.80040130  8.33598386
   5.70797650  1.66435072  5.71116556
   5.69708732  1.65806375 13.02578223
   4.26456796  2.48770137 10.39324731
   4.28200299  2.45294957  3.66429057
   5.72712738  3.28729254  1.01994631
   5.70574896  3.31976762  8.34370034
   4.36008469  4.05472060  5.67582917
   4.30091213  4.02055731 13.06111862
   2.79169369  4.91141603 10.30486195
   2.85756413  4.87338571  3.74784883
   4.34318761  5.73111083  0.93638805
   4.34318761  5.80717147  8.43208571
   2.85756412  6.66489659  5.62062507
   2.79169368  6.62686627 13.11632273
 


--------------------------------------------------------------------------------------------------------


 use serial FFT for orbitals x direction half grid
 k-point  1 :   0.0000 0.0000 0.0000  plane waves:   11324

 maximum and minimum number of plane-waves per node :     11324    11324

 maximum number of plane-waves:     11324
 maximum index in each direction: 
   IXMAX=   15   IYMAX=   25   IZMAX=   13
   IXMIN=    0   IYMIN=  -25   IZMIN=  -15

 The following grids will avoid any aliasing or wrap around errors in the Hartre
 e energy
  - symmetry arguments have not been applied
  - exchange correlation energies might require even more grid points
  - we recommend to set PREC=Normal or Accurate and rely on VASP defaults
 NGX is ok and might be reduce to    64
 NGY is ok and might be reduce to   108
 NGZ is ok and might be reduce to    60

 serial   3D FFT for wavefunctions
 parallel 3D FFT for charge:
    minimum data exchange during FFTs selected (reduces bandwidth)


 total amount of memory used by VASP MPI-rank0   147440. kBytes
=======================================================================

   base      :      30000. kBytes
   nonlr-proj:      40512. kBytes
   fftplans  :       9349. kBytes
   grid      :      55332. kBytes
   one-center:       1632. kBytes
   wavefun   :      10615. kBytes
 
     INWAV:  cpu time    0.0000: real time    0.0000
 Broyden mixing: mesh for mixing (old mesh)
   NGX = 31   NGY = 51   NGZ = 31
  (NGX  =128   NGY  =216   NGZ  =128)
  gives a total of  49011 points

 initial charge density was supplied:
 charge density of overlapping atoms calculated
 number of electron     666.0000000 magnetization      67.5000000
 keeping initial charge density in first step


--------------------------------------------------------------------------------------------------------


 Maximum index for non-local projection operator         6468
 Maximum index for augmentation-charges         1077 (set IRDMAX)


--------------------------------------------------------------------------------------------------------


 First call to EWALD:  gamma=   0.184
 Maximum number of real-space cells 3x 2x 3
 Maximum number of reciprocal cells 2x 4x 2

    FEWALD:  cpu time    0.0043: real time    0.0043


--------------------------------------- Iteration      1(   1)  ---------------------------------------


    POTLOK:  cpu time    0.2839: real time    0.2891
    SETDIJ:  cpu time    0.0326: real time    0.0327
     EDDAV:  cpu time    5.0586: real time    5.1125
    --------------------------------------------
      LOOP:  cpu time    5.3757: real time    5.4348

 eigenvalue-minimisations  :  1808
 total energy-change (2. order) : 0.1180284E+05  (-0.3011815E+05)
 number of electron     666.0000000 magnetization      67.5000000
 augmentation part      666.0000000 magnetization      67.5000000

 Free energy of the ion-electron system (eV)
  ---------------------------------------------------
  alpha Z        PSCENC =      2097.52697550
  Ewald energy   TEWEN  =    -41509.78162479
  -Hartree energ DENC   =    -16931.30712289
  -exchange      EXHF   =         0.00000000
  -V(xc)+E(xc)   XCENC  =      2721.09010980
  PAW double counting   =     46571.68478546   -48819.84348651
  entropy T*S    EENTRO =        -0.01541252
  eigenvalues    EBANDS =     10513.49273382
  atomic energy  EATOM  =     57159.98826985
  Solvation  Ediel_sol  =         0.00000000
  ---------------------------------------------------
  free energy    TOTEN  =     11802.83522774 eV

  energy without entropy =    11802.85064026  energy(sigma->0) =    11802.84293400


--------------------------------------------------------------------------------------------------------




--------------------------------------- Iteration      1(   2)  ---------------------------------------


     EDDAV:  cpu time    5.0007: real time    5.0126
    --------------------------------------------
      LOOP:  cpu time    5.0005: real time    5.0124

 eigenvalue-minimisations  :  1840
 total energy-change (2. order) :-0.9603920E+04  (-0.8747650E+04)
 number of electron     666.0000000 magnetization      67.5000000
 augmentation part      666.0000000 magnetization      67.5000000

 Free energy of the ion-electron system (eV)
  ---------------------------------------------------
  alpha Z        PSCENC =      2097.52697550
  Ewald energy   TEWEN  =    -41509.78162479
  -Hartree energ DENC   =    -16931.30712289
  -exchange      EXHF   =         0.00000000
  -V(xc)+E(xc)   XCENC  =      2721.09010980
  PAW double counting   =     46571.68478546   -48819.84348651
  entropy T*S    EENTRO =        -0.02952466
  eigenvalues    EBANDS =       909.58704449
  atomic energy  EATOM  =     57159.98826985
  Solvation  Ediel_sol  =         0.00000000
  ---------------------------------------------------
  free energy    TOTEN  =      2198.91542627 eV

  energy without entropy =     2198.94495092  energy(sigma->0) =     2198.93018859


--------------------------------------------------------------------------------------------------------




--------------------------------------- Iteration      1(   3)  ---------------------------------------


     EDDAV:  cpu time    4.8799: real time    4.8915
    --------------------------------------------
      LOOP:  cpu time    4.8799: real time    4.8915

 eigenvalue-minimisations  :  1952
 total energy-change (2. order) :-0.2552203E+04  (-0.2169955E+04)
 number of electron     666.0000000 magnetization      67.5000000
 augmentation part      666.0000000 magnetization      67.5000000

 Free energy of the ion-electron system (eV)
  ---------------------------------------------------
  alpha Z        PSCENC =      2097.52697550
  Ewald energy   TEWEN  =    -41509.78162479
  -Hartree energ DENC   =    -16931.30712289
  -exchange      EXHF   =         0.00000000
  -V(xc)+E(xc)   XCENC  =      2721.09010980
  PAW double counting   =     46571.68478546   -48819.84348651
  entropy T*S    EENTRO =        -0.10751080
  eigenvalues    EBANDS =     -1642.53785229
  atomic energy  EATOM  =     57159.98826985
  Solvation  Ediel_sol  =         0.00000000
  ---------------------------------------------------
  free energy    TOTEN  =      -353.28745665 eV

  energy without entropy =     -353.17994585  energy(sigma->0) =     -353.23370125


--------------------------------------------------------------------------------------------------------




--------------------------------------- Iteration      1(   4)  ---------------------------------------


     EDDAV:  cpu time    5.2675: real time    5.2806
    --------------------------------------------
      LOOP:  cpu time    5.2675: real time    5.2807

 eigenvalue-minimisations  :  2208
 total energy-change (2. order) :-0.4376347E+03  (-0.4189739E+03)
 number of electron     666.0000000 magnetization      67.5000000
 augmentation part      666.0000000 magnetization      67.5000000

 Free energy of the ion-electron system (eV)
  ---------------------------------------------------
  alpha Z        PSCENC =      2097.52697550
  Ewald energy   TEWEN  =    -41509.78162479
  -Hartree energ DENC   =    -16931.30712289
  -exchange      EXHF   =         0.00000000
  -V(xc)+E(xc)   XCENC  =      2721.09010980
  PAW double counting   =     46571.68478546   -48819.84348651
  entropy T*S    EENTRO =        -0.19705457
  eigenvalues    EBANDS =     -2080.08302391
  atomic energy  EATOM  =     57159.98826985
  Solvation  Ediel_sol  =         0.00000000
  ---------------------------------------------------
  free energy    TOTEN  =      -790.92217205 eV

  energy without entropy =     -790.72511748  energy(sigma->0) =     -790.82364476


--------------------------------------------------------------------------------------------------------




--------------------------------------- Iteration      1(   5)  ---------------------------------------


     EDDAV:  cpu time    6.3504: real time    6.3655
    CHARGE:  cpu time    0.3382: real time    0.3391
    MIXING:  cpu time    0.0047: real time    0.0048
    --------------------------------------------
      LOOP:  cpu time    6.6931: real time    6.7090

 eigenvalue-minimisations  :  2768
 total energy-change (2. order) :-0.2731596E+02  (-0.2701089E+02)
 number of electron     665.9999945 magnetization      71.8983924
 augmentation part      203.6762822 magnetization      51.0644459

 Broyden mixing:
  rms(total) = 0.14106E+02    rms(broyden)= 0.14105E+02
  rms(prec ) = 0.15633E+02
  weight for this iteration     100.00

 Free energy of the ion-electron system (eV)
  ---------------------------------------------------
  alpha Z        PSCENC =      2097.52697550
  Ewald energy   TEWEN  =    -41509.78162479
  -Hartree energ DENC   =    -16931.30712289
  -exchange      EXHF   =         0.00000000
  -V(xc)+E(xc)   XCENC  =      2721.09010980
  PAW double counting   =     46571.68478546   -48819.84348651
  entropy T*S    EENTRO =        -0.19017452
  eigenvalues    EBANDS =     -2107.40586891
  atomic energy  EATOM  =     57159.98826985
  Solvation  Ediel_sol  =         0.00000000
  ---------------------------------------------------
  free energy    TOTEN  =      -818.23813699 eV

  energy without entropy =     -818.04796247  energy(sigma->0) =     -818.14304973


--------------------------------------------------------------------------------------------------------




--------------------------------------- Iteration      1(   6)  ---------------------------------------


    POTLOK:  cpu time    0.2385: real time    0.2390
    SETDIJ:  cpu time    0.0325: real time    0.0325
     EDDAV:  cpu time    6.2937: real time    6.3085
    CHARGE:  cpu time    0.3296: real time    0.3303
    MIXING:  cpu time    0.0047: real time    0.0047
    --------------------------------------------
      LOOP:  cpu time    6.8989: real time    6.9152

 eigenvalue-minimisations  :  2832
 total energy-change (2. order) : 0.1460041E+02  (-0.1456709E+03)
 number of electron     665.9999965 magnetization      66.9352637
 augmentation part      248.5872864 magnetization      66.7537757

 Broyden mixing:
  rms(total) = 0.24555E+02    rms(broyden)= 0.24554E+02
  rms(prec ) = 0.25468E+02
  weight for this iteration     100.00

 eigenvalues of (default mixing * dielectric matrix)
  average eigenvalue GAMMA=   0.2592
  0.2592

 Free energy of the ion-electron system (eV)
  ---------------------------------------------------
  alpha Z        PSCENC =      2097.52697550
  Ewald energy   TEWEN  =    -41509.78162479
  -Hartree energ DENC   =    -16177.77669379
  -exchange      EXHF   =         0.00000000
  -V(xc)+E(xc)   XCENC  =      2755.98038087
  PAW double counting   =     50882.66064955   -52862.03065977
  entropy T*S    EENTRO =        -0.08990214
  eigenvalues    EBANDS =     -3150.11512450
  atomic energy  EATOM  =     57159.98826985
  Solvation  Ediel_sol  =         0.00000000
  ---------------------------------------------------
  free energy    TOTEN  =      -803.63772921 eV

  energy without entropy =     -803.54782707  energy(sigma->0) =     -803.59277814


--------------------------------------------------------------------------------------------------------




--------------------------------------- Iteration      1(   7)  ---------------------------------------


    POTLOK:  cpu time    0.2381: real time    0.2387
    SETDIJ:  cpu time    0.0324: real time    0.0325
     EDDAV:  cpu time    5.6737: real time    5.6871
    CHARGE:  cpu time    0.3297: real time    0.3305
    MIXING:  cpu time    0.0050: real time    0.0050
    --------------------------------------------
      LOOP:  cpu time    6.2789: real time    6.2938

 eigenvalue-minimisations  :  2496
 total energy-change (2. order) : 0.1476866E+03  (-0.3950057E+02)
 number of electron     665.9999961 magnetization      59.2022989
 augmentation part      231.5797506 magnetization      51.9665094

 Broyden mixing:
  rms(total) = 0.95859E+01    rms(broyden)= 0.95854E+01
  rms(prec ) = 0.10152E+02
  weight for this iteration     100.00

 eigenvalues of (default mixing * dielectric matrix)
  average eigenvalue GAMMA=   0.5720
  0.5720  0.5720

 Free energy of the ion-electron system (eV)
  ---------------------------------------------------
  alpha Z        PSCENC =      2097.52697550
  Ewald energy   TEWEN  =    -41509.78162479
  -Hartree energ DENC   =    -16427.61066227
  -exchange      EXHF   =         0.00000000
  -V(xc)+E(xc)   XCENC  =      2728.40658752
  PAW double counting   =     52718.77097537   -54868.04996847
  entropy T*S    EENTRO =        -0.07160471
  eigenvalues    EBANDS =     -2555.13008057
  atomic energy  EATOM  =     57159.98826985
  Solvation  Ediel_sol  =         0.00000000
  ---------------------------------------------------
  free energy    TOTEN  =      -655.95113256 eV

  energy without entropy =     -655.87952785  energy(sigma->0) =     -655.91533021


--------------------------------------------------------------------------------------------------------




--------------------------------------- Iteration      1(   8)  ---------------------------------------


    POTLOK:  cpu time    0.2389: real time    0.2394
    SETDIJ:  cpu time    0.0323: real time    0.0324
     EDDAV:  cpu time    5.9341: real time    5.9481
    CHARGE:  cpu time    0.3333: real time    0.3341
    MIXING:  cpu time    0.0053: real time    0.0053
    --------------------------------------------
      LOOP:  cpu time    6.5439: real time    6.5593

 eigenvalue-minimisations  :  2640
 total energy-change (2. order) : 0.1318311E+02  (-0.1736291E+02)
 number of electron     665.9999947 magnetization      57.7944812
 augmentation part      218.0702754 magnetization      44.1363632

 Broyden mixing:
  rms(total) = 0.10631E+02    rms(broyden)= 0.10630E+02
  rms(prec ) = 0.12173E+02
  weight for this iteration     100.00

 eigenvalues of (default mixing * dielectric matrix)
  average eigenvalue GAMMA=   0.4622
  0.6017  0.6017  0.1833

 Free energy of the ion-electron system (eV)
  ---------------------------------------------------
  alpha Z        PSCENC =      2097.52697550
  Ewald energy   TEWEN  =    -41509.78162479
  -Hartree energ DENC   =    -16431.78878879
  -exchange      EXHF   =         0.00000000
  -V(xc)+E(xc)   XCENC  =      2707.16406408
  PAW double counting   =     55021.86831749   -57277.53262420
  entropy T*S    EENTRO =        -0.10146999
  eigenvalues    EBANDS =     -2410.11114551
  atomic energy  EATOM  =     57159.98826985
  Solvation  Ediel_sol  =         0.00000000
  ---------------------------------------------------
  free energy    TOTEN  =      -642.76802636 eV

  energy without entropy =     -642.66655637  energy(sigma->0) =     -642.71729137


--------------------------------------------------------------------------------------------------------




--------------------------------------- Iteration      1(   9)  ---------------------------------------


    POTLOK:  cpu time    0.2384: real time    0.2389
    SETDIJ:  cpu time    0.0325: real time    0.0326
     EDDAV:  cpu time    5.9028: real time    5.9167
    CHARGE:  cpu time    0.3337: real time    0.3345
    MIXING:  cpu time    0.0052: real time    0.0052
    --------------------------------------------
      LOOP:  cpu time    6.5125: real time    6.5279

 eigenvalue-minimisations  :  2624
 total energy-change (2. order) : 0.7405490E+01  (-0.1914903E+02)
 number of electron     665.9999958 magnetization      51.4868994
 augmentation part      221.1147111 magnetization      48.5042220

 Broyden mixing:
  rms(total) = 0.61311E+01    rms(broyden)= 0.61293E+01
  rms(prec ) = 0.69154E+01
  weight for this iteration     100.00

 eigenvalues of (default mixing * dielectric matrix)
  average eigenvalue GAMMA=   0.4495
  0.6852  0.6852  0.2959  0.1317

 Free energy of the ion-electron system (eV)
  ---------------------------------------------------
  alpha Z        PSCENC =      2097.52697550
  Ewald energy   TEWEN  =    -41509.78162479
  -Hartree energ DENC   =    -16427.93680908
  -exchange      EXHF   =         0.00000000
  -V(xc)+E(xc)   XCENC  =      2705.53728421
  PAW double counting   =     55628.50945099   -57900.11112608
  entropy T*S    EENTRO =        -0.10792319
  eigenvalues    EBANDS =     -2388.98703384
  atomic energy  EATOM  =     57159.98826985
  Solvation  Ediel_sol  =         0.00000000
  ---------------------------------------------------
  free energy    TOTEN  =      -635.36253643 eV

  energy without entropy =     -635.25461323  energy(sigma->0) =     -635.30857483


--------------------------------------------------------------------------------------------------------




--------------------------------------- Iteration      1(  10)  ---------------------------------------


    POTLOK:  cpu time    0.2384: real time    0.2390
    SETDIJ:  cpu time    0.0322: real time    0.0323
     EDDAV:  cpu time    5.8439: real time    5.8577
    CHARGE:  cpu time    0.3327: real time    0.3335
    MIXING:  cpu time    0.0054: real time    0.0054
    --------------------------------------------
      LOOP:  cpu time    6.4526: real time    6.4678

 eigenvalue-minimisations  :  2592
 total energy-change (2. order) : 0.5511598E+01  (-0.4919181E+01)
 number of electron     665.9999957 magnetization      46.3828384
 augmentation part      223.2024226 magnetization      37.6734914

 Broyden mixing:
  rms(total) = 0.44906E+01    rms(broyden)= 0.44892E+01
  rms(prec ) = 0.48720E+01
  weight for this iteration     100.00

 eigenvalues of (default mixing * dielectric matrix)
  average eigenvalue GAMMA=   0.4985
  0.8188  0.8188  0.3745  0.3745  0.1059

 Free energy of the ion-electron system (eV)
  ---------------------------------------------------
  alpha Z        PSCENC =      2097.52697550
  Ewald energy   TEWEN  =    -41509.78162479
  -Hartree energ DENC   =    -16384.29544476
  -exchange      EXHF   =         0.00000000
  -V(xc)+E(xc)   XCENC  =      2702.82251286
  PAW double counting   =     56931.34673734   -59216.97585523
  entropy T*S    EENTRO =        -0.03620995
  eigenvalues    EBANDS =     -2410.44629963
  atomic energy  EATOM  =     57159.98826985
  Solvation  Ediel_sol  =         0.00000000
  ---------------------------------------------------
  free energy    TOTEN  =      -629.85093880 eV

  energy without entropy =     -629.81472885  energy(sigma->0) =     -629.83283383


--------------------------------------------------------------------------------------------------------




--------------------------------------- Iteration      1(  11)  ---------------------------------------


    POTLOK:  cpu time    0.2394: real time    0.2400
    SETDIJ:  cpu time    0.0323: real time    0.0324
     EDDAV:  cpu time    5.7311: real time    5.7446
    CHARGE:  cpu time    0.3330: real time    0.3338
    MIXING:  cpu time    0.0060: real time    0.0060
    --------------------------------------------
      LOOP:  cpu time    6.3418: real time    6.3568

 eigenvalue-minimisations  :  2528
 total energy-change (2. order) :-0.5886969E+01  (-0.2903313E+01)
 number of electron     665.9999954 magnetization      42.5099052
 augmentation part      221.8963755 magnetization      33.1145782

 Broyden mixing:
  rms(total) = 0.69491E+01    rms(broyden)= 0.69481E+01
  rms(prec ) = 0.80237E+01
  weight for this iteration     100.00

 eigenvalues of (default mixing * dielectric matrix)
  average eigenvalue GAMMA=   0.4759
  0.8880  0.8880  0.4154  0.4154  0.1167  0.1320

 Free energy of the ion-electron system (eV)
  ---------------------------------------------------
  alpha Z        PSCENC =      2097.52697550
  Ewald energy   TEWEN  =    -41509.78162479
  -Hartree energ DENC   =    -16410.61346820
  -exchange      EXHF   =         0.00000000
  -V(xc)+E(xc)   XCENC  =      2703.97050268
  PAW double counting   =     57819.19366423   -60120.12606451
  entropy T*S    EENTRO =        -0.10381092
  eigenvalues    EBANDS =     -2375.79235194
  atomic energy  EATOM  =     57159.98826985
  Solvation  Ediel_sol  =         0.00000000
  ---------------------------------------------------
  free energy    TOTEN  =      -635.73790808 eV

  energy without entropy =     -635.63409717  energy(sigma->0) =     -635.68600263


--------------------------------------------------------------------------------------------------------




--------------------------------------- Iteration      1(  12)  ---------------------------------------


    POTLOK:  cpu time    0.2380: real time    0.2385
    SETDIJ:  cpu time    0.0324: real time    0.0325
     EDDAV:  cpu time    5.7604: real time    5.7740
    CHARGE:  cpu time    0.3329: real time    0.3336
    MIXING:  cpu time    0.0062: real time    0.0062
    --------------------------------------------
      LOOP:  cpu time    6.3698: real time    6.3848

 eigenvalue-minimisations  :  2544
 total energy-change (2. order) : 0.7770853E+01  (-0.1838142E+01)
 number of electron     665.9999959 magnetization      37.5177258
 augmentation part      221.9470597 magnetization      28.3196947

 Broyden mixing:
  rms(total) = 0.32257E+01    rms(broyden)= 0.32247E+01
  rms(prec ) = 0.36456E+01
  weight for this iteration     100.00

 eigenvalues of (default mixing * dielectric matrix)
  average eigenvalue GAMMA=   0.5129
  1.2663  0.5037  0.5037  0.6037  0.4729  0.1120  0.1283

 Free energy of the ion-electron system (eV)
  ---------------------------------------------------
  alpha Z        PSCENC =      2097.52697550
  Ewald energy   TEWEN  =    -41509.78162479
  -Hartree energ DENC   =    -16439.06444807
  -exchange      EXHF   =         0.00000000
  -V(xc)+E(xc)   XCENC  =      2705.30024777
  PAW double counting   =     58496.18223680   -60813.42593719
  entropy T*S    EENTRO =        -0.07807605
  eigenvalues    EBANDS =     -2324.61469902
  atomic energy  EATOM  =     57159.98826985
  Solvation  Ediel_sol  =         0.00000000
  ---------------------------------------------------
  free energy    TOTEN  =      -627.96705519 eV

  energy without entropy =     -627.88897913  energy(sigma->0) =     -627.92801716


--------------------------------------------------------------------------------------------------------




--------------------------------------- Iteration      1(  13)  ---------------------------------------


    POTLOK:  cpu time    0.2383: real time    0.2388
    SETDIJ:  cpu time    0.0322: real time    0.0323
     EDDAV:  cpu time    5.1192: real time    5.1312
    CHARGE:  cpu time    0.3336: real time    0.3344
    MIXING:  cpu time    0.0067: real time    0.0067
    --------------------------------------------
      LOOP:  cpu time    5.7299: real time    5.7434

 eigenvalue-minimisations  :  2192
 total energy-change (2. order) :-0.2460000E+01  (-0.2075662E+01)
 number of electron     665.9999955 magnetization      31.7656792
 augmentation part      221.3339985 magnetization      23.4466959

 Broyden mixing:
  rms(total) = 0.43965E+01    rms(broyden)= 0.43959E+01
  rms(prec ) = 0.51324E+01
  weight for this iteration     100.00

 eigenvalues of (default mixing * dielectric matrix)
  average eigenvalue GAMMA=   0.5775
  1.8946  0.7140  0.7140  0.4391  0.4391  0.1963  0.1114  0.1114

 Free energy of the ion-electron system (eV)
  ---------------------------------------------------
  alpha Z        PSCENC =      2097.52697550
  Ewald energy   TEWEN  =    -41509.78162479
  -Hartree energ DENC   =    -16454.45337418
  -exchange      EXHF   =         0.00000000
  -V(xc)+E(xc)   XCENC  =      2706.11420385
  PAW double counting   =     59362.47247864   -61697.80652506
  entropy T*S    EENTRO =        -0.08013196
  eigenvalues    EBANDS =     -2294.40732694
  atomic energy  EATOM  =     57159.98826985
  Solvation  Ediel_sol  =         0.00000000
  ---------------------------------------------------
  free energy    TOTEN  =      -630.42705508 eV

  energy without entropy =     -630.34692313  energy(sigma->0) =     -630.38698911


--------------------------------------------------------------------------------------------------------




--------------------------------------- Iteration      1(  14)  ---------------------------------------


    POTLOK:  cpu time    0.2386: real time    0.2391
    SETDIJ:  cpu time    0.0328: real time    0.0328
     EDDAV:  cpu time    5.1497: real time    5.1618
    CHARGE:  cpu time    0.3336: real time    0.3344
    MIXING:  cpu time    0.0064: real time    0.0064
    --------------------------------------------
      LOOP:  cpu time    5.7610: real time    5.7746

 eigenvalue-minimisations  :  2208
 total energy-change (2. order) : 0.2220635E+01  (-0.1480938E+01)
 number of electron     665.9999959 magnetization      29.0844223
 augmentation part      221.5203576 magnetization      20.9547080

 Broyden mixing:
  rms(total) = 0.29752E+01    rms(broyden)= 0.29741E+01
  rms(prec ) = 0.33908E+01
  weight for this iteration     100.00

 eigenvalues of (default mixing * dielectric matrix)
  average eigenvalue GAMMA=   0.5797
  1.9919  0.7709  0.7709  0.4597  0.4297  0.4297  0.1400  0.1122  0.1122

 Free energy of the ion-electron system (eV)
  ---------------------------------------------------
  alpha Z        PSCENC =      2097.52697550
  Ewald energy   TEWEN  =    -41509.78162479
  -Hartree energ DENC   =    -16454.96141434
  -exchange      EXHF   =         0.00000000
  -V(xc)+E(xc)   XCENC  =      2705.94671230
  PAW double counting   =     60267.94834356   -62617.15876643
  entropy T*S    EENTRO =        -0.06957685
  eigenvalues    EBANDS =     -2277.64533899
  atomic energy  EATOM  =     57159.98826985
  Solvation  Ediel_sol  =         0.00000000
  ---------------------------------------------------
  free energy    TOTEN  =      -628.20642018 eV

  energy without entropy =     -628.13684333  energy(sigma->0) =     -628.17163176


--------------------------------------------------------------------------------------------------------




--------------------------------------- Iteration      1(  15)  ---------------------------------------


    POTLOK:  cpu time    0.2383: real time    0.2389
    SETDIJ:  cpu time    0.0322: real time    0.0323
     EDDAV:  cpu time    5.5554: real time    5.5685
    CHARGE:  cpu time    0.3331: real time    0.3339
    MIXING:  cpu time    0.0071: real time    0.0071
    --------------------------------------------
      LOOP:  cpu time    6.1662: real time    6.1807

 eigenvalue-minimisations  :  2432
 total energy-change (2. order) :-0.1695655E+00  (-0.8414690E+00)
 number of electron     665.9999958 magnetization      27.1051327
 augmentation part      221.3455349 magnetization      19.5431655

 Broyden mixing:
  rms(total) = 0.21507E+01    rms(broyden)= 0.21502E+01
  rms(prec ) = 0.23898E+01
  weight for this iteration     100.00

 eigenvalues of (default mixing * dielectric matrix)
  average eigenvalue GAMMA=   0.5774
  2.0993  0.8457  0.8457  0.4999  0.4490  0.4490  0.2213  0.1423  0.1110  0.1110

 Free energy of the ion-electron system (eV)
  ---------------------------------------------------
  alpha Z        PSCENC =      2097.52697550
  Ewald energy   TEWEN  =    -41509.78162479
  -Hartree energ DENC   =    -16457.35493501
  -exchange      EXHF   =         0.00000000
  -V(xc)+E(xc)   XCENC  =      2705.46002004
  PAW double counting   =     60487.84475492   -62840.66235410
  entropy T*S    EENTRO =        -0.05540018
  eigenvalues    EBANDS =     -2271.34169188
  atomic energy  EATOM  =     57159.98826985
  Solvation  Ediel_sol  =         0.00000000
  ---------------------------------------------------
  free energy    TOTEN  =      -628.37598564 eV

  energy without entropy =     -628.32058546  energy(sigma->0) =     -628.34828555


--------------------------------------------------------------------------------------------------------




--------------------------------------- Iteration      1(  16)  ---------------------------------------


    POTLOK:  cpu time    0.2381: real time    0.2387
    SETDIJ:  cpu time    0.0323: real time    0.0324
     EDDAV:  cpu time    5.4688: real time    5.4817
    CHARGE:  cpu time    0.3330: real time    0.3338
    MIXING:  cpu time    0.0069: real time    0.0069
    --------------------------------------------
      LOOP:  cpu time    6.0791: real time    6.0935

 eigenvalue-minimisations  :  2384
 total energy-change (2. order) :-0.2596699E+00  (-0.4369515E+00)
 number of electron     665.9999959 magnetization      25.5786810
 augmentation part      221.2752433 magnetization      17.6646928

 Broyden mixing:
  rms(total) = 0.17532E+01    rms(broyden)= 0.17527E+01
  rms(prec ) = 0.19350E+01
  weight for this iteration     100.00

 eigenvalues of (default mixing * dielectric matrix)
  average eigenvalue GAMMA=   0.6053
  2.3654  0.9523  0.9523  0.5235  0.5235  0.4183  0.4183  0.1116  0.1116  0.1501
  0.1315

 Free energy of the ion-electron system (eV)
  ---------------------------------------------------
  alpha Z        PSCENC =      2097.52697550
  Ewald energy   TEWEN  =    -41509.78162479
  -Hartree energ DENC   =    -16457.94970747
  -exchange      EXHF   =         0.00000000
  -V(xc)+E(xc)   XCENC  =      2705.20407763
  PAW double counting   =     60615.97900373   -62969.76418541
  entropy T*S    EENTRO =        -0.07621973
  eigenvalues    EBANDS =     -2269.76224481
  atomic energy  EATOM  =     57159.98826985
  Solvation  Ediel_sol  =         0.00000000
  ---------------------------------------------------
  free energy    TOTEN  =      -628.63565550 eV

  energy without entropy =     -628.55943577  energy(sigma->0) =     -628.59754564


--------------------------------------------------------------------------------------------------------




--------------------------------------- Iteration      1(  17)  ---------------------------------------


    POTLOK:  cpu time    0.2384: real time    0.2390
    SETDIJ:  cpu time    0.0322: real time    0.0323
     EDDAV:  cpu time    5.6435: real time    5.6569
    CHARGE:  cpu time    0.3329: real time    0.3337
    MIXING:  cpu time    0.0072: real time    0.0072
    --------------------------------------------
      LOOP:  cpu time    6.2543: real time    6.2691

 eigenvalue-minimisations  :  2480
 total energy-change (2. order) :-0.8879019E+00  (-0.1667418E+00)
 number of electron     665.9999959 magnetization      24.8872418
 augmentation part      221.2456675 magnetization      16.9281839

 Broyden mixing:
  rms(total) = 0.16774E+01    rms(broyden)= 0.16772E+01
  rms(prec ) = 0.18616E+01
  weight for this iteration     100.00

 eigenvalues of (default mixing * dielectric matrix)
  average eigenvalue GAMMA=   0.5859
  2.4465  0.9908  0.9908  0.5539  0.5539  0.4133  0.4133  0.1112  0.1112  0.1558
  0.1558  0.1341

 Free energy of the ion-electron system (eV)
  ---------------------------------------------------
  alpha Z        PSCENC =      2097.52697550
  Ewald energy   TEWEN  =    -41509.78162479
  -Hartree energ DENC   =    -16455.35629638
  -exchange      EXHF   =         0.00000000
  -V(xc)+E(xc)   XCENC  =      2704.94269211
  PAW double counting   =     60693.47837341   -63046.75869377
  entropy T*S    EENTRO =        -0.06731443
  eigenvalues    EBANDS =     -2273.49593886
  atomic energy  EATOM  =     57159.98826985
  Solvation  Ediel_sol  =         0.00000000
  ---------------------------------------------------
  free energy    TOTEN  =      -629.52355735 eV

  energy without entropy =     -629.45624293  energy(sigma->0) =     -629.48990014


--------------------------------------------------------------------------------------------------------




--------------------------------------- Iteration      1(  18)  ---------------------------------------


    POTLOK:  cpu time    0.2380: real time    0.2385
    SETDIJ:  cpu time    0.0323: real time    0.0324
     EDDAV:  cpu time    5.5842: real time    5.5974
    CHARGE:  cpu time    0.3335: real time    0.3343
    MIXING:  cpu time    0.0075: real time    0.0075
    --------------------------------------------
      LOOP:  cpu time    6.1955: real time    6.2101

 eigenvalue-minimisations  :  2448
 total energy-change (2. order) : 0.4922800E-01  (-0.1381242E+00)
 number of electron     665.9999959 magnetization      24.8499985
 augmentation part      221.2786495 magnetization      17.2346718

 Broyden mixing:
  rms(total) = 0.10273E+01    rms(broyden)= 0.10271E+01
  rms(prec ) = 0.11122E+01
  weight for this iteration     100.00

 eigenvalues of (default mixing * dielectric matrix)
  average eigenvalue GAMMA=   0.5991
  2.4533  1.0993  1.0993  0.6001  0.6001  0.4339  0.4339  0.4031  0.1706  0.1115
  0.1115  0.1359  0.1359

 Free energy of the ion-electron system (eV)
  ---------------------------------------------------
  alpha Z        PSCENC =      2097.52697550
  Ewald energy   TEWEN  =    -41509.78162479
  -Hartree energ DENC   =    -16453.12967542
  -exchange      EXHF   =         0.00000000
  -V(xc)+E(xc)   XCENC  =      2704.75177452
  PAW double counting   =     60733.98496278   -63086.92112618
  entropy T*S    EENTRO =        -0.06009321
  eigenvalues    EBANDS =     -2275.83379240
  atomic energy  EATOM  =     57159.98826985
  Solvation  Ediel_sol  =         0.00000000
  ---------------------------------------------------
  free energy    TOTEN  =      -629.47432936 eV

  energy without entropy =     -629.41423614  energy(sigma->0) =     -629.44428275


--------------------------------------------------------------------------------------------------------




--------------------------------------- Iteration      1(  19)  ---------------------------------------


    POTLOK:  cpu time    0.2390: real time    0.2396
    SETDIJ:  cpu time    0.0324: real time    0.0325
     EDDAV:  cpu time    5.3232: real time    5.3358
    CHARGE:  cpu time    0.3328: real time    0.3335
    MIXING:  cpu time    0.0077: real time    0.0077
    --------------------------------------------
      LOOP:  cpu time    5.9351: real time    5.9491

 eigenvalue-minimisations  :  2304
 total energy-change (2. order) :-0.2603408E+00  (-0.4342057E-01)
 number of electron     665.9999959 magnetization      25.1537994
 augmentation part      221.4018113 magnetization      17.3997743

 Broyden mixing:
  rms(total) = 0.90969E+00    rms(broyden)= 0.90961E+00
  rms(prec ) = 0.96678E+00
  weight for this iteration     100.00

 eigenvalues of (default mixing * dielectric matrix)
  average eigenvalue GAMMA=   0.5820
  2.4046  1.1202  1.1202  0.5443  0.5443  0.4871  0.4871  0.3879  0.3879  0.1114
  0.1114  0.1642  0.1431  0.1339

 Free energy of the ion-electron system (eV)
  ---------------------------------------------------
  alpha Z        PSCENC =      2097.52697550
  Ewald energy   TEWEN  =    -41509.78162479
  -Hartree energ DENC   =    -16448.76787741
  -exchange      EXHF   =         0.00000000
  -V(xc)+E(xc)   XCENC  =      2704.47452529
  PAW double counting   =     60695.34328592   -63046.24901485
  entropy T*S    EENTRO =        -0.03438520
  eigenvalues    EBANDS =     -2282.23482448
  atomic energy  EATOM  =     57159.98826985
  Solvation  Ediel_sol  =         0.00000000
  ---------------------------------------------------
  free energy    TOTEN  =      -629.73467017 eV

  energy without entropy =     -629.70028497  energy(sigma->0) =     -629.71747757


--------------------------------------------------------------------------------------------------------




--------------------------------------- Iteration      1(  20)  ---------------------------------------


    POTLOK:  cpu time    0.2384: real time    0.2390
    SETDIJ:  cpu time    0.0326: real time    0.0326
     EDDAV:  cpu time    5.7876: real time    5.8012
    CHARGE:  cpu time    0.3326: real time    0.3334
    MIXING:  cpu time    0.0080: real time    0.0081
    --------------------------------------------
      LOOP:  cpu time    6.3992: real time    6.4143

 eigenvalue-minimisations  :  2560
 total energy-change (2. order) :-0.1215569E+00  (-0.8104465E-02)
 number of electron     665.9999959 magnetization      25.0180630
 augmentation part      221.3904338 magnetization      17.3655355

 Broyden mixing:
  rms(total) = 0.79125E+00    rms(broyden)= 0.79122E+00
  rms(prec ) = 0.84624E+00
  weight for this iteration     100.00

 eigenvalues of (default mixing * dielectric matrix)
  average eigenvalue GAMMA=   0.6406
  2.3819  1.1512  1.1512  0.8573  0.8573  0.6122  0.6122  0.4337  0.4337  0.4546
  0.1663  0.1115  0.1115  0.1395  0.1356

 Free energy of the ion-electron system (eV)
  ---------------------------------------------------
  alpha Z        PSCENC =      2097.52697550
  Ewald energy   TEWEN  =    -41509.78162479
  -Hartree energ DENC   =    -16447.89642708
  -exchange      EXHF   =         0.00000000
  -V(xc)+E(xc)   XCENC  =      2704.39920900
  PAW double counting   =     60663.72475082   -63014.02520259
  entropy T*S    EENTRO =        -0.02868112
  eigenvalues    EBANDS =     -2283.76349669
  atomic energy  EATOM  =     57159.98826985
  Solvation  Ediel_sol  =         0.00000000
  ---------------------------------------------------
  free energy    TOTEN  =      -629.85622709 eV

  energy without entropy =     -629.82754598  energy(sigma->0) =     -629.84188653


--------------------------------------------------------------------------------------------------------




--------------------------------------- Iteration      1(  21)  ---------------------------------------


    POTLOK:  cpu time    0.2381: real time    0.2387
    SETDIJ:  cpu time    0.0324: real time    0.0324
     EDDAV:  cpu time    5.7707: real time    5.7844
    CHARGE:  cpu time    0.3324: real time    0.3332
    MIXING:  cpu time    0.0085: real time    0.0085
    --------------------------------------------
      LOOP:  cpu time    6.3821: real time    6.3972

 eigenvalue-minimisations  :  2544
 total energy-change (2. order) :-0.2543543E+00  (-0.2860405E-01)
 number of electron     665.9999959 magnetization      25.0749495
 augmentation part      221.4778460 magnetization      17.7260472

 Broyden mixing:
  rms(total) = 0.45709E+00    rms(broyden)= 0.45683E+00
  rms(prec ) = 0.47720E+00
  weight for this iteration     100.00

 eigenvalues of (default mixing * dielectric matrix)
  average eigenvalue GAMMA=   0.6985
  2.3433  1.5957  1.5957  0.9506  0.9506  0.6112  0.6112  0.4569  0.4569  0.4694
  0.4694  0.1665  0.1115  0.1115  0.1398  0.1355

 Free energy of the ion-electron system (eV)
  ---------------------------------------------------
  alpha Z        PSCENC =      2097.52697550
  Ewald energy   TEWEN  =    -41509.78162479
  -Hartree energ DENC   =    -16443.99828145
  -exchange      EXHF   =         0.00000000
  -V(xc)+E(xc)   XCENC  =      2704.38870270
  PAW double counting   =     60654.70315430   -63002.88519224
  entropy T*S    EENTRO =        -0.02212913
  eigenvalues    EBANDS =     -2290.03045608
  atomic energy  EATOM  =     57159.98826985
  Solvation  Ediel_sol  =         0.00000000
  ---------------------------------------------------
  free energy    TOTEN  =      -630.11058135 eV

  energy without entropy =     -630.08845222  energy(sigma->0) =     -630.09951678


--------------------------------------------------------------------------------------------------------




--------------------------------------- Iteration      1(  22)  ---------------------------------------


    POTLOK:  cpu time    0.2377: real time    0.2383
    SETDIJ:  cpu time    0.0322: real time    0.0322
     EDDAV:  cpu time    5.9727: real time    5.9867
    CHARGE:  cpu time    0.3301: real time    0.3309
    MIXING:  cpu time    0.0088: real time    0.0088
    --------------------------------------------
      LOOP:  cpu time    6.5815: real time    6.5970

 eigenvalue-minimisations  :  2656
 total energy-change (2. order) :-0.9806800E-01  (-0.1463392E-01)
 number of electron     665.9999958 magnetization      25.2828695
 augmentation part      221.5759375 magnetization      18.0486108

 Broyden mixing:
  rms(total) = 0.41720E+00    rms(broyden)= 0.41703E+00
  rms(prec ) = 0.43736E+00
  weight for this iteration     100.00

 eigenvalues of (default mixing * dielectric matrix)
  average eigenvalue GAMMA=   0.7317
  2.2060  1.9710  1.9710  0.9791  0.9791  0.5737  0.5737  0.5779  0.5779  0.4970
  0.4335  0.4335  0.1665  0.1115  0.1115  0.1397  0.1355

 Free energy of the ion-electron system (eV)
  ---------------------------------------------------
  alpha Z        PSCENC =      2097.52697550
[...]
      1.46114      2.53077      7.02726        -0.004435     -0.007682     -0.000000
      2.90190      3.37296     11.70983        -0.001142     -0.001922      0.000736
      1.47012      4.19960      2.34470        -0.001094     -0.001950     -0.000736
      0.07684      4.96281      7.00579        -0.004566     -0.003863      0.000665
      1.51784      5.77030     11.71211        -0.000745      0.000000     -0.000000
      0.07684      6.57779      2.36390        -0.004566      0.003863     -0.000665
      1.47012      7.34101      7.02498        -0.001094      0.001950      0.000736
      7.18523      0.74868     11.71439        -0.001142      0.001922     -0.000736
      5.74448      1.59087      2.34242        -0.004435      0.007682     -0.000000
      4.25950      2.54795      7.04874        -0.001063     -0.005886     -0.000665
      5.65811      3.35544     11.69063         0.005629     -0.002023      0.000665
      4.23831      4.19963      2.34242         0.000373     -0.000645     -0.000000
      4.27671      7.40748     -0.00000        -0.002298     -0.003980     -0.000000
      1.43592      0.83208      4.70082         0.000356     -0.003032     -0.004036
      0.00264      1.65959      9.35371        -0.002804     -0.001207      0.004036
     -1.43057      2.48590     14.03654         0.003321      0.001843      0.002503
     -0.00979      3.28844      4.66686        -0.003257      0.001955      0.002503
     -1.41520      4.11760      9.35170        -0.000065     -0.003798      0.002503
     -2.84133      4.93792     14.01776         0.004857     -0.000659     -0.002021
     -1.43228      5.77030      4.68484         0.001992     -0.000000     -0.000000
     -2.84133      6.60268      9.40646         0.004857      0.000659      0.002021
      2.86814      0.00404      0.01799        -0.000065      0.003798     -0.002503
      4.27355      0.83320      4.70283        -0.003257     -0.001955     -0.002503
      2.85277      1.63574      9.38767         0.003321     -0.001843     -0.002503
      1.43003      2.47688     -0.00000        -0.000996     -0.001725     -0.000000
      2.85542      3.28097      4.72162        -0.001858     -0.004535      0.002021
      1.41369      4.11335      9.33291        -0.002999     -0.003877     -0.002021
     -0.01079      4.94280     14.03856         0.002448     -0.001825      0.004036
      1.44103      5.77030      4.68484         0.004596     -0.000000     -0.000000
     -0.01079      6.59781      9.38566         0.002448      0.001825     -0.004036
      5.69703      0.00830      0.03677        -0.002999      0.003877      0.002021
      7.13876      0.84068      4.64807        -0.001858      0.004535     -0.002021
      5.71337      1.64476      9.36969        -0.000996      0.001725     -0.000000
      4.28598      2.46206      0.01597        -0.002804      0.001207     -0.004036
      5.71926      3.28956      4.66887         0.000356      0.003032      0.004036
      4.27671      4.13312      9.36969        -0.002298      0.003980     -0.000000
      2.86186      4.95688     -0.00000         0.002839      0.004917     -0.000000
      4.27074      5.77030      4.68484        -0.005678      0.000000     -0.000000
      2.86186      6.58372      9.36969         0.002839     -0.004917     -0.000000
      0.01890      0.09959     10.36162         0.005527     -0.006753     -0.002538
      0.07680      0.06616      3.69291        -0.008611      0.001410      0.002538
      1.42353      0.80106      1.02485         0.000567     -0.005117     -0.005880
      1.44539      0.83389      8.34971         0.008293     -0.000389      0.006774
     -0.00052      1.66869      5.70482        -0.004483      0.006988     -0.006774
     -0.01802      1.63334     13.02968        -0.004715     -0.002068      0.005880
      7.13140      2.46807     10.37199        -0.004638     -0.001770      0.003749
     -1.43063      2.48668      3.65573         0.003205      0.000751      0.000321
      0.00800      3.29328      1.00231         0.003852     -0.003132      0.003749
     -0.01044      3.28800      8.34058        -0.002253      0.002400      0.000321
     -1.42829      4.13059      5.68715         0.000786      0.004902      0.003749
     -1.41449      4.11726     13.02542        -0.000952     -0.003151      0.000321
     -2.75863      4.91473     10.35990         0.007759      0.007088     -0.000876
      5.68170      4.94320      3.65253        -0.005627     -0.000535      0.007343
     -1.41244      5.76397      1.02694         0.005754     -0.005119     -0.006035
     -1.41244      5.77664      8.34274         0.005754      0.005119      0.006035
     -2.88498      6.59740      5.71715        -0.005627      0.000535     -0.007343
     -2.75863      6.62587     13.06432         0.007759     -0.007088      0.000876
      2.86884      0.00438     10.39879        -0.000952      0.003151     -0.000321
     -1.42829      7.41001      3.68254         0.000786     -0.004902     -0.003749
      4.27290      0.83364      1.02911        -0.002253     -0.002400     -0.000321
      4.29134      0.82836      8.36738         0.003852      0.003132     -0.003749
      2.85271      1.63496      5.71395         0.003205     -0.000751     -0.000321
      2.84806      1.65357     13.05222        -0.004638      0.001770     -0.003749
      1.41462      2.46287     10.39663        -0.007310     -0.002423     -0.006035
      1.42559      2.45653      3.65790         0.001556     -0.007542      0.006035
      2.87267      3.32141      1.03231         0.003277      0.004606     -0.007343
      2.83415      3.19775      8.37947        -0.010018     -0.003176      0.000876
      1.35226      4.05332      5.67505         0.002259     -0.010264     -0.000876
      1.44009      4.14851     13.02222         0.002350      0.005141      0.007343
     -0.01709      4.93551     10.38967        -0.003810     -0.007377     -0.006774
      0.02228      4.93802      3.65999         0.004148     -0.003049      0.005880
      1.33208      5.73687      0.99193         0.003085      0.008163     -0.002538
      1.33208      5.80373      8.37775         0.003085     -0.008163      0.002538
      0.02228      6.60258      5.70970         0.004148      0.003049     -0.005880
     -0.01709      6.60510     13.03455        -0.003810      0.007377      0.006774
      1.44009      7.39210     10.40200         0.002350     -0.005141     -0.007343
      5.63559      0.06832      3.69463         0.002259      0.010264      0.000876
      7.11749      0.92390      0.99021        -0.010018      0.003176     -0.000876
      7.15601      0.80024      8.33738         0.003277     -0.004606      0.007343
      5.70893      1.66511      5.71179         0.001556      0.007542     -0.006035
      5.69796      1.65878     13.02759        -0.007310      0.002423      0.006035
      4.26531      2.48830     10.39454        -0.004715      0.002068     -0.005880
      4.28282      2.45296      3.66486        -0.004483     -0.006988      0.006774
      5.72872      3.28775      1.01998         0.008293      0.000389     -0.006774
      5.70686      3.32058      8.34483         0.000567      0.005117      0.005880
      4.36014      4.05548      5.67678        -0.008611     -0.001410     -0.002538
      4.30224      4.02205     13.06259         0.005527      0.006753      0.002538
      2.79208      4.91258     10.30608        -0.000510      0.001131     -0.008032
      2.85837      4.87430      3.74845         0.001235      0.000124      0.008032
      4.34400      5.73203      0.93639        -0.000725     -0.001008     -0.008032
      4.34400      5.80857      8.43329        -0.000725      0.001008      0.008032
      2.85837      6.66630      5.62124         0.001235     -0.000124     -0.008032
      2.79208      6.62803     13.11814        -0.000510     -0.001131      0.008032
 -----------------------------------------------------------------------------------
    total drift:                               -0.000683      0.001738      0.002198


--------------------------------------------------------------------------------------------------------



  FREE ENERGIE OF THE ION-ELECTRON SYSTEM (eV)
  ---------------------------------------------------
  free  energy   TOTEN  =      -630.2491173593 eV

  energy  without entropy=     -630.2156323970  energy(sigma->0) =     -630.23237488
 
 d Force = 0.3668966E-03[ 0.209E-03, 0.525E-03]  d Energy = 0.4228522E-03-0.560E-04
 d Force = 0.2583918E+01[ 0.258E+01, 0.259E+01]  d Ewald  =-0.4093050E+01 0.668E+01


--------------------------------------------------------------------------------------------------------


    POTLOK:  cpu time    0.2865: real time    0.2872


--------------------------------------------------------------------------------------------------------


 Quasi-Newton relaxation of ions (Broydens 2nd method)
  g(Force)  = 0.248E-03   g(Stress)= 0.157E-03

 retain information from N=  1 steps
 eigenvalues of (default step * inverse Hessian matrix)
  average eigenvalue of G=   0.5114
 eigenvalue spectrum of G is  0.5114


--------------------------------------------------------------------------------------------------------


  
 reached required accuracy - stopping structural energy minimisation
     LOOP+:  cpu time   57.4614: real time   57.8769
    4ORBIT:  cpu time    0.0000: real time    0.0000

volume of typ            1:    20.9 %

volume of typ            2:    19.3 %

volume of typ            3:     9.9 %
 
total charge     
 
# of ion       s       p       d       tot
------------------------------------------
    1        2.079   0.256   0.096   2.432
    2        2.082   0.265   0.100   2.447
    3        2.082   0.265   0.100   2.447
    4        2.080   0.258   0.098   2.436
    5        2.080   0.258   0.098   2.436
    6        2.080   0.258   0.098   2.436
    7        2.080   0.258   0.097   2.435
    8        2.085   0.271   0.104   2.460
    9        2.080   0.258   0.097   2.435
   10        2.080   0.258   0.098   2.436
   11        2.080   0.258   0.098   2.436
   12        2.080   0.258   0.098   2.436
   13        2.085   0.271   0.104   2.460
   14        2.080   0.258   0.097   2.435
   15        2.080   0.258   0.097   2.435
   16        2.082   0.265   0.100   2.447
   17        2.079   0.256   0.096   2.432
   18        2.082   0.265   0.100   2.447
   19        2.080   0.258   0.097   2.435
   20        2.080   0.258   0.097   2.435
   21        2.085   0.271   0.104   2.460
   22        2.082   0.265   0.100   2.447
   23        2.082   0.265   0.100   2.447
   24        2.079   0.256   0.096   2.432
   25        0.255   0.324   7.855   8.433
   26        0.269   0.356   7.856   8.480
   27        0.269   0.356   7.856   8.480
   28        0.270   0.357   7.854   8.481
   29        0.270   0.357   7.854   8.481
   30        0.270   0.357   7.854   8.481
   31        0.263   0.342   7.857   8.463
   32        0.253   0.323   7.865   8.442
   33        0.263   0.342   7.857   8.463
   34        0.270   0.357   7.854   8.481
   35        0.270   0.357   7.854   8.481
   36        0.270   0.357   7.854   8.481
   37        0.253   0.323   7.865   8.442
   38        0.263   0.342   7.857   8.463
   39        0.263   0.342   7.857   8.463
   40        0.269   0.356   7.856   8.480
   41        0.255   0.324   7.855   8.433
   42        0.269   0.356   7.856   8.480
   43        0.263   0.342   7.857   8.463
   44        0.263   0.342   7.857   8.463
   45        0.253   0.323   7.865   8.442
   46        0.269   0.356   7.856   8.480
   47        0.269   0.356   7.856   8.480
   48        0.255   0.324   7.855   8.433
   49        0.256   0.327   7.854   8.437
   50        0.256   0.327   7.854   8.437
   51        0.256   0.327   7.854   8.437
   52        1.264   2.779   0.006   4.049
   53        1.264   2.779   0.006   4.049
   54        1.259   2.791   0.005   4.055
   55        1.262   2.783   0.005   4.050
   56        1.262   2.783   0.005   4.050
   57        1.259   2.791   0.005   4.055
   58        1.261   2.784   0.005   4.051
   59        1.255   2.798   0.006   4.059
   60        1.261   2.784   0.005   4.051
   61        1.255   2.798   0.006   4.059
   62        1.261   2.784   0.005   4.051
   63        1.255   2.798   0.006   4.059
   64        1.264   2.778   0.006   4.048
   65        1.258   2.790   0.005   4.054
   66        1.262   2.783   0.005   4.050
   67        1.262   2.783   0.005   4.050
   68        1.258   2.790   0.005   4.054
   69        1.264   2.778   0.006   4.048
   70        1.255   2.798   0.006   4.059
   71        1.261   2.784   0.005   4.051
   72        1.255   2.798   0.006   4.059
   73        1.261   2.784   0.005   4.051
   74        1.255   2.798   0.006   4.059
   75        1.261   2.784   0.005   4.051
   76        1.262   2.783   0.005   4.050
   77        1.262   2.783   0.005   4.050
   78        1.258   2.790   0.005   4.054
   79        1.264   2.778   0.006   4.048
   80        1.264   2.778   0.006   4.048
   81        1.258   2.790   0.005   4.054
   82        1.262   2.783   0.005   4.050
   83        1.259   2.791   0.005   4.055
   84        1.264   2.779   0.006   4.049
   85        1.264   2.779   0.006   4.049
   86        1.259   2.791   0.005   4.055
   87        1.262   2.783   0.005   4.050
   88        1.258   2.790   0.005   4.054
   89        1.264   2.778   0.006   4.048
   90        1.264   2.778   0.006   4.048
   91        1.258   2.790   0.005   4.054
   92        1.262   2.783   0.005   4.050
   93        1.262   2.783   0.005   4.050
   94        1.259   2.791   0.005   4.055
   95        1.262   2.783   0.005   4.050
   96        1.262   2.783   0.005   4.050
   97        1.259   2.791   0.005   4.055
   98        1.264   2.779   0.006   4.049
   99        1.264   2.779   0.006   4.049
  100        1.263   2.783   0.006   4.052
  101        1.263   2.783   0.006   4.052
  102        1.263   2.783   0.006   4.052
  103        1.263   2.783   0.006   4.052
  104        1.263   2.783   0.006   4.052
  105        1.263   2.783   0.006   4.052
--------------------------------------------------
tot         125.14  165.93  214.80  505.87
 
magnetization (x)
 
# of ion       s       p       d       tot
------------------------------------------
    1        0.007   0.013   0.001   0.021
    2        0.007   0.013   0.001   0.022
    3        0.007   0.013   0.001   0.022
    4        0.007   0.012   0.001   0.019
    5        0.007   0.012   0.001   0.019
    6        0.007   0.012   0.001   0.019
    7        0.007   0.014   0.001   0.022
    8        0.007   0.013   0.001   0.021
    9        0.007   0.014   0.001   0.022
   10        0.007   0.012   0.001   0.019
   11        0.007   0.012   0.001   0.019
   12        0.007   0.012   0.001   0.019
   13        0.007   0.013   0.001   0.021
   14        0.007   0.014   0.001   0.022
   15        0.007   0.014   0.001   0.022
   16        0.007   0.013   0.001   0.022
   17        0.007   0.013   0.001   0.021
   18        0.007   0.013   0.001   0.022
   19        0.007   0.014   0.001   0.022
   20        0.007   0.014   0.001   0.022
   21        0.007   0.013   0.001   0.021
   22        0.007   0.013   0.001   0.022
   23        0.007   0.013   0.001   0.022
   24        0.007   0.013   0.001   0.021
   25       -0.000  -0.001   0.779   0.778
   26       -0.001  -0.001   0.559   0.558
   27       -0.001  -0.001   0.559   0.558
   28       -0.001  -0.001   0.542   0.540
   29       -0.001  -0.001   0.542   0.540
   30       -0.001  -0.001   0.542   0.540
   31       -0.000  -0.001   0.655   0.653
   32       -0.000  -0.001   0.897   0.896
   33       -0.000  -0.001   0.655   0.653
   34       -0.001  -0.001   0.542   0.540
   35       -0.001  -0.001   0.542   0.540
   36       -0.001  -0.001   0.542   0.540
   37       -0.000  -0.001   0.897   0.896
   38       -0.000  -0.001   0.655   0.653
   39       -0.000  -0.001   0.655   0.653
   40       -0.001  -0.001   0.559   0.558
   41       -0.000  -0.001   0.779   0.778
   42       -0.001  -0.001   0.559   0.558
   43       -0.000  -0.001   0.655   0.653
   44       -0.000  -0.001   0.655   0.653
   45       -0.000  -0.001   0.897   0.896
   46       -0.001  -0.001   0.559   0.558
   47       -0.001  -0.001   0.559   0.558
   48       -0.000  -0.001   0.779   0.778
   49       -0.000  -0.001   0.750   0.750
   50       -0.000  -0.001   0.750   0.750
   51       -0.000  -0.001   0.750   0.750
   52        0.013   0.085   0.000   0.098
   53        0.013   0.085   0.000   0.098
   54        0.014   0.082   0.000   0.096
   55        0.013   0.079   0.000   0.093
   56        0.013   0.079   0.000   0.093
   57        0.014   0.082   0.000   0.096
   58        0.014   0.072   0.000   0.086
   59        0.004   0.002   0.000   0.006
   60        0.014   0.072   0.000   0.086
   61        0.004   0.002   0.000   0.006
   62        0.014   0.072   0.000   0.086
   63        0.004   0.002   0.000   0.006
   64        0.013   0.081   0.000   0.094
   65        0.014   0.080   0.000   0.094
   66        0.014   0.084   0.000   0.098
   67        0.014   0.084   0.000   0.098
   68        0.014   0.080   0.000   0.094
   69        0.013   0.081   0.000   0.094
   70        0.004   0.002   0.000   0.006
   71        0.014   0.072   0.000   0.086
   72        0.004   0.002   0.000   0.006
   73        0.014   0.072   0.000   0.086
   74        0.004   0.002   0.000   0.006
   75        0.014   0.072   0.000   0.086
   76        0.014   0.084   0.000   0.098
   77        0.014   0.084   0.000   0.098
   78        0.014   0.080   0.000   0.094
   79        0.013   0.081   0.000   0.094
   80        0.013   0.081   0.000   0.094
   81        0.014   0.080   0.000   0.094
   82        0.013   0.079   0.000   0.093
   83        0.014   0.082   0.000   0.096
   84        0.013   0.085   0.000   0.098
   85        0.013   0.085   0.000   0.098
   86        0.014   0.082   0.000   0.096
   87        0.013   0.079   0.000   0.093
   88        0.014   0.080   0.000   0.094
   89        0.013   0.081   0.000   0.094
   90        0.013   0.081   0.000   0.094
   91        0.014   0.080   0.000   0.094
   92        0.014   0.084   0.000   0.098
   93        0.014   0.084   0.000   0.098
   94        0.014   0.082   0.000   0.096
   95        0.013   0.079   0.000   0.093
   96        0.013   0.079   0.000   0.093
   97        0.014   0.082   0.000   0.096
   98        0.013   0.085   0.000   0.098
   99        0.013   0.085   0.000   0.098
  100        0.011   0.045   0.000   0.056
  101        0.011   0.045   0.000   0.056
  102        0.011   0.045   0.000   0.056
  103        0.011   0.045   0.000   0.056
  104        0.011   0.045   0.000   0.056
  105        0.011   0.045   0.000   0.056
--------------------------------------------------
tot           0.81    3.96   17.85   22.62
 

 total amount of memory used by VASP MPI-rank0   147440. kBytes
=======================================================================

   base      :      30000. kBytes
   nonlr-proj:      40512. kBytes
   fftplans  :       9349. kBytes
   grid      :      55332. kBytes
   one-center:       1632. kBytes
   wavefun   :      10615. kBytes
 
  
  
 General timing and accounting informations for this job:
 ========================================================
  
                  Total CPU time used (sec):      283.154
                            User time (sec):      279.341
                          System time (sec):        3.813
                         Elapsed time (sec):      288.844
  
                   Maximum memory used (kb):      202280.
                   Average memory used (kb):           0.
  
                          Minor page faults:        32605
                          Major page faults:           48
                 Voluntary context switches:          864
