 vasp.5.4.4.18Apr17-6-g9f103f2a35 (build May 12 2020 05:39:39) gamma-only       
  
 MD_VERSION_INFO: Compiled 2020-05-12T12:39:39-UTC in devlin.sd.materialsdesign.
 com:/home/medea2/data/build/wwolf/vasp-gpu5.4.4/13047/x86_64/src/src/build/gam 
 from svn 13047
 
 This VASP executable licensed from Materials Design, Inc.
 
 executed on                        Lin64 date 2023.01.19  18:12:59
 running on   16 total cores
 distrk:  each k-point on   16 cores,    1 groups
 distr:  one band on NCORES_PER_BAND=   1 cores,   16 groups


--------------------------------------------------------------------------------------------------------


 INCAR:
 POTCAR:    PAW_PBE Li_sv 10Sep2004               
 POTCAR:    PAW_PBE Ni 02Aug2007                  
 POTCAR:    PAW_PBE O 08Apr2002                   

 ----------------------------------------------------------------------------- 
|                                                                             |
|           W    W    AA    RRRRR   N    N  II  N    N   GGGG   !!!           |
|           W    W   A  A   R    R  NN   N  II  NN   N  G    G  !!!           |
|           W    W  A    A  R    R  N N  N  II  N N  N  G       !!!           |
|           W WW W  AAAAAA  RRRRR   N  N N  II  N  N N  G  GGG   !            |
|           WW  WW  A    A  R   R   N   NN  II  N   NN  G    G                |
|           W    W  A    A  R    R  N    N  II  N    N   GGGG   !!!           |
|                                                                             |
|      For optimal performance we recommend to set                            |
|        NCORE= 4 - approx SQRT( number of cores)                             |
|      NCORE specifies how many cores store one orbital (NPAR=cpu/NCORE).     |
|      This setting can  greatly improve the performance of VASP for DFT.     |
|      The default,   NCORE=1            might be grossly inefficient         |
|      on modern multi-core architectures or massively parallel machines.     |
|      Do your own testing !!!!                                               |
|      Unfortunately you need to use the default for GW and RPA calculations. |
|      (for HF NCORE is supported but not extensively tested yet)             |
|                                                                             |
 ----------------------------------------------------------------------------- 

 POTCAR:    PAW_PBE Li_sv 10Sep2004               
  local pseudopotential read in
  atomic valenz-charges read in
  non local Contribution for L=           0  read in
    real space projection operators read in
  non local Contribution for L=           0  read in
    real space projection operators read in
  non local Contribution for L=           1  read in
    real space projection operators read in
    PAW grid and wavefunctions read in
 
   number of l-projection  operators is LMAX  =           3
   number of lm-projection operators is LMMAX =           5
 
 POTCAR:    PAW_PBE Ni 02Aug2007                  
  local pseudopotential read in
  partial core-charges read in
  partial kinetic energy density read in
  atomic valenz-charges read in
  non local Contribution for L=           2  read in
    real space projection operators read in
  non local Contribution for L=           2  read in
    real space projection operators read in
  non local Contribution for L=           0  read in
    real space projection operators read in
  non local Contribution for L=           0  read in
    real space projection operators read in
  non local Contribution for L=           1  read in
    real space projection operators read in
  non local Contribution for L=           1  read in
    real space projection operators read in
    PAW grid and wavefunctions read in
 
   number of l-projection  operators is LMAX  =           6
   number of lm-projection operators is LMMAX =          18
 
 POTCAR:    PAW_PBE O 08Apr2002                   
  local pseudopotential read in
  partial core-charges read in
  partial kinetic energy density read in
  kinetic energy density of atom read in
  atomic valenz-charges read in
  non local Contribution for L=           0  read in
    real space projection operators read in
  non local Contribution for L=           0  read in
    real space projection operators read in
  non local Contribution for L=           1  read in
    real space projection operators read in
  non local Contribution for L=           1  read in
    real space projection operators read in
    PAW grid and wavefunctions read in
 
   number of l-projection  operators is LMAX  =           4
   number of lm-projection operators is LMMAX =           8
 
 Optimization of the real space projectors (new method)

 maximal supplied QI-value         = 22.11
 optimisation between [QCUT,QGAM] = [ 11.28, 22.77] = [ 35.61,145.23] Ry 
 Optimized for a Real-space Cutoff    1.10 Angstroem

   l    n(q)    QCUT    max X(q) W(low)/X(q) W(high)/X(q)  e(spline) 
   0      7    11.276    10.506    0.54E-04    0.58E-04    0.16E-07
   0      7    11.276     8.367    0.11E-03    0.14E-03    0.35E-07
   1      7    11.276     8.983    0.23E-03    0.43E-03    0.86E-07
 Optimization of the real space projectors (new method)

 maximal supplied QI-value         = 16.25
 optimisation between [QCUT,QGAM] = [ 11.38, 22.75] = [ 36.24,144.96] Ry 
 Optimized for a Real-space Cutoff    1.47 Angstroem

   l    n(q)    QCUT    max X(q) W(low)/X(q) W(high)/X(q)  e(spline) 
   2      9    11.376    60.317    0.17E-03    0.16E-04    0.16E-06
   2      9    11.376    55.921    0.17E-03    0.16E-04    0.17E-06
   0     10    11.376    51.690    0.45E-04    0.60E-04    0.21E-06
   0     10    11.376    30.015    0.37E-04    0.55E-04    0.19E-06
   1     10    11.376    18.849    0.83E-04    0.11E-03    0.92E-07
   1     10    11.376    14.624    0.69E-04    0.92E-04    0.82E-07
 Optimization of the real space projectors (new method)

 maximal supplied QI-value         = 24.76
 optimisation between [QCUT,QGAM] = [ 11.39, 22.77] = [ 36.31,145.25] Ry 
 Optimized for a Real-space Cutoff    1.10 Angstroem

   l    n(q)    QCUT    max X(q) W(low)/X(q) W(high)/X(q)  e(spline) 
   0      7    11.387    20.381    0.22E-03    0.48E-03    0.18E-06
   0      7    11.387    15.268    0.22E-03    0.52E-03    0.19E-06
   1      7    11.387     5.964    0.22E-03    0.73E-03    0.24E-06
   1      7    11.387     5.382    0.19E-03    0.60E-03    0.21E-06

 ----------------------------------------------------------------------------- 
|                                                                             |
|  ADVICE TO THIS USER RUNNING 'VASP/VAMP'   (HEAR YOUR MASTER'S VOICE ...):  |
|                                                                             |
|      You enforced a specific xc-type in the INCAR file,                     |
|      a different type was found on the POTCAR file                          |
|          I HOPE YOU KNOW, WHAT YOU ARE  DOING                               |
|                                                                             |
 ----------------------------------------------------------------------------- 

  PAW_PBE Li_sv 10Sep2004               :
 energy of atom  1       EATOM= -202.7858
 kinetic energy error for atom=    0.0143 (will be added to EATOM!!)
  PAW_PBE Ni 02Aug2007                  :
 energy of atom  2       EATOM=-1077.6739
 kinetic energy error for atom=    0.0030 (will be added to EATOM!!)
  PAW_PBE O 08Apr2002                   :
 energy of atom  3       EATOM= -432.3788
 kinetic energy error for atom=    0.0224 (will be added to EATOM!!)
 
 
 POSCAR: ce238543_1                              
  positions in direct lattice
  No initial velocities read in
 exchange correlation table for  LEXCH =       14
   RHO(1)=    0.500       N(1)  =     2000
   RHO(2)=  100.500       N(2)  =     4000
 


--------------------------------------------------------------------------------------------------------


 ion  position               nearest neighbor table
   1  0.979  0.500  1.000-  56 2.01  91 2.01  92 2.14  43 2.15  44 2.22  79 2.23  21 2.80  38 2.80
                            14 2.84
   2  0.091  0.834  0.223-  57 2.01  58 2.01  63 2.14  40 2.15  45 2.22  64 2.23  21 2.80  22 2.80
                            13 2.84
   3  0.223  0.167  0.111-  47 2.10  48 2.10  41 2.11  42 2.11  65 2.12  78 2.12
   4  0.333  0.500  1.000-  44 2.09  79 2.10  85 2.11  50 2.11  80 2.12  49 2.13
   5  0.444  0.834  0.222-  45 2.09  64 2.10  70 2.11  51 2.11  69 2.12  46 2.13
   6  0.577  0.167  0.111-  53 2.01  54 2.01  71 2.15  84 2.15  47 2.23  48 2.23  20 2.81  19 2.81

   7  0.222  0.167  0.463-  83 2.00  60 2.02  66 2.13  59 2.14  42 2.21  65 2.22  34 2.78  23 2.81

   8  0.687  0.500  0.352-  74 2.01  73 2.03  55 2.12  68 2.14  50 2.20  49 2.22  29 2.79  30 2.81

   9  0.797  0.833  0.574-  93 2.01  76 2.02  75 2.14  88 2.14  70 2.19  69 2.22  39 2.81  31 2.81

  10  0.334  0.500  0.648-  62 2.01  67 2.02  86 2.14  61 2.14  85 2.19  80 2.22  24 2.81  26 2.81

  11  0.446  0.833  0.870-  87 2.01  82 2.03  52 2.12  81 2.14  51 2.20  46 2.22  34 2.79  36 2.81

  12  0.870  0.167  0.759-  72 2.00  89 2.02  77 2.13  90 2.14  41 2.21  78 2.22  29 2.78  37 2.81

  13  1.000  0.998  0.001-  57 1.86  78 1.88  90 1.88  45 1.92  93 1.92  42 1.95  19 2.80  16 2.80
                            31 2.82  22 2.82  37 2.83  25 2.83   2 2.84
  14  0.110  0.335  0.222-  56 1.86  65 1.88  59 1.88  44 1.92  62 1.92  41 1.95  20 2.80  17 2.80
                            26 2.82  38 2.82  23 2.83  32 2.83   1 2.84
  15  0.223  0.667  0.111-  64 1.87  79 1.87  43 1.88  40 1.88  46 1.92  49 1.92  24 2.81  39 2.81
                            33 2.81  27 2.81  18 2.81  21 2.84
  16  0.331  1.000  0.998-  81 1.87  51 1.88  48 1.88  84 1.88  78 1.90  45 1.92  31 2.78  13 2.80
                            34 2.81  25 2.83  19 2.83  28 2.84
  17  0.444  0.334  0.224-  68 1.87  50 1.88  47 1.88  71 1.88  65 1.90  44 1.92  26 2.78  14 2.80
                            29 2.81  32 2.83  20 2.83  35 2.84
  18  0.557  0.667  0.111-  52 1.86  55 1.86  46 1.88  49 1.88  70 1.96  85 1.96  21 2.78  15 2.81
                            36 2.82  30 2.82  27 2.83  33 2.83
  19  0.668  0.998  0.999-  87 1.88  84 1.88  54 1.88  90 1.89  57 1.90  51 1.91  13 2.80  37 2.80
                             6 2.81  22 2.81  34 2.82  28 2.82  16 2.83
  20  0.779  0.335  0.223-  74 1.88  71 1.88  53 1.88  59 1.89  56 1.90  50 1.91  14 2.80  23 2.80
                             6 2.81  38 2.81  29 2.82  35 2.82  17 2.83
  21  0.886  0.667  0.111-  58 1.88  91 1.88  40 1.88  43 1.88  52 1.90  55 1.90  18 2.78   2 2.80
                             1 2.80  30 2.81  36 2.81  39 2.82  24 2.82  15 2.84
  22  0.999  0.001  0.334-  60 1.88  57 1.88  63 1.88  54 1.89  75 1.90  42 1.92  28 2.80   2 2.80
                            31 2.81  34 2.81  19 2.81  13 2.82  25 2.83
  23  0.110  0.335  0.556-  59 1.87  83 1.88  62 1.88  74 1.89  80 1.90  77 1.90  32 2.79  29 2.79
                            20 2.80   7 2.81  35 2.82  14 2.83  26 2.83
  24  0.222  0.668  0.443-  58 1.88  61 1.88  67 1.88  82 1.91  64 1.91  43 1.91  27 2.79  30 2.80
                            10 2.81  15 2.81  21 2.82  36 2.82  33 2.82
  25  0.336  0.000  0.335-  66 1.87  45 1.88  42 1.88  63 1.88  69 1.90  48 1.92  37 2.79  28 2.80
                            34 2.80  16 2.83  22 2.83  13 2.83
  26  0.445  0.332  0.554-  86 1.87  83 1.88  62 1.88  89 1.90  68 1.90  65 1.90  17 2.78  29 2.80
                            38 2.81  10 2.81  14 2.82  35 2.82  23 2.83
  27  0.554  0.665  0.445-  88 1.87  70 1.88  67 1.88  73 1.88  49 1.91  64 1.92  24 2.79  36 2.79
                            15 2.81  39 2.82  30 2.83  18 2.83
  28  0.667  0.002  0.334-  54 1.86  75 1.88  69 1.88  48 1.91  72 1.93  51 1.96  22 2.80  25 2.80
                            37 2.82  19 2.82  31 2.82  16 2.84
  29  0.778  0.333  0.556-  68 1.87  77 1.87  89 1.88  74 1.88  71 1.91  92 1.91  12 2.78   8 2.79
                            23 2.79  26 2.80  32 2.80  17 2.81  38 2.81  20 2.82
  30  0.890  0.668  0.445-  76 1.87  55 1.88  73 1.88  58 1.90  61 1.90  70 1.91  33 2.79  24 2.80
                            21 2.81   8 2.81  18 2.82  39 2.82  27 2.83
  31  0.002  0.001  0.668-  75 1.87  72 1.88  93 1.88  60 1.90  81 1.90  78 1.90  16 2.78  34 2.80
                            22 2.81   9 2.81  13 2.82  28 2.82  37 2.83
  32  0.112  0.333  0.887-  77 1.87  44 1.88  41 1.88  92 1.88  80 1.90  47 1.92  23 2.79  35 2.80
                            29 2.80  17 2.83  38 2.83  14 2.83
  33  0.220  0.668  0.777-  61 1.87  85 1.88  76 1.88  82 1.88  46 1.91  79 1.92  39 2.79  30 2.79
                            15 2.81  24 2.82  36 2.83  18 2.83
  34  0.333  1.000  0.666-  81 1.87  66 1.87  60 1.88  87 1.88  84 1.91  63 1.91   7 2.78  11 2.79
                            37 2.79  31 2.80  25 2.80  16 2.81  22 2.81  19 2.82
  35  0.445  0.331  0.889-  53 1.86  86 1.88  80 1.88  47 1.91  83 1.93  50 1.96  38 2.80  32 2.80
                            23 2.82  20 2.82  26 2.82  17 2.84
  36  0.556  0.665  0.777-  67 1.87  52 1.88  82 1.88  91 1.90  88 1.90  85 1.91  27 2.79  39 2.80
                            21 2.81  11 2.81  18 2.82  24 2.82  33 2.83
  37  0.665  0.999  0.666-  90 1.87  72 1.88  93 1.88  87 1.89  69 1.90  66 1.90  25 2.79  34 2.79
                            19 2.80  12 2.81  28 2.82  13 2.83  31 2.83
  38  0.776  0.332  0.888-  89 1.88  56 1.88  92 1.88  53 1.89  86 1.90  41 1.92  35 2.80   1 2.80
                            26 2.81  29 2.81  20 2.81  14 2.82  32 2.83
  39  0.890  0.665  0.779-  91 1.88  88 1.88  76 1.88  73 1.91  79 1.91  40 1.91  33 2.79  36 2.80
                             9 2.81  15 2.81  21 2.82  30 2.82  27 2.82
  40  0.001  0.734  0.003-  21 1.88  15 1.88  39 1.91   2 2.15
  41  0.002  0.263  0.995-  32 1.88  38 1.92  14 1.95   3 2.11  12 2.21
  42  0.118  0.071  0.227-  25 1.88  22 1.92  13 1.95   3 2.11   7 2.21
  43  0.108  0.599  0.219-  21 1.88  15 1.88  24 1.91   1 2.15
  44  0.219  0.404  0.104-  32 1.88  14 1.92  17 1.92   4 2.09   1 2.22
  45  0.226  0.930  0.118-  25 1.88  13 1.92  16 1.92   5 2.09   2 2.22
  46  0.338  0.737  0.001-  18 1.88  33 1.91  15 1.92   5 2.13  11 2.22
  47  0.337  0.263  0.007-  17 1.88  35 1.91  32 1.92   3 2.10   6 2.23
  48  0.441  0.070  0.215-  16 1.88  28 1.91  25 1.92   3 2.10   6 2.23
  49  0.448  0.597  0.221-  18 1.88  27 1.91  15 1.92   4 2.13   8 2.22
  50  0.555  0.404  0.117-  17 1.88  20 1.91  35 1.96   4 2.11   8 2.20
  51  0.549  0.929  0.105-  16 1.88  19 1.91  28 1.96   5 2.11  11 2.20
  52  0.662  0.734  0.996-  18 1.86  36 1.88  21 1.90  11 2.12
  53  0.666  0.266  0.003-  35 1.86  20 1.88  38 1.89   6 2.01
  54  0.774  0.067  0.219-  28 1.86  19 1.88  22 1.89   6 2.01
  55  0.777  0.600  0.226-  18 1.86  30 1.88  21 1.90   8 2.12
  56  0.890  0.401  0.107-  14 1.86  38 1.88  20 1.90   1 2.01
  57  0.893  0.932  0.115-  13 1.86  22 1.88  19 1.90   2 2.01
  58  0.000  0.735  0.331-  24 1.88  21 1.88  30 1.90   2 2.01
  59  0.003  0.267  0.337-  23 1.87  14 1.88  20 1.89   7 2.14
  60  0.113  0.069  0.554-  22 1.88  34 1.88  31 1.90   7 2.02
  61  0.115  0.600  0.558-  33 1.87  24 1.88  30 1.90  10 2.14
  62  0.226  0.402  0.450-  23 1.88  26 1.88  14 1.92  10 2.01
  63  0.220  0.932  0.441-  22 1.88  25 1.88  34 1.91   2 2.14
  64  0.331  0.737  0.327-  15 1.87  24 1.91  27 1.92   5 2.10   2 2.23
  65  0.328  0.264  0.331-  14 1.88  17 1.90  26 1.90   3 2.12   7 2.22
  66  0.441  0.068  0.553-  25 1.87  34 1.87  37 1.90   7 2.13
  67  0.441  0.599  0.556-  36 1.87  24 1.88  27 1.88  10 2.02
  68  0.558  0.401  0.443-  17 1.87  29 1.87  26 1.90   8 2.14
  69  0.559  0.931  0.443-  28 1.88  25 1.90  37 1.90   5 2.12   9 2.22
  70  0.666  0.737  0.341-  27 1.88  30 1.91  18 1.96   5 2.11   9 2.19
  71  0.667  0.266  0.331-  20 1.88  17 1.88  29 1.91   6 2.15
  72  0.781  0.069  0.563-  31 1.88  37 1.88  28 1.93  12 2.00
  73  0.778  0.598  0.553-  27 1.88  30 1.88  39 1.91   8 2.03
  74  0.886  0.402  0.444-  29 1.88  20 1.88  23 1.89   8 2.01
  75  0.889  0.934  0.449-  31 1.87  28 1.88  22 1.90   9 2.14
  76  0.997  0.735  0.666-  30 1.87  39 1.88  33 1.88   9 2.02
  77  0.999  0.266  0.669-  32 1.87  29 1.87  23 1.90  12 2.13
  78  0.108  0.069  0.892-  13 1.88  16 1.90  31 1.90   3 2.12  12 2.22
  79  0.115  0.597  0.895-  15 1.87  39 1.91  33 1.92   4 2.10   1 2.23
  80  0.227  0.403  0.780-  35 1.88  32 1.90  23 1.90   4 2.12  10 2.22
  81  0.225  0.932  0.779-  16 1.87  34 1.87  31 1.90  11 2.14
  82  0.336  0.735  0.669-  33 1.88  36 1.88  24 1.91  11 2.03
  83  0.328  0.265  0.659-  26 1.88  23 1.88  35 1.93   7 2.00
  84  0.447  0.067  0.891-  19 1.88  16 1.88  34 1.91   6 2.15
  85  0.436  0.596  0.881-  33 1.88  36 1.91  18 1.96   4 2.11  10 2.19
  86  0.551  0.399  0.773-  26 1.87  35 1.88  38 1.90  10 2.14
  87  0.553  0.931  0.778-  34 1.88  19 1.88  37 1.89  11 2.01
  88  0.668  0.733  0.665-  27 1.87  39 1.88  36 1.90   9 2.14
  89  0.670  0.265  0.668-  38 1.88  29 1.88  26 1.90  12 2.02
  90  0.778  0.066  0.886-  37 1.87  13 1.88  19 1.89  12 2.14
  91  0.781  0.598  0.892-  39 1.88  21 1.88  36 1.90   1 2.01
  92  0.890  0.401  0.781-  38 1.88  32 1.88  29 1.91   1 2.14
  93  0.887  0.932  0.772-  37 1.88  31 1.88  13 1.92   9 2.01
 
  LATTYP: Found a base centered monoclinic cell.
 ALAT       =    14.6326315733
 B/A-ratio  =     0.5757577100
 C/A-ratio  =     1.3938673200
 COS(beta)  =    -0.6235492194
  
  Lattice vectors:
  
 A1 = (   4.2298954373,   7.3062210211,   0.0110820035)
 A2 = (   8.4423206242,   0.0100864906,   0.0110820035)
 A3 = ( -12.6905205444,  -7.3268755642, -14.1866921798)


Analysis of symmetry for initial positions (statically):
=====================================================================
 Subroutine PRICEL returns:
 Original cell was already a primitive cell.
 

 Routine SETGRP: Setting up the symmetry group for a 
 base centered monoclinic supercell.


 Subroutine GETGRP returns: Found  2 space group operations
 (whereof  1 operations were pure point group operations)
 out of a pool of  4 trial point group operations.


The static configuration has the point symmetry C_1 .
 The point group associated with its full space group is C_2 .


Analysis of symmetry for dynamics (positions and initial velocities):
=====================================================================
 Subroutine PRICEL returns:
 Original cell was already a primitive cell.
 

 Routine SETGRP: Setting up the symmetry group for a 
 base centered monoclinic supercell.


 Subroutine GETGRP returns: Found  2 space group operations
 (whereof  1 operations were pure point group operations)
 out of a pool of  4 trial point group operations.


The dynamic configuration has the point symmetry C_1 .
 The point group associated with its full space group is C_2 .


Analysis of structural, dynamic, and magnetic symmetry:
=====================================================================
 Subroutine PRICEL returns:
 Original cell was already a primitive cell.
 

 Routine SETGRP: Setting up the symmetry group for a 
 base centered monoclinic supercell.


 Subroutine GETGRP returns: Found  2 space group operations
 (whereof  1 operations were pure point group operations)
 out of a pool of  4 trial point group operations.


The magnetic configuration has the point symmetry C_1 .
 The point group associated with its full space group is C_2 .


 Subroutine INISYM returns: Found  2 space group operations
 (whereof  1 operations are pure point group operations),
 and found     1 'primitive' translations

 
 
 KPOINTS: Automatic mesh                          

Automatic generation of k-mesh.
Space group operators:
 irot       det(A)        alpha          n_x          n_y          n_z        tau_x        tau_y        tau_z
    1     1.000000     0.000001     1.000000     0.000000     0.000000     0.000000     0.000000     0.000000
    2     1.000000   180.000000    -0.500000     0.866025     0.000000     0.111111    -0.666667     0.222222
 
 Subroutine IBZKPT returns following result:
 ===========================================
 
 Found      1 irreducible k-points:
 
 Following reciprocal coordinates:
            Coordinates               Weight
  0.000000  0.000000  0.000000      1.000000
 
 Following cartesian coordinates:
            Coordinates               Weight
  0.000000  0.000000  0.000000      1.000000
 


--------------------------------------------------------------------------------------------------------




 Dimension of arrays:
   k-points           NKPTS =      1   k-points in BZ     NKDIM =      1   number of bands    NBANDS=    416
   number of dos      NEDOS =    301   number of ions     NIONS =     93
   non local maximal  LDIM  =      6   non local SUM 2l+1 LMDIM =     18
   total plane-waves  NPLWV = 442368
   max r-space proj   IRMAX =   6852   max aug-charges    IRDMAX=  16621
   dimension x,y,z NGX =    64 NGY =  108 NGZ =   64
   dimension x,y,z NGXF=   128 NGYF=  216 NGZF=  128
   support grid    NGXF=   128 NGYF=  216 NGZF=  128
   ions per type =              12  27  54
   NGX,Y,Z   is equivalent  to a cutoff of  12.63, 12.68, 12.60 a.u.
   NGXF,Y,Z  is equivalent  to a cutoff of  25.26, 25.35, 25.21 a.u.

 SYSTEM =  unknown system                          
 POSCAR =  ce238543_1                              

 Startparameter for this run:
   NWRITE =      1    write-flag & timer
   PREC   = accura    normal or accurate (medium, high low for compatibility)
   ISTART =      0    job   : 0-new  1-cont  2-samecut
   ICHARG =      2    charge: 1-file 2-atom 10-const
   ISPIN  =      2    spin polarized calculation?
   LNONCOLLINEAR =      F non collinear calculations
   LSORBIT =      F    spin-orbit coupling
   INIWAV =      1    electr: 0-lowe 1-rand  2-diag
   LASPH  =      F    aspherical Exc in radial PAW
   METAGGA=      F    non-selfconsistent MetaGGA calc.

 Electronic Relaxation 1
   ENCUT  =  500.0 eV  36.75 Ry    6.06 a.u.  15.36 25.83 15.39*2*pi/ulx,y,z
   ENINI  =  500.0     initial cutoff
   ENAUG  =  628.9 eV  augmentation charge cutoff
   NELM   =     80;   NELMIN=  2; NELMDL= -5     # of ELM steps 
   EDIFF  = 0.1E-04   stopping-criterion for ELM
   LREAL  =      T    real-space projection
   NLSPLINE    = F    spline interpolate recip. space projectors
   LCOMPAT=      F    compatible to vasp.4.4
   GGA_COMPAT  = T    GGA compatible to vasp.4.4-vasp.4.6
   LMAXPAW     = -100 max onsite density
   LMAXMIX     =    2 max onsite mixed and CHGCAR
   VOSKOWN=      1    Vosko Wilk Nusair interpolation
   ROPT   =   -0.00025  -0.00025  -0.00025
 Ionic relaxation
   EDIFFG = -.2E-01   stopping-criterion for IOM
   NSW    =     20    number of steps for IOM
   NBLOCK =      1;   KBLOCK =     20    inner block; outer block 
   IBRION =      1    ionic relax: 0-MD 1-quasi-New 2-CG
   NFREE  =      0    steps in history (QN), initial steepest desc. (CG)
   ISIF   =      3    stress and relaxation
   IWAVPR =     11    prediction:  0-non 1-charg 2-wave 3-comb
   ISYM   =      2    0-nonsym 1-usesym 2-fastsym
   LCORR  =      T    Harris-Foulkes like correction to forces

   POTIM  = 0.5000    time-step for ionic-motion
   TEIN   =    0.0    initial temperature
   TEBEG  =    0.0;   TEEND  =   0.0 temperature during run
   SMASS  =  -3.00    Nose mass-parameter (am)
   estimated Nose-frequenzy (Omega)   =  0.10E-29 period in steps =****** mass=  -0.162E-26a.u.
   SCALEE = 1.0000    scale energy and forces
   NPACO  =    256;   APACO  = 16.0  distance and # of slots for P.C.
   PSTRESS=    0.0 pullay stress

  Mass of Ions in am
   POMASS =   7.01 58.69 16.00
  Ionic Valenz
   ZVAL   =   3.00 10.00  6.00
  Atomic Wigner-Seitz radii
   RWIGS  =   1.23  1.15  0.73
  virtual crystal weights 
   VCA    =   1.00  1.00  1.00
   NELECT =     630.0000    total number of electrons
   NUPDOWN=      -1.0000    fix difference up-down

 DOS related values:
   EMIN   =  10.00;   EMAX   =-10.00  energy-range for DOS
   EFERMI =   0.00
   ISMEAR =     0;   SIGMA  =   0.05  broadening in eV -4-tet -1-fermi 0-gaus

 Electronic relaxation 2 (details)
   IALGO  =     38    algorithm
   LDIAG  =      T    sub-space diagonalisation (order eigenvalues)
   LSUBROT=      F    optimize rotation matrix (better conditioning)
   TURBO    =      0    0=normal 1=particle mesh
   IRESTART =      0    0=no restart 2=restart with 2 vectors
   NREBOOT  =      0    no. of reboots
   NMIN     =      0    reboot dimension
   EREF     =   0.00    reference energy to select bands
   IMIX   =      4    mixing-type and parameters
     AMIX     =   0.40;   BMIX     =  1.00
     AMIX_MAG =   1.60;   BMIX_MAG =  1.00
     AMIN     =   0.10
     WC   =   100.;   INIMIX=   1;  MIXPRE=   1;  MAXMIX= -45

 Intra band minimization:
   WEIMIN = 0.0010     energy-eigenvalue tresh-hold
   EBREAK =  0.60E-08  absolut break condition
   DEPER  =   0.30     relativ break condition  

   TIME   =   0.40     timestep for ELM

  volume/ion in A,a.u.               =       9.39        63.35
  Fermi-wavevector in a.u.,A,eV,Ry     =   1.468374  2.774824 29.335810  2.156121
  Thomas-Fermi vector in A             =   2.583879
 
 Write flags
   LWAVE        =      F    write WAVECAR
   LDOWNSAMPLE  =      F    k-point downsampling of WAVECAR
   LCHARG       =      T    write CHGCAR
   LVTOT        =      F    write LOCPOT, total local potential
   LVHAR        =      F    write LOCPOT, Hartree potential only
   LELF         =      F    write electronic localiz. function (ELF)
   LORBIT       =      0    0 simple, 1 ext, 2 COOP (PROOUT), +10 PAW based schemes


 Dipole corrections
   LMONO  =      F    monopole corrections only (constant potential shift)
   LDIPOL =      F    correct potential (dipole corrections)
   IDIPOL =      0    1-x, 2-y, 3-z, 4-all directions 
   EPSILON=  1.0000000 bulk dielectric constant

 Exchange correlation treatment:
   GGA     =    PS    GGA type
   LEXCH   =    14    internal setting for exchange type
   VOSKOWN=      1    Vosko Wilk Nusair interpolation
   LHFCALC =     F    Hartree Fock is set to
   LHFONE  =     F    Hartree Fock one center treatment
   AEXX    =    0.0000 exact exchange contribution

 Linear response parameters
   LEPSILON=     F    determine dielectric tensor
   LRPA    =     F    only Hartree local field effects (RPA)
   LNABLA  =     F    use nabla operator in PAW spheres
   LVEL    =     F    velocity operator in full k-point grid
   LINTERFAST=   F  fast interpolation
   KINTER  =     0    interpolate to denser k-point grid
   CSHIFT  =0.1000    complex shift for real part using Kramers Kronig
   OMEGAMAX=  -1.0    maximum frequency
   DEG_THRESHOLD= 0.2000000E-02 threshold for treating states as degnerate
   RTIME   =   -0.100 relaxation time in fs
  (WPLASMAI=    0.000 imaginary part of plasma frequency in eV, 0.658/RTIME)
   DFIELD  = 0.0000000 0.0000000 0.0000000 field for delta impulse in time
 
 Orbital magnetization related:
   ORBITALMAG=     F  switch on orbital magnetization
   LCHIMAG   =     F  perturbation theory with respect to B field
   DQ        =  0.001000  dq finite difference perturbation B field
   LLRAUG    =     F  two centre corrections for induced B field



--------------------------------------------------------------------------------------------------------


 quasi-Newton-method for relaxation of ions
 charge density and potential will be updated during run
 spin polarized calculation
 Variant of blocked Davidson
 Davidson routine will perform the subspace rotation
 perform sub-space diagonalisation
    after iterative eigenvector-optimisation
 modified Broyden-mixing scheme, WC =      100.0
 initial mixing is a Kerker type mixing with AMIX =  0.4000 and BMIX =      1.0000
 Hartree-type preconditioning will be used
 using additional bands          101
 real space projection scheme for non local part
 use partial core corrections
 calculate Harris-corrections to forces 
   (improved forces if not selfconsistent)
 use gradient corrections 
 use of overlap-Matrix (Vanderbilt PP)
 Gauss-broadening in eV      SIGMA  =   0.05


--------------------------------------------------------------------------------------------------------


  energy-cutoff  :      500.00
  volume of cell :      873.08
      direct lattice vectors                 reciprocal lattice vectors
    -4.212425187  7.296134531  0.000000000    -0.000163505  0.136964477 -0.000101977
     0.018304483  0.010568053 14.164528173    -0.000092610 -0.000053468  0.070599052
     8.442320624  0.010086491  0.011082004     0.118369461  0.068340639 -0.000203954

  length of vectors
     8.424850446 14.164543942  8.442333923     0.136964612  0.070599133  0.136681432


 
 k-points in units of 2pi/SCALE and weight: Automatic mesh                          
   0.00000000  0.00000000  0.00000000       1.000
 
 k-points in reciprocal lattice and weights: Automatic mesh                          
   0.00000000  0.00000000  0.00000000       1.000
 
 position of ions in fractional coordinates (direct lattice) 
   0.97924402  0.49976720  0.99962205
   0.09073308  0.83356613  0.22260017
   0.22347551  0.16666667  0.11111111
   0.33326598  0.49981866  0.99988022
   0.44449686  0.83351467  0.22234200
   0.57676135  0.16666667  0.11111111
   0.22209583  0.16656698  0.46326647
   0.68664987  0.50007468  0.35209687
   0.79709747  0.83317418  0.57418325
   0.33402532  0.50015915  0.64803898
   0.44566410  0.83325865  0.87012535
   0.86994047  0.16676636  0.75895575
   0.99999980  0.99808059  0.00063574
   0.11047517  0.33525274  0.22158648
   0.22304609  0.66666667  0.11111111
   0.33108273  0.99965747  0.99785291
   0.44434093  0.33367586  0.22436931
   0.55701895  0.66666667  0.11111111
   0.66753875  0.99841736  0.99927889
   0.77937097  0.33491597  0.22294333
   0.88641002  0.66666667  0.11111111
   0.99928430  0.00140067  0.33390591
   0.10981343  0.33456709  0.55618241
   0.22186530  0.66790147  0.44321781
   0.33578674  0.00003864  0.33521633
   0.44498209  0.33212227  0.55419357
   0.55436935  0.66523548  0.44518023
   0.66721717  0.00186351  0.33356941
   0.77805757  0.33335377  0.55616297
   0.89001949  0.66801604  0.44528384
   0.00189964  0.00121106  0.66802866
   0.11168152  0.33329469  0.88700589
   0.22030022  0.66809786  0.77704199
   0.33300571  0.99997956  0.66605926
   0.44475885  0.33146982  0.88865281
   0.55584676  0.66531730  0.77693838
   0.66474215  0.99876624  0.66603982
   0.77648950  0.33193266  0.88831631
   0.88975860  0.66543187  0.77900441
   0.00052886  0.73402062  0.00328341
   0.00206699  0.26272204  0.99524432
   0.11793378  0.07061129  0.22697790
   0.10835657  0.59931271  0.21893881
   0.21917250  0.40377038  0.10388425
   0.22639936  0.92956296  0.11833797
   0.33810397  0.73665473  0.00110960
   0.33668743  0.26325385  0.00675662
   0.44104192  0.07007948  0.21546560
   0.44810548  0.59667860  0.22111262
   0.55499562  0.40402177  0.11697369
   0.54913304  0.92931157  0.10524853
   0.66151716  0.73375466  0.99596556
   0.66590992  0.26590341  0.00340478
   0.77361625  0.06742992  0.21881744
   0.77666271  0.59957867  0.22625666
   0.88957101  0.40100655  0.10727198
   0.89341014  0.93232679  0.11495024
   0.00030251  0.73514408  0.33060340
   0.00340949  0.26726914  0.33656724
   0.11298786  0.06862045  0.55443655
   0.11478137  0.60043393  0.55751935
   0.22576358  0.40181724  0.45016759
   0.21962754  0.93242141  0.44116847
   0.33097893  0.73661918  0.32719901
   0.32760216  0.26410373  0.33051844
   0.44086803  0.06780767  0.55347043
   0.44145213  0.59883258  0.55583200
   0.55752026  0.40102883  0.44336642
   0.55881093  0.93060189  0.44252544
   0.66562647  0.73744452  0.34089464
   0.66686909  0.26609784  0.33106587
   0.78056907  0.06853808  0.56337041
   0.77759984  0.59842161  0.55305663
   0.88618224  0.40210343  0.44424286
   0.88850124  0.93407855  0.44872514
   0.99673125  0.73450075  0.66639023
   0.99850872  0.26552566  0.66875180
   0.10819483  0.06922960  0.89170378
   0.11489103  0.59671415  0.89502321
   0.22739659  0.40273145  0.77969678
   0.22526494  0.93230451  0.77885580
   0.33565432  0.73491172  0.66916560
   0.32830977  0.26479525  0.65885182
   0.44691432  0.06723549  0.89115635
   0.43584293  0.59588881  0.88132758
   0.55088721  0.39925479  0.77349708
   0.55305049  0.93122991  0.77797936
   0.66837315  0.73289940  0.66470288
   0.66966243  0.26471288  0.66778568
   0.77795336  0.06606419  0.88565498
   0.78081022  0.59818925  0.89161882
   0.88957018  0.40091193  0.78105375
   0.88670710  0.93151610  0.77205463
 
 position of ions in cartesian coordinates  (Angst):
   4.32328566  7.16006035  7.09004440
   1.51231369  0.67305518 11.80953779
  -0.00028750  1.63338945  2.36198608
   7.04660032  2.44692082  7.09077617
   0.01992974  3.25416017 11.80880602
  -1.48847767  4.21101046  2.36198608
   2.97853093  1.62687408  2.36447660
   0.08920707  5.01872606  7.08722383
   1.50497646  5.83032690 11.80788225
   4.07305133  2.44891582  7.09169994
   5.48380288  3.26920766 11.81235836
   2.74584121  6.35662030  2.37057755
  -4.18878787  7.30668725 14.13734768
   1.41147235  0.81181970  4.75115250
   0.01067364  1.63554037  9.44425016
   7.04783118  2.43625341 14.17073461
   0.02855249  3.24776061  4.72884758
  -1.39616205  4.07225128  9.44425016
   5.64255125  4.89108307 14.15318484
  -1.39475237  5.69218357  4.74639735
  -2.78369729  6.47553284  9.44425016
  -1.39044397  7.29429543  0.02354018
   4.23901345  0.81035921  4.74514859
   2.81942147  1.63028801  9.46542093
   1.41552792  2.45332679  0.00426219
   2.81030537  3.25574895  4.71049683
   1.43529162  4.05627391  9.42768019
   0.00553161  4.87149047  0.03009236
   1.42389868  5.68594534  4.72796227
   0.02231612  6.50525291  9.46706666
   5.63173221  0.02061089  0.02455719
   7.02403886  0.82731245  4.73079183
   5.64426861  1.62223816  9.47190214
   4.23862830  2.44694050 14.17161992
   5.63484595  3.25748678  4.70496166
   4.22987831  4.07040043  9.43251567
   2.84102703  4.86732117 14.15443360
   4.23462303  5.67783973  4.71151384
   2.84074385  6.50668818  9.43416140
   0.03892768  0.01164892 10.39709214
   8.39827360  0.02789602  3.73236304
   1.42072548  0.86349636  1.00269098
   1.40287780  0.79912600  8.49140805
  -0.03883280  1.60442694  5.72036817
   0.06237189  1.66285747 13.16813216
  -1.40138600  2.47464825 10.43437897
  -1.35641033  2.45936702  3.72894145
  -0.03754364  3.22081508  0.99503056
  -0.00998529  3.27797385  8.45412121
  -1.34295272  4.05477228  5.72407405
  -1.40762945  4.01743114 13.16442628
   5.63510004  4.84431835 10.40432585
  -2.77148425  4.86141279  3.76643407
  -1.41023932  5.64732794  0.95753794
  -1.35052732  5.67525413  8.49525634
  -2.83428666  6.49574962  5.68125736
  -2.77591083  6.52945290 13.20724296
   2.80324203  0.01331082 10.41663278
   2.83193855  0.03109539  3.78947110
   4.20603428  0.83069213  0.97812057
   4.23423981  0.84942915  8.51104175
   2.85680200  1.65598849  5.69654038
   2.81638858  1.61673580 13.21219836
   1.38157840  2.42595172 10.43748915
   1.41517733  2.39635427  3.74456753
   2.81669242  3.22293163  0.96659721
   2.84388921  3.23282902  8.48834068
   1.40186971  4.07645293  5.68529755
   1.39902660  4.09145790 13.18644076
   0.08753868  4.86773206 10.44933147
  -0.00930115  4.87171802  3.77281922
   1.46931937  5.70154369  0.97705284
   1.40445404  5.68537560  8.48248873
   0.02482457  6.47443514  5.70052846
   0.06263433  6.49702203 13.23575471
   1.44066882  7.28676907 10.41124151
   1.44453414  7.29480540  3.76845680
   7.07355380  0.79912982  0.99048648
   7.08302558  0.85359416  8.46209304
   5.63193087  1.67123660  5.71314157
   5.64350403  1.66127187 13.21428478
   4.24884401  2.46349519 10.41709346
   4.18410490  2.40483612  3.75800118
   5.64206521  3.27044619  0.96223479
   5.61540171  3.19515554  8.45025071
   4.21684735  4.03136841  5.66382762
   4.25531306  4.05281915 13.19905387
   2.80957829  4.89099026 10.38854044
   2.82160336  4.89548029  3.75693345
   4.20112225  5.68568369  0.94558291
   4.24917686  5.71221141  8.48294941
   2.85399684  6.50253866  5.68738397
   2.79979632  6.48716592 13.20304195
 


--------------------------------------------------------------------------------------------------------


 use serial FFT for orbitals x direction half grid
 k-point  1 :   0.0000 0.0000 0.0000  plane waves:   11073

 maximum and minimum number of plane-waves per node :     11073    11073

 maximum number of plane-waves:     11073
 maximum index in each direction: 
   IXMAX=   15   IYMAX=   25   IZMAX=   13
   IXMIN=    0   IYMIN=  -25   IZMIN=  -15

 The following grids will avoid any aliasing or wrap around errors in the Hartre
 e energy
  - symmetry arguments have not been applied
  - exchange correlation energies might require even more grid points
  - we recommend to set PREC=Normal or Accurate and rely on VASP defaults
 NGX is ok and might be reduce to    64
 NGY is ok and might be reduce to   108
 NGZ is ok and might be reduce to    60

 serial   3D FFT for wavefunctions
 parallel 3D FFT for charge:
    minimum data exchange during FFTs selected (reduces bandwidth)


 total amount of memory used by VASP MPI-rank0   145757. kBytes
=======================================================================

   base      :      30000. kBytes
   nonlr-proj:      39993. kBytes
   fftplans  :       9349. kBytes
   grid      :      55332. kBytes
   one-center:       1446. kBytes
   wavefun   :       9637. kBytes
 
     INWAV:  cpu time    0.0000: real time    0.0000
 Broyden mixing: mesh for mixing (old mesh)
   NGX = 31   NGY = 51   NGZ = 31
  (NGX  =128   NGY  =216   NGZ  =128)
  gives a total of  49011 points

 initial charge density was supplied:
 charge density of overlapping atoms calculated
 number of electron     630.0000000 magnetization      67.5000000
 keeping initial charge density in first step


--------------------------------------------------------------------------------------------------------


 Maximum index for non-local projection operator         6616
 Maximum index for augmentation-charges         1090 (set IRDMAX)


--------------------------------------------------------------------------------------------------------


 First call to EWALD:  gamma=   0.185
 Maximum number of real-space cells 3x 2x 3
 Maximum number of reciprocal cells 2x 4x 2

    FEWALD:  cpu time    0.0035: real time    0.0035


--------------------------------------- Iteration      1(   1)  ---------------------------------------


    POTLOK:  cpu time    0.2620: real time    0.3203
    SETDIJ:  cpu time    0.0278: real time    0.0279
     EDDAV:  cpu time    4.5564: real time    4.6036
    --------------------------------------------
      LOOP:  cpu time    4.8466: real time    4.9524

 eigenvalue-minimisations  :  1696
 total energy-change (2. order) : 0.1132094E+05  (-0.2912551E+05)
 number of electron     630.0000000 magnetization      67.5000000
 augmentation part      630.0000000 magnetization      67.5000000

 Free energy of the ion-electron system (eV)
  ---------------------------------------------------
  alpha Z        PSCENC =      1962.45107442
  Ewald energy   TEWEN  =    -37049.91696061
  -Hartree energ DENC   =    -19014.25846486
  -exchange      EXHF   =         0.00000000
  -V(xc)+E(xc)   XCENC  =      2560.97782425
  PAW double counting   =     45614.75965022   -47680.17472601
  entropy T*S    EENTRO =        -0.00014256
  eigenvalues    EBANDS =     10179.32371709
  atomic energy  EATOM  =     54747.78018348
  Solvation  Ediel_sol  =         0.00000000
  ---------------------------------------------------
  free energy    TOTEN  =     11320.94215542 eV

  energy without entropy =    11320.94229798  energy(sigma->0) =    11320.94222670


--------------------------------------------------------------------------------------------------------




--------------------------------------- Iteration      1(   2)  ---------------------------------------


     EDDAV:  cpu time    4.6408: real time    4.6518
    --------------------------------------------
      LOOP:  cpu time    4.6407: real time    4.6517

 eigenvalue-minimisations  :  1744
 total energy-change (2. order) :-0.9149200E+04  (-0.8373596E+04)
 number of electron     630.0000000 magnetization      67.5000000
 augmentation part      630.0000000 magnetization      67.5000000

 Free energy of the ion-electron system (eV)
  ---------------------------------------------------
  alpha Z        PSCENC =      1962.45107442
  Ewald energy   TEWEN  =    -37049.91696061
  -Hartree energ DENC   =    -19014.25846486
  -exchange      EXHF   =         0.00000000
  -V(xc)+E(xc)   XCENC  =      2560.97782425
  PAW double counting   =     45614.75965022   -47680.17472601
  entropy T*S    EENTRO =        -0.02854459
  eigenvalues    EBANDS =      1030.15233678
  atomic energy  EATOM  =     54747.78018348
  Solvation  Ediel_sol  =         0.00000000
  ---------------------------------------------------
  free energy    TOTEN  =      2171.74237307 eV

  energy without entropy =     2171.77091766  energy(sigma->0) =     2171.75664537


--------------------------------------------------------------------------------------------------------




--------------------------------------- Iteration      1(   3)  ---------------------------------------


     EDDAV:  cpu time    4.8010: real time    4.8124
    --------------------------------------------
      LOOP:  cpu time    4.8010: real time    4.8124

 eigenvalue-minimisations  :  1824
 total energy-change (2. order) :-0.2498252E+04  (-0.2114995E+04)
 number of electron     630.0000000 magnetization      67.5000000
 augmentation part      630.0000000 magnetization      67.5000000

 Free energy of the ion-electron system (eV)
  ---------------------------------------------------
  alpha Z        PSCENC =      1962.45107442
  Ewald energy   TEWEN  =    -37049.91696061
  -Hartree energ DENC   =    -19014.25846486
  -exchange      EXHF   =         0.00000000
  -V(xc)+E(xc)   XCENC  =      2560.97782425
  PAW double counting   =     45614.75965022   -47680.17472601
  entropy T*S    EENTRO =        -0.12400492
  eigenvalues    EBANDS =     -1468.00467802
  atomic energy  EATOM  =     54747.78018348
  Solvation  Ediel_sol  =         0.00000000
  ---------------------------------------------------
  free energy    TOTEN  =      -326.51010206 eV

  energy without entropy =     -326.38609714  energy(sigma->0) =     -326.44809960


--------------------------------------------------------------------------------------------------------




--------------------------------------- Iteration      1(   4)  ---------------------------------------


     EDDAV:  cpu time    4.9946: real time    5.0065
    --------------------------------------------
      LOOP:  cpu time    4.9947: real time    5.0065

 eigenvalue-minimisations  :  1920
 total energy-change (2. order) :-0.4125071E+03  (-0.3954931E+03)
 number of electron     630.0000000 magnetization      67.5000000
 augmentation part      630.0000000 magnetization      67.5000000

 Free energy of the ion-electron system (eV)
  ---------------------------------------------------
  alpha Z        PSCENC =      1962.45107442
  Ewald energy   TEWEN  =    -37049.91696061
  -Hartree energ DENC   =    -19014.25846486
  -exchange      EXHF   =         0.00000000
  -V(xc)+E(xc)   XCENC  =      2560.97782425
  PAW double counting   =     45614.75965022   -47680.17472601
  entropy T*S    EENTRO =        -0.23058233
  eigenvalues    EBANDS =     -1880.40523561
  atomic energy  EATOM  =     54747.78018348
  Solvation  Ediel_sol  =         0.00000000
  ---------------------------------------------------
  free energy    TOTEN  =      -739.01723706 eV

  energy without entropy =     -738.78665473  energy(sigma->0) =     -738.90194589


--------------------------------------------------------------------------------------------------------




--------------------------------------- Iteration      1(   5)  ---------------------------------------


     EDDAV:  cpu time    5.8564: real time    5.8703
    CHARGE:  cpu time    0.3402: real time    0.3410
    MIXING:  cpu time    0.0051: real time    0.0052
    --------------------------------------------
      LOOP:  cpu time    6.2014: real time    6.2162

 eigenvalue-minimisations  :  2352
 total energy-change (2. order) :-0.2086503E+02  (-0.2063573E+02)
 number of electron     629.9999947 magnetization      72.3792784
 augmentation part      186.9574841 magnetization      51.0580806

 Broyden mixing:
  rms(total) = 0.15989E+02    rms(broyden)= 0.15988E+02
  rms(prec ) = 0.17559E+02
  weight for this iteration     100.00

 Free energy of the ion-electron system (eV)
  ---------------------------------------------------
  alpha Z        PSCENC =      1962.45107442
  Ewald energy   TEWEN  =    -37049.91696061
  -Hartree energ DENC   =    -19014.25846486
  -exchange      EXHF   =         0.00000000
  -V(xc)+E(xc)   XCENC  =      2560.97782425
  PAW double counting   =     45614.75965022   -47680.17472601
  entropy T*S    EENTRO =        -0.21000566
  eigenvalues    EBANDS =     -1901.29083917
  atomic energy  EATOM  =     54747.78018348
  Solvation  Ediel_sol  =         0.00000000
  ---------------------------------------------------
  free energy    TOTEN  =      -759.88226394 eV

  energy without entropy =     -759.67225828  energy(sigma->0) =     -759.77726111


--------------------------------------------------------------------------------------------------------




--------------------------------------- Iteration      1(   6)  ---------------------------------------


    POTLOK:  cpu time    0.2274: real time    0.2279
    SETDIJ:  cpu time    0.0284: real time    0.0284
     EDDAV:  cpu time    6.2773: real time    6.2922
    CHARGE:  cpu time    0.3305: real time    0.3313
    MIXING:  cpu time    0.0051: real time    0.0051
    --------------------------------------------
      LOOP:  cpu time    6.8686: real time    6.8850

 eigenvalue-minimisations  :  2528
 total energy-change (2. order) :-0.7676300E+02  (-0.1632521E+03)
 number of electron     629.9999975 magnetization      67.8617752
 augmentation part      234.7657130 magnetization      65.1520640

 Broyden mixing:
  rms(total) = 0.27715E+02    rms(broyden)= 0.27714E+02
  rms(prec ) = 0.28837E+02
  weight for this iteration     100.00

 eigenvalues of (default mixing * dielectric matrix)
  average eigenvalue GAMMA=   0.2529
  0.2529

 Free energy of the ion-electron system (eV)
  ---------------------------------------------------
  alpha Z        PSCENC =      1962.45107442
  Ewald energy   TEWEN  =    -37049.91696061
  -Hartree energ DENC   =    -18127.36518295
  -exchange      EXHF   =         0.00000000
  -V(xc)+E(xc)   XCENC  =      2595.88462310
  PAW double counting   =     50343.97331698   -52118.51670804
  entropy T*S    EENTRO =        -0.07847003
  eigenvalues    EBANDS =     -3190.85714483
  atomic energy  EATOM  =     54747.78018348
  Solvation  Ediel_sol  =         0.00000000
  ---------------------------------------------------
  free energy    TOTEN  =      -836.64526849 eV

  energy without entropy =     -836.56679846  energy(sigma->0) =     -836.60603348


--------------------------------------------------------------------------------------------------------




--------------------------------------- Iteration      1(   7)  ---------------------------------------


    POTLOK:  cpu time    0.2272: real time    0.2277
    SETDIJ:  cpu time    0.0285: real time    0.0286
     EDDAV:  cpu time    5.7205: real time    5.7341
    CHARGE:  cpu time    0.3302: real time    0.3310
    MIXING:  cpu time    0.0052: real time    0.0052
    --------------------------------------------
      LOOP:  cpu time    6.3117: real time    6.3267

 eigenvalue-minimisations  :  2256
 total energy-change (2. order) : 0.2029481E+03  (-0.5098229E+02)
 number of electron     629.9999962 magnetization      58.7178680
 augmentation part      225.6789853 magnetization      56.9965953

 Broyden mixing:
  rms(total) = 0.12341E+02    rms(broyden)= 0.12341E+02
  rms(prec ) = 0.13233E+02
  weight for this iteration     100.00

 eigenvalues of (default mixing * dielectric matrix)
  average eigenvalue GAMMA=   0.5190
  0.5190  0.5190

 Free energy of the ion-electron system (eV)
  ---------------------------------------------------
  alpha Z        PSCENC =      1962.45107442
  Ewald energy   TEWEN  =    -37049.91696061
  -Hartree energ DENC   =    -18378.22847946
  -exchange      EXHF   =         0.00000000
  -V(xc)+E(xc)   XCENC  =      2566.90814568
  PAW double counting   =     52183.61526524   -54126.17478575
  entropy T*S    EENTRO =        -0.04827012
  eigenvalues    EBANDS =     -2540.08337148
  atomic energy  EATOM  =     54747.78018348
  Solvation  Ediel_sol  =         0.00000000
  ---------------------------------------------------
  free energy    TOTEN  =      -633.69719861 eV

  energy without entropy =     -633.64892849  energy(sigma->0) =     -633.67306355


--------------------------------------------------------------------------------------------------------




--------------------------------------- Iteration      1(   8)  ---------------------------------------


    POTLOK:  cpu time    0.2272: real time    0.2277
    SETDIJ:  cpu time    0.0286: real time    0.0287
     EDDAV:  cpu time    6.1763: real time    6.1909
    CHARGE:  cpu time    0.3305: real time    0.3313
    MIXING:  cpu time    0.0055: real time    0.0055
    --------------------------------------------
      LOOP:  cpu time    6.7681: real time    6.7842

 eigenvalue-minimisations  :  2480
 total energy-change (2. order) :-0.4277399E+02  (-0.2657495E+02)
 number of electron     629.9999986 magnetization      55.9411744
 augmentation part      199.1672169 magnetization      46.4709509

 Broyden mixing:
  rms(total) = 0.15773E+02    rms(broyden)= 0.15772E+02
  rms(prec ) = 0.19349E+02
  weight for this iteration     100.00

 eigenvalues of (default mixing * dielectric matrix)
  average eigenvalue GAMMA=   0.4573
  0.5891  0.5891  0.1938

 Free energy of the ion-electron system (eV)
  ---------------------------------------------------
  alpha Z        PSCENC =      1962.45107442
  Ewald energy   TEWEN  =    -37049.91696061
  -Hartree energ DENC   =    -18613.10578743
  -exchange      EXHF   =         0.00000000
  -V(xc)+E(xc)   XCENC  =      2550.79375895
  PAW double counting   =     54278.50886445   -56395.76945574
  entropy T*S    EENTRO =        -0.06232661
  eigenvalues    EBANDS =     -2157.15054004
  atomic energy  EATOM  =     54747.78018348
  Solvation  Ediel_sol  =         0.00000000
  ---------------------------------------------------
  free energy    TOTEN  =      -676.47118913 eV

  energy without entropy =     -676.40886252  energy(sigma->0) =     -676.44002583


--------------------------------------------------------------------------------------------------------




--------------------------------------- Iteration      1(   9)  ---------------------------------------


    POTLOK:  cpu time    0.2271: real time    0.2277
    SETDIJ:  cpu time    0.0284: real time    0.0285
     EDDAV:  cpu time    6.0472: real time    6.0616
    CHARGE:  cpu time    0.3291: real time    0.3299
    MIXING:  cpu time    0.0058: real time    0.0058
    --------------------------------------------
      LOOP:  cpu time    6.6377: real time    6.6535

 eigenvalue-minimisations  :  2416
 total energy-change (2. order) : 0.7427892E+02  (-0.2094321E+02)
 number of electron     629.9999960 magnetization      51.7424166
 augmentation part      203.6264229 magnetization      44.6936458

 Broyden mixing:
  rms(total) = 0.87762E+01    rms(broyden)= 0.87751E+01
  rms(prec ) = 0.10390E+02
  weight for this iteration     100.00

 eigenvalues of (default mixing * dielectric matrix)
  average eigenvalue GAMMA=   0.4234
  0.6260  0.6260  0.3312  0.1104

 Free energy of the ion-electron system (eV)
  ---------------------------------------------------
  alpha Z        PSCENC =      1962.45107442
  Ewald energy   TEWEN  =    -37049.91696061
  -Hartree energ DENC   =    -18543.47057504
  -exchange      EXHF   =         0.00000000
  -V(xc)+E(xc)   XCENC  =      2547.45700618
  PAW double counting   =     54945.22127297   -57063.45894168
  entropy T*S    EENTRO =        -0.08097633
  eigenvalues    EBANDS =     -2148.17434992
  atomic energy  EATOM  =     54747.78018348
  Solvation  Ediel_sol  =         0.00000000
  ---------------------------------------------------
  free energy    TOTEN  =      -602.19226654 eV

  energy without entropy =     -602.11129021  energy(sigma->0) =     -602.15177837


--------------------------------------------------------------------------------------------------------




--------------------------------------- Iteration      1(  10)  ---------------------------------------


    POTLOK:  cpu time    0.2270: real time    0.2275
    SETDIJ:  cpu time    0.0284: real time    0.0285
     EDDAV:  cpu time    5.9796: real time    5.9938
    CHARGE:  cpu time    0.3297: real time    0.3305
    MIXING:  cpu time    0.0058: real time    0.0058
    --------------------------------------------
      LOOP:  cpu time    6.5706: real time    6.5862

 eigenvalue-minimisations  :  2384
 total energy-change (2. order) : 0.2643611E+01  (-0.9053186E+01)
 number of electron     629.9999954 magnetization      48.6882548
 augmentation part      203.4661786 magnetization      41.0931845

 Broyden mixing:
  rms(total) = 0.10066E+02    rms(broyden)= 0.10066E+02
  rms(prec ) = 0.12258E+02
  weight for this iteration     100.00

 eigenvalues of (default mixing * dielectric matrix)
  average eigenvalue GAMMA=   0.3848
  0.6378  0.6378  0.3855  0.1313  0.1313

 Free energy of the ion-electron system (eV)
  ---------------------------------------------------
  alpha Z        PSCENC =      1962.45107442
  Ewald energy   TEWEN  =    -37049.91696061
  -Hartree energ DENC   =    -18491.72958758
  -exchange      EXHF   =         0.00000000
  -V(xc)+E(xc)   XCENC  =      2545.37434323
  PAW double counting   =     56041.35349773   -58171.44701478
  entropy T*S    EENTRO =        -0.11177091
  eigenvalues    EBANDS =     -2183.30242052
  atomic energy  EATOM  =     54747.78018348
  Solvation  Ediel_sol  =         0.00000000
  ---------------------------------------------------
  free energy    TOTEN  =      -599.54865555 eV

  energy without entropy =     -599.43688465  energy(sigma->0) =     -599.49277010


--------------------------------------------------------------------------------------------------------




--------------------------------------- Iteration      1(  11)  ---------------------------------------


    POTLOK:  cpu time    0.2279: real time    0.2285
    SETDIJ:  cpu time    0.0283: real time    0.0284
     EDDAV:  cpu time    5.8324: real time    5.8463
    CHARGE:  cpu time    0.3291: real time    0.3299
    MIXING:  cpu time    0.0061: real time    0.0061
    --------------------------------------------
      LOOP:  cpu time    6.4239: real time    6.4392

 eigenvalue-minimisations  :  2320
 total energy-change (2. order) : 0.3229361E+02  (-0.5173879E+01)
 number of electron     629.9999962 magnetization      42.8350600
 augmentation part      207.9584179 magnetization      37.6958117

 Broyden mixing:
  rms(total) = 0.44390E+01    rms(broyden)= 0.44378E+01
  rms(prec ) = 0.50796E+01
  weight for this iteration     100.00

 eigenvalues of (default mixing * dielectric matrix)
  average eigenvalue GAMMA=   0.4530
  0.8589  0.8589  0.3740  0.3740  0.1469  0.1053

 Free energy of the ion-electron system (eV)
  ---------------------------------------------------
  alpha Z        PSCENC =      1962.45107442
  Ewald energy   TEWEN  =    -37049.91696061
  -Hartree energ DENC   =    -18458.36000115
  -exchange      EXHF   =         0.00000000
  -V(xc)+E(xc)   XCENC  =      2544.87446129
  PAW double counting   =     56831.96819301   -58967.23927739
  entropy T*S    EENTRO =        -0.03690568
  eigenvalues    EBANDS =     -2178.77581072
  atomic energy  EATOM  =     54747.78018348
  Solvation  Ediel_sol  =         0.00000000
  ---------------------------------------------------
  free energy    TOTEN  =      -567.25504335 eV

  energy without entropy =     -567.21813767  energy(sigma->0) =     -567.23659051


--------------------------------------------------------------------------------------------------------




--------------------------------------- Iteration      1(  12)  ---------------------------------------


    POTLOK:  cpu time    0.2268: real time    0.2273
    SETDIJ:  cpu time    0.0283: real time    0.0283
     EDDAV:  cpu time    5.7672: real time    5.7809
    CHARGE:  cpu time    0.3291: real time    0.3299
    MIXING:  cpu time    0.0063: real time    0.0063
    --------------------------------------------
      LOOP:  cpu time    6.3577: real time    6.3727

 eigenvalue-minimisations  :  2288
 total energy-change (2. order) :-0.2039078E+02  (-0.4184765E+01)
 number of electron     629.9999950 magnetization      37.1487724
 augmentation part      206.2981300 magnetization      31.4047128

 Broyden mixing:
  rms(total) = 0.10389E+02    rms(broyden)= 0.10388E+02
  rms(prec ) = 0.12334E+02
  weight for this iteration     100.00

 eigenvalues of (default mixing * dielectric matrix)
  average eigenvalue GAMMA=   0.4495
  0.9588  0.9588  0.4050  0.4050  0.1857  0.1165  0.1165

 Free energy of the ion-electron system (eV)
  ---------------------------------------------------
  alpha Z        PSCENC =      1962.45107442
  Ewald energy   TEWEN  =    -37049.91696061
  -Hartree energ DENC   =    -18468.72467330
  -exchange      EXHF   =         0.00000000
  -V(xc)+E(xc)   XCENC  =      2545.93243124
  PAW double counting   =     57649.35304040   -59791.61152620
  entropy T*S    EENTRO =        -0.08394678
  eigenvalues    EBANDS =     -2182.82544652
  atomic energy  EATOM  =     54747.78018348
  Solvation  Ediel_sol  =         0.00000000
  ---------------------------------------------------
  free energy    TOTEN  =      -587.64582388 eV

  energy without entropy =     -587.56187710  energy(sigma->0) =     -587.60385049


--------------------------------------------------------------------------------------------------------




--------------------------------------- Iteration      1(  13)  ---------------------------------------


    POTLOK:  cpu time    0.2269: real time    0.2274
    SETDIJ:  cpu time    0.0285: real time    0.0286
     EDDAV:  cpu time    5.5704: real time    5.5883
    CHARGE:  cpu time    0.3296: real time    0.3303
    MIXING:  cpu time    0.0065: real time    0.0065
    --------------------------------------------
      LOOP:  cpu time    6.1618: real time    6.1812

 eigenvalue-minimisations  :  2192
 total energy-change (2. order) : 0.3169756E+02  (-0.6563297E+01)
 number of electron     629.9999961 magnetization      32.1820708
 augmentation part      209.6206146 magnetization      26.0357992

 Broyden mixing:
  rms(total) = 0.29571E+01    rms(broyden)= 0.29553E+01
  rms(prec ) = 0.35164E+01
  weight for this iteration     100.00

 eigenvalues of (default mixing * dielectric matrix)
  average eigenvalue GAMMA=   0.4956
  1.3962  0.6472  0.6472  0.4542  0.4542  0.1384  0.1136  0.1136

 Free energy of the ion-electron system (eV)
  ---------------------------------------------------
  alpha Z        PSCENC =      1962.45107442
  Ewald energy   TEWEN  =    -37049.91696061
  -Hartree energ DENC   =    -18467.10061825
  -exchange      EXHF   =         0.00000000
  -V(xc)+E(xc)   XCENC  =      2548.02261528
  PAW double counting   =     58570.60197861   -60720.98335251
  entropy T*S    EENTRO =        -0.02839058
  eigenvalues    EBANDS =     -2146.77479605
  atomic energy  EATOM  =     54747.78018348
  Solvation  Ediel_sol  =         0.00000000
  ---------------------------------------------------
  free energy    TOTEN  =      -555.94826622 eV

  energy without entropy =     -555.91987564  energy(sigma->0) =     -555.93407093


--------------------------------------------------------------------------------------------------------




--------------------------------------- Iteration      1(  14)  ---------------------------------------


    POTLOK:  cpu time    0.2267: real time    0.2272
    SETDIJ:  cpu time    0.0285: real time    0.0285
     EDDAV:  cpu time    5.3141: real time    5.3267
    CHARGE:  cpu time    0.3300: real time    0.3308
    MIXING:  cpu time    0.0069: real time    0.0069
    --------------------------------------------
      LOOP:  cpu time    5.9061: real time    5.9201

 eigenvalue-minimisations  :  2064
 total energy-change (2. order) :-0.4361939E+01  (-0.1584426E+01)
 number of electron     629.9999959 magnetization      29.3812067
 augmentation part      208.8055513 magnetization      25.1263461

 Broyden mixing:
  rms(total) = 0.41670E+01    rms(broyden)= 0.41663E+01
  rms(prec ) = 0.46262E+01
  weight for this iteration     100.00

 eigenvalues of (default mixing * dielectric matrix)
  average eigenvalue GAMMA=   0.4762
  1.5001  0.6726  0.6726  0.4489  0.4489  0.1750  0.1426  0.1126  0.1126

 Free energy of the ion-electron system (eV)
  ---------------------------------------------------
  alpha Z        PSCENC =      1962.45107442
  Ewald energy   TEWEN  =    -37049.91696061
  -Hartree energ DENC   =    -18488.44511117
  -exchange      EXHF   =         0.00000000
  -V(xc)+E(xc)   XCENC  =      2546.58510867
  PAW double counting   =     59348.34471672   -61515.19697471
  entropy T*S    EENTRO =        -0.05889566
  eigenvalues    EBANDS =     -2111.85334623
  atomic energy  EATOM  =     54747.78018348
  Solvation  Ediel_sol  =         0.00000000
  ---------------------------------------------------
  free energy    TOTEN  =      -560.31020511 eV

  energy without entropy =     -560.25130944  energy(sigma->0) =     -560.28075728


--------------------------------------------------------------------------------------------------------




--------------------------------------- Iteration      1(  15)  ---------------------------------------


    POTLOK:  cpu time    0.2266: real time    0.2271
    SETDIJ:  cpu time    0.0284: real time    0.0285
     EDDAV:  cpu time    5.1842: real time    5.1966
    CHARGE:  cpu time    0.3310: real time    0.3317
    MIXING:  cpu time    0.0071: real time    0.0071
    --------------------------------------------
      LOOP:  cpu time    5.7772: real time    5.7910

 eigenvalue-minimisations  :  2000
 total energy-change (2. order) : 0.1904653E+01  (-0.1554414E+01)
 number of electron     629.9999961 magnetization      28.0837776
 augmentation part      208.8508254 magnetization      22.8590483

 Broyden mixing:
  rms(total) = 0.17544E+01    rms(broyden)= 0.17537E+01
  rms(prec ) = 0.20194E+01
  weight for this iteration     100.00

 eigenvalues of (default mixing * dielectric matrix)
  average eigenvalue GAMMA=   0.4660
  1.4551  0.6486  0.6486  0.5439  0.4186  0.4186  0.1579  0.1422  0.1135  0.1135

 Free energy of the ion-electron system (eV)
  ---------------------------------------------------
  alpha Z        PSCENC =      1962.45107442
  Ewald energy   TEWEN  =    -37049.91696061
  -Hartree energ DENC   =    -18496.50295707
  -exchange      EXHF   =         0.00000000
  -V(xc)+E(xc)   XCENC  =      2545.64509981
  PAW double counting   =     59700.46890198   -61872.86130625
  entropy T*S    EENTRO =        -0.05443581
  eigenvalues    EBANDS =     -2095.41515191
  atomic energy  EATOM  =     54747.78018348
  Solvation  Ediel_sol  =         0.00000000
  ---------------------------------------------------
  free energy    TOTEN  =      -558.40555197 eV

  energy without entropy =     -558.35111616  energy(sigma->0) =     -558.37833406


--------------------------------------------------------------------------------------------------------




--------------------------------------- Iteration      1(  16)  ---------------------------------------


    POTLOK:  cpu time    0.2266: real time    0.2271
    SETDIJ:  cpu time    0.0284: real time    0.0285
     EDDAV:  cpu time    5.7450: real time    5.7586
    CHARGE:  cpu time    0.3325: real time    0.3333
    MIXING:  cpu time    0.0074: real time    0.0074
    --------------------------------------------
      LOOP:  cpu time    6.3398: real time    6.3549

 eigenvalue-minimisations  :  2288
 total energy-change (2. order) :-0.3174374E+01  (-0.3725546E+00)
 number of electron     629.9999961 magnetization      27.2709950
 augmentation part      208.3073076 magnetization      22.8677556

 Broyden mixing:
  rms(total) = 0.19869E+01    rms(broyden)= 0.19866E+01
  rms(prec ) = 0.21586E+01
  weight for this iteration     100.00

 eigenvalues of (default mixing * dielectric matrix)
  average eigenvalue GAMMA=   0.4490
  1.3766  0.6752  0.6752  0.6643  0.4235  0.4235  0.1994  0.1496  0.1136  0.1136
  0.1239

 Free energy of the ion-electron system (eV)
  ---------------------------------------------------
  alpha Z        PSCENC =      1962.45107442
  Ewald energy   TEWEN  =    -37049.91696061
  -Hartree energ DENC   =    -18504.76851564
  -exchange      EXHF   =         0.00000000
  -V(xc)+E(xc)   XCENC  =      2544.31017914
  PAW double counting   =     59749.58424129   -61922.28165613
  entropy T*S    EENTRO =        -0.07592103
  eigenvalues    EBANDS =     -2088.66255092
  atomic energy  EATOM  =     54747.78018348
  Solvation  Ediel_sol  =         0.00000000
  ---------------------------------------------------
  free energy    TOTEN  =      -561.57992603 eV

  energy without entropy =     -561.50400500  energy(sigma->0) =     -561.54196552


--------------------------------------------------------------------------------------------------------




--------------------------------------- Iteration      1(  17)  ---------------------------------------


    POTLOK:  cpu time    0.2264: real time    0.2269
    SETDIJ:  cpu time    0.0284: real time    0.0285
     EDDAV:  cpu time    5.4885: real time    5.5015
    CHARGE:  cpu time    0.3333: real time    0.3340
    MIXING:  cpu time    0.0077: real time    0.0077
    --------------------------------------------
      LOOP:  cpu time    6.0842: real time    6.0987

 eigenvalue-minimisations  :  2160
 total energy-change (2. order) :-0.1870207E+01  (-0.2958022E+00)
 number of electron     629.9999960 magnetization      26.4503894
 augmentation part      208.1816532 magnetization      21.8312353

 Broyden mixing:
  rms(total) = 0.14899E+01    rms(broyden)= 0.14896E+01
  rms(prec ) = 0.15786E+01
  weight for this iteration     100.00

 eigenvalues of (default mixing * dielectric matrix)
  average eigenvalue GAMMA=   0.4625
  1.2263  0.7955  0.7955  0.6631  0.5203  0.4434  0.4434  0.1136  0.1136  0.1492
  0.1434  0.1434

 Free energy of the ion-electron system (eV)
  ---------------------------------------------------
  alpha Z        PSCENC =      1962.45107442
  Ewald energy   TEWEN  =    -37049.91696061
  -Hartree energ DENC   =    -18506.78015282
  -exchange      EXHF   =         0.00000000
  -V(xc)+E(xc)   XCENC  =      2543.35681412
  PAW double counting   =     59716.25630119   -61886.77145251
  entropy T*S    EENTRO =        -0.08322092
  eigenvalues    EBANDS =     -2089.74271976
  atomic energy  EATOM  =     54747.78018348
  Solvation  Ediel_sol  =         0.00000000
  ---------------------------------------------------
  free energy    TOTEN  =      -563.45013342 eV

  energy without entropy =     -563.36691250  energy(sigma->0) =     -563.40852296


--------------------------------------------------------------------------------------------------------




--------------------------------------- Iteration      1(  18)  ---------------------------------------


    POTLOK:  cpu time    0.2265: real time    0.2270
    SETDIJ:  cpu time    0.0286: real time    0.0287
     EDDAV:  cpu time    5.4571: real time    5.4713
    CHARGE:  cpu time    0.3321: real time    0.3330
    MIXING:  cpu time    0.0080: real time    0.0080
    --------------------------------------------
      LOOP:  cpu time    6.0523: real time    6.0680

 eigenvalue-minimisations  :  2144
 total energy-change (2. order) :-0.2291579E+01  (-0.1545727E+00)
 number of electron     629.9999960 magnetization      25.7615328
 augmentation part      208.0422476 magnetization      21.0532040

 Broyden mixing:
  rms(total) = 0.14279E+01    rms(broyden)= 0.14278E+01
  rms(prec ) = 0.15317E+01
  weight for this iteration     100.00

 eigenvalues of (default mixing * dielectric matrix)
  average eigenvalue GAMMA=   0.4646
  1.2143  0.8912  0.8912  0.6493  0.4576  0.4576  0.4001  0.4001  0.1714  0.1136
  0.1136  0.1474  0.1324

 Free energy of the ion-electron system (eV)
  ---------------------------------------------------
  alpha Z        PSCENC =      1962.45107442
  Ewald energy   TEWEN  =    -37049.91696061
  -Hartree energ DENC   =    -18506.80301067
  -exchange      EXHF   =         0.00000000
  -V(xc)+E(xc)   XCENC  =      2542.36969827
  PAW double counting   =     59668.50978078   -61835.67144981
  entropy T*S    EENTRO =        -0.07528811
  eigenvalues    EBANDS =     -2094.38573991
  atomic energy  EATOM  =     54747.78018348
  Solvation  Ediel_sol  =         0.00000000
  ---------------------------------------------------
  free energy    TOTEN  =      -565.74171218 eV

  energy without entropy =     -565.66642407  energy(sigma->0) =     -565.70406812


--------------------------------------------------------------------------------------------------------




--------------------------------------- Iteration      1(  19)  ---------------------------------------


    POTLOK:  cpu time    0.2265: real time    0.2270
    SETDIJ:  cpu time    0.0285: real time    0.0286
     EDDAV:  cpu time    5.4879: real time    5.5010
    CHARGE:  cpu time    0.3328: real time    0.3336
    MIXING:  cpu time    0.0081: real time    0.0081
    --------------------------------------------
      LOOP:  cpu time    6.0838: real time    6.0983

 eigenvalue-minimisations  :  2160
 total energy-change (2. order) :-0.1338141E+01  (-0.1932777E+00)
 number of electron     629.9999960 magnetization      23.2745773
 augmentation part      208.0516208 magnetization      19.0093652

 Broyden mixing:
  rms(total) = 0.15400E+01    rms(broyden)= 0.15398E+01
  rms(prec ) = 0.16660E+01
  weight for this iteration     100.00

 eigenvalues of (default mixing * dielectric matrix)
  average eigenvalue GAMMA=   0.4947
  1.1216  1.1216  1.1116  0.7114  0.5865  0.5865  0.4388  0.4388  0.1728  0.1136
  0.1136  0.1465  0.1315  0.1315

 Free energy of the ion-electron system (eV)
  ---------------------------------------------------
  alpha Z        PSCENC =      1962.45107442
  Ewald energy   TEWEN  =    -37049.91696061
  -Hartree energ DENC   =    -18505.25506405
  -exchange      EXHF   =         0.00000000
  -V(xc)+E(xc)   XCENC  =      2541.82426142
  PAW double counting   =     59681.39680914   -61846.77795756
  entropy T*S    EENTRO =        -0.06787165
  eigenvalues    EBANDS =     -2098.51432735
  atomic energy  EATOM  =     54747.78018348
  Solvation  Ediel_sol  =         0.00000000
  ---------------------------------------------------
  free energy    TOTEN  =      -567.07985276 eV

  energy without entropy =     -567.01198111  energy(sigma->0) =     -567.04591693


--------------------------------------------------------------------------------------------------------




--------------------------------------- Iteration      1(  20)  ---------------------------------------


    POTLOK:  cpu time    0.2265: real time    0.2270
    SETDIJ:  cpu time    0.0286: real time    0.0286
     EDDAV:  cpu time    5.3910: real time    5.4044
    CHARGE:  cpu time    0.3325: real time    0.3333
    MIXING:  cpu time    0.0083: real time    0.0084
    --------------------------------------------
      LOOP:  cpu time    5.9869: real time    6.0017

 eigenvalue-minimisations  :  2112
 total energy-change (2. order) :-0.2283123E+01  (-0.4055574E+00)
 number of electron     629.9999960 magnetization      19.7984075
 augmentation part      208.1113399 magnetization      15.3662313

 Broyden mixing:
  rms(total) = 0.13862E+01    rms(broyden)= 0.13859E+01
  rms(prec ) = 0.15572E+01
  weight for this iteration     100.00

 eigenvalues of (default mixing * dielectric matrix)
  average eigenvalue GAMMA=   0.5384
  1.4671  1.4671  1.1759  0.6854  0.6854  0.6494  0.4382  0.4382  0.2667  0.1655
  0.1136  0.1136  0.1429  0.1335  0.1335

 Free energy of the ion-electron system (eV)
  ---------------------------------------------------
  alpha Z        PSCENC =      1962.45107442
  Ewald energy   TEWEN  =    -37049.91696061
  -Hartree energ DENC   =    -18503.26084113
  -exchange      EXHF   =         0.00000000
  -V(xc)+E(xc)   XCENC  =      2540.85566706
  PAW double counting   =     59826.02417911   -61989.05188858
  entropy T*S    EENTRO =        -0.05604724
  eigenvalues    EBANDS =     -2104.18834178
  atomic energy  EATOM  =     54747.78018348
  Solvation  Ediel_sol  =         0.00000000
  ---------------------------------------------------
  free energy    TOTEN  =      -569.36297528 eV

  energy without entropy =     -569.30692804  energy(sigma->0) =     -569.33495166


--------------------------------------------------------------------------------------------------------




--------------------------------------- Iteration      1(  21)  ---------------------------------------


    POTLOK:  cpu time    0.2267: real time    0.2272
    SETDIJ:  cpu time    0.0285: real time    0.0286
     EDDAV:  cpu time    5.5974: real time    5.6107
    CHARGE:  cpu time    0.3334: real time    0.3342
    MIXING:  cpu time    0.0091: real time    0.0091
    --------------------------------------------
      LOOP:  cpu time    6.1951: real time    6.2099

 eigenvalue-minimisations  :  2224
 total energy-change (2. order) :-0.1556932E+01  (-0.3491001E+00)
 number of electron     629.9999960 magnetization      16.2182423
 augmentation part      208.3770915 magnetization      12.2491249

 Broyden mixing:
  rms(total) = 0.11787E+01    rms(broyden)= 0.11783E+01
  rms(prec ) = 0.13058E+01
  weight for this iteration     100.00

 eigenvalues of (default mixing * dielectric matrix)
  average eigenvalue GAMMA=   0.5636
  1.6355  1.6355  0.9021  0.9021  0.7435  0.7435  0.6170  0.4372  0.4372  0.1764
  0.1136  0.1136  0.1497  0.1497  0.1342  0.1273

 Free energy of the ion-electron system (eV)
  ---------------------------------------------------
  alpha Z        PSCENC =      1962.45107442
  Ewald energy   TEWEN  =    -37049.91696061
  -Hartree energ DENC   =    -18497.62865054
  -exchange      EXHF   =         0.00000000
  -V(xc)+E(xc)   XCENC  =      2540.07038026
  PAW double counting   =     60059.86924052   -62220.13348806
  entropy T*S    EENTRO =        -0.08257231
  eigenvalues    EBANDS =     -2113.32911454
  atomic energy  EATOM  =     54747.78018348
  Solvation  Ediel_sol  =         0.00000000
  ---------------------------------------------------
  free energy    TOTEN  =      -570.91990738 eV

  energy without entropy =     -570.83733507  energy(sigma->0) =     -570.87862123


--------------------------------------------------------------------------------------------------------




--------------------------------------- Iteration      1(  22)  ---------------------------------------


    POTLOK:  cpu time    0.2271: real time    0.2276
    SETDIJ:  cpu time    0.0284: real time    0.0285
     EDDAV:  cpu time    5.5063: real time    5.5194
    CHARGE:  cpu time    0.3332: real time    0.3340
    MIXING:  cpu time    0.0094: real time    0.0094
    --------------------------------------------
      LOOP:  cpu time    6.1044: real time    6.1189

 eigenvalue-minimisations  :  2176
 total energy-change (2. order) :-0.3844640E+00  (-0.1747741E+00)
 number of electron     629.9999960 magnetization      15.0697556
 augmentation part      208.2141314 magnetization      11.1540598

 Broyden mixing:
  rms(total) = 0.67271E+00    rms(broyden)= 0.67253E+00
  rms(prec ) = 0.75171E+00
  weight for this iteration     100.00

 eigenvalues of (default mixing * dielectric matrix)
  average eigenvalue GAMMA=   0.5629
  1.6943  1.2977  1.1411  1.0061  1.0061  0.5947  0.5947  0.4389  0.4389  0.3907
  0.1136  0.1136  0.1723  0.1601  0.1459  0.1336  0.1266

 Free energy of the ion-electron system (eV)
  ---------------------------------------------------
  alpha Z        PSCENC =      1962.45107442
  Ewald energy   TEWEN  =    -37049.91696061
  -Hartree energ DENC   =    -18501.34252754
  -exchange      EXHF   =         0.00000000
  -V(xc)+E(xc)   XCENC  =      2539.85680080
  PAW double counting   =     60281.20031829   -62442.57796456
  entropy T*S    EENTRO =        -0.06208554
  eigenvalues    EBANDS =     -2108.69321010
  atomic energy  EATOM  =     54747.78018348
  Solvation  Ediel_sol  =         0.00000000
  ---------------------------------------------------
  free energy    TOTEN  =      -571.30437137 eV

  energy without entropy =     -571.24228583  energy(sigma->0) =     -571.27332860


--------------------------------------------------------------------------------------------------------




--------------------------------------- Iteration      1(  23)  ---------------------------------------


    POTLOK:  cpu time    0.2268: real time    0.2273
    SETDIJ:  cpu time    0.0286: real time    0.0286
     EDDAV:  cpu time    5.5663: real time    5.5811
    CHARGE:  cpu time    0.3334: real time    0.3342
    MIXING:  cpu time    0.0092: real time    0.0092
    --------------------------------------------
      LOOP:  cpu time    6.1643: real time    6.1804

 eigenvalue-minimisations  :  2208
 total energy-change (2. order) :-0.1453264E+00  (-0.6262945E-01)
 number of electron     629.9999960 magnetization      14.5455198
 augmentation part      208.2036215 magnetization      10.7100315

 Broyden mixing:
  rms(total) = 0.87795E+00    rms(broyden)= 0.87777E+00
  rms(prec ) = 0.95500E+00
  weight for this iteration     100.00

 eigenvalues of (default mixing * dielectric matrix)
  average eigenvalue GAMMA=   0.5683
  2.1136  1.1882  1.1882  1.0693  1.0693  0.5670  0.5670  0.4391  0.4391  0.4639
  0.1800  0.1704  0.1136  0.1136  0.1430  0.1430  0.1343  0.1260

 Free energy of the ion-electron system (eV)
  ---------------------------------------------------
  alpha Z        PSCENC =      1962.45107442
  Ewald energy   TEWEN  =    -37049.91696061
  -Hartree energ DENC   =    -18502.13578281
  -exchange      EXHF   =         0.00000000
  -V(xc)+E(xc)   XCENC  =      2539.82407042
  PAW double counting   =     60366.57828879   -62529.28042007
  entropy T*S    EENTRO =        -0.07833306
  eigenvalues    EBANDS =     -2106.67181834
  atomic energy  EATOM  =     54747.78018348
  Solvation  Ediel_sol  =         0.00000000
  ---------------------------------------------------
  free energy    TOTEN  =      -571.44969780 eV

  energy without entropy =     -571.37136473  energy(sigma->0) =     -571.41053127


--------------------------------------------------------------------------------------------------------




--------------------------------------- Iteration      1(  24)  ---------------------------------------


    POTLOK:  cpu time    0.2271: real time    0.2276
    SETDIJ:  cpu time    0.0285: real time    0.0285
     EDDAV:  cpu time    5.2769: real time    5.2894
    CHARGE:  cpu time    0.3339: real time    0.3347
    MIXING:  cpu time    0.0098: real time    0.0099
    --------------------------------------------
[...]
   -.333E+01 0.328E+02 0.345E+03   0.366E+01 -.355E+02 -.366E+03   -.319E+00 0.263E+01 0.210E+02   -.212E-01 -.174E-01 0.931E-02
   -.272E+02 0.195E+02 -.345E+03   0.290E+02 -.203E+02 0.366E+03   -.173E+01 0.760E+00 -.210E+02   -.216E-01 0.637E-02 -.821E-05
   0.301E+01 0.363E+02 0.344E+03   -.264E+01 -.390E+02 -.366E+03   -.334E+00 0.279E+01 0.212E+02   -.429E-01 -.305E-01 0.135E-01
   0.329E+02 0.339E+02 -.359E+03   -.364E+02 -.360E+02 0.379E+03   0.349E+01 0.217E+01 -.200E+02   -.267E-01 -.185E-02 0.303E-01
   -.418E+02 -.224E+02 0.355E+03   0.470E+02 0.254E+02 -.374E+03   -.522E+01 -.302E+01 0.189E+02   -.106E-01 0.942E-02 -.124E-01
 -----------------------------------------------------------------------------------------------
   -.162E+00 0.280E+00 0.383E-02   -.568E-12 -.171E-12 -.455E-12   0.160E+00 -.276E+00 0.321E-11   0.940E-04 -.163E-03 -.530E-06
 
 
 POSITION                                       TOTAL-FORCE (eV/Angst)
 -----------------------------------------------------------------------------------
      4.38241      7.16142      7.19335         0.008192     -0.013292      0.001788
      1.53861      0.68405     11.96327         0.007416     -0.013741     -0.001788
      0.01888      1.61707      2.39356         0.006885     -0.011926      0.000000
      7.08389      2.48922      7.19657        -0.000189      0.005470     -0.003441
      0.04644      3.26166     11.96005        -0.004643      0.002899      0.003441
     -1.47021      4.19626      2.39356        -0.006168      0.010682     -0.000000
      2.99597      1.62137      2.39946         0.008258     -0.016396     -0.001158
      0.12137      5.01309      7.18199        -0.010217      0.008585     -0.007081
      1.54924      5.83643     11.95789        -0.006966      0.012024     -0.005816
      4.10268      2.47515      7.19872        -0.006930      0.012045      0.005816
      5.52964      3.30005     11.97463        -0.002326      0.013141      0.007081
      2.80165      6.34469      2.41199         0.010070     -0.015350      0.001158
     -4.13804      7.28146     14.31325        -0.003078     -0.007253     -0.006515
      1.41984      0.81929      4.81904         0.007820     -0.000961      0.006515
      0.03229      1.64043      9.56614        -0.000384      0.000665     -0.000000
      7.10232      2.47077     14.36368         0.002944      0.001243     -0.001147
      0.05320      3.23647      4.79294        -0.002548     -0.001928      0.001147
     -1.36668      4.06352      9.56614        -0.001087      0.001883     -0.000000
      5.70423      4.91655     14.34300         0.001133      0.004142     -0.004747
     -1.36586      5.67014      4.81361        -0.004154      0.001090      0.004747
     -2.74727      6.45477      9.56614        -0.001003      0.001737     -0.000000
     -1.35947      7.26315      0.03282        -0.001266     -0.000516      0.007931
      4.25912      0.83596      4.81637         0.002318      0.001391      0.004504
      2.84665      1.64553      9.59578         0.007301      0.001752      0.000384
      1.42921      2.45780      0.01313        -0.000117     -0.002713      0.005332
      2.84323      3.26485      4.77477        -0.000374      0.002850     -0.003872
      1.46854      4.05006      9.55348         0.000982     -0.002146     -0.001864
      0.01882      4.84812      0.03860         0.001793      0.005541      0.006663
      1.45747      5.67665      4.79592        -0.002600      0.000017     -0.001701
      0.06107      6.49033      9.59601         0.000202     -0.000336     -0.000579
      5.64240      0.04544      0.03669        -0.002281      0.001749      0.003872
      7.04833      0.86649      4.79833         0.002408     -0.001255     -0.005332
      5.69007      1.65185      9.60314         0.001368     -0.001923      0.001864
      4.28693      2.47473     14.36070         0.001285      0.002260      0.001701
      5.68345      3.28309      4.77286        -0.005695      0.001218     -0.006663
      4.28046      4.09089      9.56060         0.000190     -0.000343      0.000579
      2.89059      4.88135     14.34025        -0.002363     -0.001312     -0.004504
      4.28112      5.68424      4.77864         0.001079      0.000838     -0.007931
      2.89572      6.50937      9.56084        -0.005167     -0.005447     -0.000384
      0.09893      0.05349     10.54284        -0.000416      0.001600     -0.001376
      8.37902      0.05381      3.78035        -0.001427     -0.007597     -0.011105
      1.46767      0.89905      1.03110         0.007293     -0.002562      0.011105
      1.37330      0.78924      8.58944        -0.001178      0.001161      0.001376
     -0.03444      1.59540      5.78200         0.008135     -0.002767     -0.003282
      0.10465      1.67570     13.35028        -0.001671     -0.008428      0.003282
     -1.37144      2.47052     10.55225         0.000394      0.002268      0.003458
     -1.32616      2.45830      3.78470        -0.003810     -0.004639      0.000430
     -0.03712      3.20252      1.00243         0.005923      0.000980     -0.000430
      0.01528      3.27114      8.58003        -0.002161      0.000793     -0.003458
     -1.27680      4.04971      5.81309        -0.003725      0.001846      0.001681
     -1.39966      3.97878     13.31919         0.000264      0.004149     -0.001681
      5.68575      4.86697     10.53448         0.000810      0.002399      0.002904
     -2.72848      4.83773      3.82726        -0.005542      0.002235     -0.005474
     -1.39661      5.60669      0.95986         0.000836      0.005917      0.005474
     -1.31368      5.66136      8.62213        -0.002483      0.000498     -0.002904
     -2.81897      6.46776      5.74014         0.004091     -0.000104      0.004037
     -2.72267      6.52336     13.39214        -0.001955     -0.003595     -0.004037
      2.81146      0.03900     10.53704         0.007136      0.004408      0.000907
      2.84259      0.05770      3.86893         0.001512     -0.001924      0.006378
      4.21317      0.84496      0.98342         0.006360      0.007148      0.008846
      4.26904      0.87825      8.65077         0.004600     -0.001794     -0.000628
      2.91794      1.69685      5.77917         0.013303      0.011358      0.008400
      2.82771      1.62709     13.39525        -0.008118     -0.008773      0.003228
      1.39882      2.42513     10.56334         0.007192      0.007077     -0.002371
      1.43754      2.39682      3.81601         0.000389     -0.000882      0.003591
      2.83778      3.22858      0.96693         0.005601      0.004994      0.001859
      2.89226      3.23797      8.62401         0.002120     -0.000774     -0.000635
      1.42563      4.06772      5.74547         0.003178      0.002562     -0.000951
      1.43533      4.09898     13.38110        -0.002905     -0.004562      0.004033
      0.14864      4.87041     10.59371        -0.001397     -0.002711      0.004191
     -0.00608      4.83819      3.82624        -0.016380     -0.003744      0.001975
      1.52853      5.70691      0.99840         0.007543      0.004204      0.004679
      1.39823      5.65034      8.60053        -0.008423     -0.008787     -0.002745
      0.04944      6.45083      5.76252         0.004836      0.002157      0.007831
      0.11281      6.48297     13.43235        -0.006256      0.008065      0.006512
      1.49382      7.26609     10.53260        -0.000390     -0.002223      0.000635
      1.48886      7.28529      3.84453        -0.007125     -0.002353     -0.001859
      7.09698      0.82879      0.99545         0.000569     -0.000777     -0.003591
      7.13216      0.89977      8.59327        -0.009724     -0.002690      0.002371
      5.66430      1.70506      5.77552         0.005403      0.000235     -0.004033
      5.69622      1.69784     13.41115        -0.003808     -0.001471      0.000951
      4.33933      2.51288     10.55609         0.011821      0.002901      0.002745
      4.18486      2.40503      3.81306        -0.007412     -0.004430     -0.004679
      5.70450      3.29969      0.98522         0.011432      0.012313     -0.001975
      5.63957      3.20509      8.56291         0.003046     -0.000146     -0.004191
      4.26097      4.04240      5.72427        -0.003857      0.009450     -0.006512
      4.32048      4.08121     13.39410        -0.004286     -0.003110     -0.007831
      2.84900      4.89390     10.50585        -0.000747     -0.004881      0.000628
      2.86544      4.90235      3.82804        -0.009370     -0.001934     -0.008846
      4.23251      5.69568      0.94253         0.000911     -0.002271     -0.006378
      4.30461      5.73659      8.61957        -0.007386     -0.003976     -0.000907
      2.92116      6.51655      5.76137         0.011656      0.002644     -0.003228
      2.81564      6.47329     13.37745        -0.016487     -0.005842     -0.008400
 -----------------------------------------------------------------------------------
    total drift:                               -0.002653      0.003789      0.003829


--------------------------------------------------------------------------------------------------------



  FREE ENERGIE OF THE ION-ELECTRON SYSTEM (eV)
  ---------------------------------------------------
  free  energy   TOTEN  =      -571.6212400803 eV

  energy  without entropy=     -571.5829207274  energy(sigma->0) =     -571.60208040
 
 d Force = 0.2765979E-03[ 0.260E-03, 0.294E-03]  d Energy = 0.2690273E-03 0.757E-05
 d Force = 0.5990553E+00[ 0.599E+00, 0.599E+00]  d Ewald  = 0.2852503E+01-0.225E+01


--------------------------------------------------------------------------------------------------------


    POTLOK:  cpu time    0.2556: real time    0.2562


--------------------------------------------------------------------------------------------------------


 Quasi-Newton relaxation of ions (Broydens 2nd method)
  g(Force)  = 0.393E-03   g(Stress)= 0.105E-03

 retain information from N=  1 steps
 eigenvalues of (default step * inverse Hessian matrix)
  average eigenvalue of G=   0.2256
 eigenvalue spectrum of G is  0.2256


--------------------------------------------------------------------------------------------------------


  
 reached required accuracy - stopping structural energy minimisation
     LOOP+:  cpu time   50.8125: real time   51.0557
    4ORBIT:  cpu time    0.0000: real time    0.0000

volume of typ            1:    10.6 %

volume of typ            2:    19.5 %

volume of typ            3:    10.0 %
 
total charge     
 
# of ion       s       p       d       tot
------------------------------------------
    1        2.072   0.236   0.090   2.398
    2        2.072   0.236   0.090   2.398
    3        2.070   0.229   0.087   2.385
    4        2.070   0.229   0.087   2.386
    5        2.070   0.229   0.087   2.386
    6        2.071   0.233   0.089   2.393
    7        2.072   0.236   0.090   2.397
    8        2.072   0.236   0.090   2.399
    9        2.071   0.234   0.088   2.394
   10        2.071   0.234   0.088   2.394
   11        2.072   0.236   0.090   2.399
   12        2.072   0.236   0.090   2.397
   13        0.275   0.365   7.851   8.491
   14        0.275   0.365   7.851   8.491
   15        0.294   0.409   7.837   8.540
   16        0.293   0.405   7.838   8.535
   17        0.293   0.405   7.838   8.535
   18        0.281   0.377   7.855   8.513
   19        0.287   0.393   7.831   8.511
   20        0.287   0.393   7.831   8.511
   21        0.294   0.407   7.831   8.531
   22        0.286   0.392   7.832   8.510
   23        0.289   0.398   7.830   8.518
   24        0.276   0.369   7.845   8.490
   25        0.292   0.405   7.838   8.535
   26        0.289   0.398   7.830   8.517
   27        0.287   0.394   7.834   8.515
   28        0.275   0.365   7.851   8.491
   29        0.284   0.386   7.840   8.510
   30        0.287   0.394   7.829   8.511
   31        0.289   0.398   7.830   8.517
   32        0.292   0.405   7.838   8.535
   33        0.287   0.394   7.834   8.515
   34        0.284   0.386   7.840   8.510
   35        0.275   0.365   7.851   8.491
   36        0.287   0.394   7.829   8.511
   37        0.289   0.398   7.830   8.518
   38        0.286   0.392   7.832   8.510
   39        0.276   0.369   7.845   8.490
   40        1.278   2.742   0.007   4.027
   41        1.270   2.762   0.006   4.038
   42        1.270   2.762   0.006   4.038
   43        1.278   2.742   0.007   4.027
   44        1.266   2.772   0.006   4.045
   45        1.266   2.772   0.006   4.045
   46        1.266   2.771   0.007   4.044
   47        1.266   2.772   0.006   4.045
   48        1.266   2.772   0.006   4.045
   49        1.266   2.771   0.007   4.044
   50        1.270   2.762   0.006   4.038
   51        1.270   2.762   0.006   4.038
   52        1.272   2.759   0.007   4.039
   53        1.270   2.767   0.007   4.044
   54        1.270   2.767   0.007   4.044
   55        1.272   2.759   0.007   4.039
   56        1.270   2.767   0.007   4.044
   57        1.270   2.767   0.007   4.044
   58        1.270   2.765   0.007   4.042
   59        1.275   2.751   0.007   4.033
   60        1.271   2.763   0.007   4.041
   61        1.276   2.748   0.007   4.031
   62        1.276   2.751   0.007   4.034
   63        1.278   2.741   0.007   4.027
   64        1.266   2.774   0.007   4.046
   65        1.266   2.774   0.007   4.047
   66        1.273   2.755   0.007   4.036
   67        1.270   2.766   0.007   4.044
   68        1.273   2.755   0.007   4.036
   69        1.266   2.774   0.007   4.047
   70        1.270   2.761   0.006   4.038
   71        1.279   2.741   0.007   4.026
   72        1.276   2.751   0.007   4.034
   73        1.276   2.750   0.007   4.033
   74        1.271   2.763   0.007   4.041
   75        1.276   2.749   0.007   4.032
   76        1.270   2.766   0.007   4.044
   77        1.273   2.755   0.007   4.036
   78        1.266   2.774   0.007   4.047
   79        1.266   2.774   0.007   4.046
   80        1.266   2.774   0.007   4.047
   81        1.273   2.755   0.007   4.036
   82        1.276   2.750   0.007   4.033
   83        1.276   2.751   0.007   4.034
   84        1.279   2.741   0.007   4.026
   85        1.270   2.761   0.006   4.038
   86        1.276   2.749   0.007   4.032
   87        1.271   2.763   0.007   4.041
   88        1.276   2.748   0.007   4.031
   89        1.271   2.763   0.007   4.041
   90        1.275   2.751   0.007   4.033
   91        1.270   2.765   0.007   4.042
   92        1.278   2.741   0.007   4.027
   93        1.276   2.751   0.007   4.034
--------------------------------------------------
tot         101.24  162.34  213.06  476.64
 
magnetization (x)
 
# of ion       s       p       d       tot
------------------------------------------
    1        0.006   0.010   0.000   0.016
    2        0.006   0.010   0.000   0.016
    3        0.005   0.007   0.000   0.012
    4        0.005   0.007   0.000   0.012
    5        0.005   0.007   0.000   0.012
    6        0.006   0.009   0.000   0.015
    7        0.006   0.011   0.001   0.018
    8        0.006   0.010   0.001   0.017
    9        0.006   0.013   0.001   0.020
   10        0.006   0.013   0.001   0.020
   11        0.006   0.010   0.001   0.017
   12        0.006   0.011   0.001   0.018
   13        0.001  -0.000   0.629   0.630
   14        0.001  -0.000   0.629   0.630
   15       -0.001  -0.000   0.154   0.153
   16       -0.001  -0.000   0.190   0.189
   17       -0.001  -0.000   0.190   0.189
   18        0.002  -0.000   0.561   0.563
   19       -0.001  -0.001   0.225   0.224
   20       -0.001  -0.001   0.225   0.224
   21       -0.001  -0.000   0.120   0.119
   22       -0.001  -0.001   0.227   0.226
   23       -0.001  -0.001   0.182   0.181
   24        0.001  -0.000   0.555   0.555
   25       -0.001  -0.000   0.191   0.190
   26       -0.001  -0.001   0.181   0.180
   27       -0.001  -0.001   0.243   0.242
   28        0.001  -0.000   0.619   0.620
   29        0.000  -0.001   0.393   0.393
   30       -0.001  -0.001   0.207   0.206
   31       -0.001  -0.001   0.181   0.180
   32       -0.001  -0.000   0.191   0.190
   33       -0.001  -0.001   0.243   0.242
   34        0.000  -0.001   0.393   0.393
   35        0.001  -0.000   0.619   0.620
   36       -0.001  -0.001   0.207   0.206
   37       -0.001  -0.001   0.182   0.181
   38       -0.001  -0.001   0.227   0.226
   39        0.001  -0.000   0.555   0.555
   40        0.009   0.070   0.000   0.079
   41        0.011   0.082   0.000   0.093
   42        0.011   0.082   0.000   0.093
   43        0.009   0.070   0.000   0.079
   44        0.005   0.020   0.000   0.025
   45        0.005   0.020   0.000   0.025
   46        0.005   0.014   0.000   0.019
   47        0.005   0.016   0.000   0.021
   48        0.005   0.016   0.000   0.021
   49        0.005   0.014   0.000   0.019
   50        0.010   0.080   0.000   0.091
   51        0.010   0.080   0.000   0.091
   52        0.003   0.010   0.000   0.013
   53        0.004   0.007   0.000   0.011
   54        0.004   0.007   0.000   0.011
   55        0.003   0.010   0.000   0.013
   56        0.004   0.012   0.000   0.016
   57        0.004   0.012   0.000   0.016
   58        0.003   0.005   0.000   0.009
   59        0.007   0.049   0.000   0.056
   60        0.004   0.015   0.000   0.019
   61        0.007   0.050   0.000   0.057
   62        0.010   0.083   0.000   0.093
   63        0.009   0.065   0.000   0.074
   64        0.004   0.011   0.000   0.015
   65        0.005   0.009   0.000   0.013
   66        0.003   0.008   0.000   0.012
   67        0.004   0.015   0.000   0.019
   68        0.003   0.006   0.000   0.009
   69        0.004   0.008   0.000   0.012
   70        0.011   0.079   0.000   0.090
   71        0.009   0.066   0.000   0.076
   72        0.010   0.083   0.000   0.093
   73        0.011   0.084   0.000   0.095
   74        0.004   0.012   0.000   0.016
   75        0.007   0.049   0.000   0.056
   76        0.004   0.015   0.000   0.019
   77        0.003   0.008   0.000   0.012
   78        0.005   0.009   0.000   0.013
   79        0.004   0.011   0.000   0.015
   80        0.004   0.008   0.000   0.012
   81        0.003   0.006   0.000   0.009
   82        0.011   0.084   0.000   0.095
   83        0.010   0.083   0.000   0.093
   84        0.009   0.066   0.000   0.076
   85        0.011   0.079   0.000   0.090
   86        0.007   0.049   0.000   0.056
   87        0.004   0.013   0.000   0.016
   88        0.007   0.050   0.000   0.057
   89        0.004   0.015   0.000   0.019
   90        0.007   0.049   0.000   0.056
   91        0.003   0.005   0.000   0.009
   92        0.009   0.065   0.000   0.074
   93        0.010   0.083   0.000   0.093
--------------------------------------------------
tot           0.41    2.12    8.53   11.06
 

 total amount of memory used by VASP MPI-rank0   145757. kBytes
=======================================================================

   base      :      30000. kBytes
   nonlr-proj:      39993. kBytes
   fftplans  :       9349. kBytes
   grid      :      55332. kBytes
   one-center:       1446. kBytes
   wavefun   :       9637. kBytes
 
  
  
 General timing and accounting informations for this job:
 ========================================================
  
                  Total CPU time used (sec):     1016.681
                            User time (sec):     1009.575
                          System time (sec):        7.106
                         Elapsed time (sec):     1025.128
  
                   Maximum memory used (kb):      208648.
                   Average memory used (kb):           0.
  
                          Minor page faults:        35418
                          Major page faults:           53
                 Voluntary context switches:          928
