 vasp.5.4.4.18Apr17-6-g9f103f2a35 (build May 12 2020 05:39:39) gamma-only       
  
 MD_VERSION_INFO: Compiled 2020-05-12T12:39:39-UTC in devlin.sd.materialsdesign.
 com:/home/medea2/data/build/wwolf/vasp-gpu5.4.4/13047/x86_64/src/src/build/gam 
 from svn 13047
 
 This VASP executable licensed from Materials Design, Inc.
 
 executed on                        Lin64 date 2023.01.19  21:58:30
 running on   16 total cores
 distrk:  each k-point on   16 cores,    1 groups
 distr:  one band on NCORES_PER_BAND=   1 cores,   16 groups


--------------------------------------------------------------------------------------------------------


 INCAR:
 POTCAR:    PAW_PBE Li_sv 10Sep2004               
 POTCAR:    PAW_PBE Ni 02Aug2007                  
 POTCAR:    PAW_PBE O 08Apr2002                   

 ----------------------------------------------------------------------------- 
|                                                                             |
|           W    W    AA    RRRRR   N    N  II  N    N   GGGG   !!!           |
|           W    W   A  A   R    R  NN   N  II  NN   N  G    G  !!!           |
|           W    W  A    A  R    R  N N  N  II  N N  N  G       !!!           |
|           W WW W  AAAAAA  RRRRR   N  N N  II  N  N N  G  GGG   !            |
|           WW  WW  A    A  R   R   N   NN  II  N   NN  G    G                |
|           W    W  A    A  R    R  N    N  II  N    N   GGGG   !!!           |
|                                                                             |
|      For optimal performance we recommend to set                            |
|        NCORE= 4 - approx SQRT( number of cores)                             |
|      NCORE specifies how many cores store one orbital (NPAR=cpu/NCORE).     |
|      This setting can  greatly improve the performance of VASP for DFT.     |
|      The default,   NCORE=1            might be grossly inefficient         |
|      on modern multi-core architectures or massively parallel machines.     |
|      Do your own testing !!!!                                               |
|      Unfortunately you need to use the default for GW and RPA calculations. |
|      (for HF NCORE is supported but not extensively tested yet)             |
|                                                                             |
 ----------------------------------------------------------------------------- 

 POTCAR:    PAW_PBE Li_sv 10Sep2004               
  local pseudopotential read in
  atomic valenz-charges read in
  non local Contribution for L=           0  read in
    real space projection operators read in
  non local Contribution for L=           0  read in
    real space projection operators read in
  non local Contribution for L=           1  read in
    real space projection operators read in
    PAW grid and wavefunctions read in
 
   number of l-projection  operators is LMAX  =           3
   number of lm-projection operators is LMMAX =           5
 
 POTCAR:    PAW_PBE Ni 02Aug2007                  
  local pseudopotential read in
  partial core-charges read in
  partial kinetic energy density read in
  atomic valenz-charges read in
  non local Contribution for L=           2  read in
    real space projection operators read in
  non local Contribution for L=           2  read in
    real space projection operators read in
  non local Contribution for L=           0  read in
    real space projection operators read in
  non local Contribution for L=           0  read in
    real space projection operators read in
  non local Contribution for L=           1  read in
    real space projection operators read in
  non local Contribution for L=           1  read in
    real space projection operators read in
    PAW grid and wavefunctions read in
 
   number of l-projection  operators is LMAX  =           6
   number of lm-projection operators is LMMAX =          18
 
 POTCAR:    PAW_PBE O 08Apr2002                   
  local pseudopotential read in
  partial core-charges read in
  partial kinetic energy density read in
  kinetic energy density of atom read in
  atomic valenz-charges read in
  non local Contribution for L=           0  read in
    real space projection operators read in
  non local Contribution for L=           0  read in
    real space projection operators read in
  non local Contribution for L=           1  read in
    real space projection operators read in
  non local Contribution for L=           1  read in
    real space projection operators read in
    PAW grid and wavefunctions read in
 
   number of l-projection  operators is LMAX  =           4
   number of lm-projection operators is LMMAX =           8
 
 Optimization of the real space projectors (new method)

 maximal supplied QI-value         = 22.11
 optimisation between [QCUT,QGAM] = [ 11.28, 22.77] = [ 35.61,145.23] Ry 
 Optimized for a Real-space Cutoff    1.10 Angstroem

   l    n(q)    QCUT    max X(q) W(low)/X(q) W(high)/X(q)  e(spline) 
   0      7    11.276    10.506    0.54E-04    0.58E-04    0.16E-07
   0      7    11.276     8.367    0.11E-03    0.14E-03    0.35E-07
   1      7    11.276     8.983    0.23E-03    0.43E-03    0.86E-07
 Optimization of the real space projectors (new method)

 maximal supplied QI-value         = 16.25
 optimisation between [QCUT,QGAM] = [ 11.38, 22.75] = [ 36.24,144.96] Ry 
 Optimized for a Real-space Cutoff    1.47 Angstroem

   l    n(q)    QCUT    max X(q) W(low)/X(q) W(high)/X(q)  e(spline) 
   2      9    11.376    60.317    0.17E-03    0.16E-04    0.16E-06
   2      9    11.376    55.921    0.17E-03    0.16E-04    0.17E-06
   0     10    11.376    51.690    0.45E-04    0.60E-04    0.21E-06
   0     10    11.376    30.015    0.37E-04    0.55E-04    0.19E-06
   1     10    11.376    18.849    0.83E-04    0.11E-03    0.92E-07
   1     10    11.376    14.624    0.69E-04    0.92E-04    0.82E-07
 Optimization of the real space projectors (new method)

 maximal supplied QI-value         = 24.76
 optimisation between [QCUT,QGAM] = [ 11.39, 22.77] = [ 36.31,145.25] Ry 
 Optimized for a Real-space Cutoff    1.10 Angstroem

   l    n(q)    QCUT    max X(q) W(low)/X(q) W(high)/X(q)  e(spline) 
   0      7    11.387    20.381    0.22E-03    0.48E-03    0.18E-06
   0      7    11.387    15.268    0.22E-03    0.52E-03    0.19E-06
   1      7    11.387     5.964    0.22E-03    0.73E-03    0.24E-06
   1      7    11.387     5.382    0.19E-03    0.60E-03    0.21E-06

 ----------------------------------------------------------------------------- 
|                                                                             |
|  ADVICE TO THIS USER RUNNING 'VASP/VAMP'   (HEAR YOUR MASTER'S VOICE ...):  |
|                                                                             |
|      You enforced a specific xc-type in the INCAR file,                     |
|      a different type was found on the POTCAR file                          |
|          I HOPE YOU KNOW, WHAT YOU ARE  DOING                               |
|                                                                             |
 ----------------------------------------------------------------------------- 

  PAW_PBE Li_sv 10Sep2004               :
 energy of atom  1       EATOM= -202.7858
 kinetic energy error for atom=    0.0143 (will be added to EATOM!!)
  PAW_PBE Ni 02Aug2007                  :
 energy of atom  2       EATOM=-1077.6739
 kinetic energy error for atom=    0.0030 (will be added to EATOM!!)
  PAW_PBE O 08Apr2002                   :
 energy of atom  3       EATOM= -432.3788
 kinetic energy error for atom=    0.0224 (will be added to EATOM!!)
 
 
 POSCAR: ce351892_1                              
  positions in direct lattice
  No initial velocities read in
 exchange correlation table for  LEXCH =       14
   RHO(1)=    0.500       N(1)  =     2000
   RHO(2)=  100.500       N(2)  =     4000
 


--------------------------------------------------------------------------------------------------------


 ion  position               nearest neighbor table
   1  0.980  0.500  0.001-  56 2.01  91 2.02  43 2.12  92 2.16  44 2.23  79 2.24  21 2.78  38 2.82

   2  0.113  0.833  0.223-  40 2.10  63 2.10  45 2.11  58 2.11  64 2.11  57 2.12
   3  0.221  0.167  0.110-  47 2.10  42 2.10  41 2.12  78 2.12  65 2.12  48 2.12
   4  0.334  0.500  0.001-  79 2.10  50 2.10  44 2.11  85 2.11  49 2.11  80 2.12
   5  0.574  0.166  0.110-  54 2.02  53 2.02  84 2.13  71 2.14  47 2.22  48 2.22  19 2.81  20 2.82

   6  0.760  0.833  0.221-  51 2.01  70 2.01  52 2.14  75 2.16  57 2.22  58 2.22  18 2.80  28 2.83

   7  0.221  0.167  0.463-  83 2.02  60 2.02  59 2.13  66 2.14  42 2.22  65 2.22  23 2.81  34 2.82

   8  0.466  0.833  0.575-  88 2.01  87 2.03  69 2.14  82 2.15  64 2.23  63 2.23  37 2.79  36 2.81

   9  0.687  0.501  0.355-  73 2.01  74 2.03  68 2.14  55 2.15  49 2.23  50 2.23  29 2.79  30 2.81

  10  0.113  0.833  0.869-  81 2.01  76 2.02  46 2.12  93 2.16  45 2.23  40 2.24  33 2.78  31 2.82

  11  0.333  0.500  0.649-  62 2.01  67 2.01  61 2.14  86 2.16  80 2.22  85 2.22  24 2.80  26 2.83

  12  0.868  0.167  0.757-  89 2.01  72 2.01  77 2.14  90 2.14  41 2.21  78 2.21  29 2.79  37 2.79

  13  0.998  0.000  0.000-  90 1.87  45 1.88  78 1.88  93 1.88  57 1.90  42 1.92  19 2.78  22 2.80
                            37 2.81  25 2.82  16 2.83  31 2.83
  14  0.111  0.335  0.222-  56 1.86  59 1.87  65 1.87  44 1.91  62 1.93  41 1.95  17 2.79  20 2.80
                            38 2.82  26 2.82  23 2.83  32 2.83
  15  0.225  0.667  0.114-  46 1.88  43 1.88  40 1.88  79 1.88  64 1.90  49 1.90  27 2.78  24 2.81
                            18 2.81  21 2.82  33 2.82  39 2.84
  16  0.333  0.999  1.000-  81 1.86  84 1.87  48 1.87  45 1.91  51 1.93  78 1.95  25 2.79  34 2.80
                            31 2.82  28 2.82  19 2.83  13 2.83
  17  0.443  0.333  0.224-  68 1.86  50 1.88  47 1.88  71 1.88  65 1.90  44 1.91  26 2.79  14 2.79
                            29 2.81  32 2.82  35 2.82  20 2.84
  18  0.555  0.667  0.109-  52 1.87  70 1.88  49 1.88  55 1.88  46 1.91  85 1.91  36 2.78   6 2.80
                            33 2.81  15 2.81  21 2.81  27 2.82  30 2.83
  19  0.668  0.999  1.000-  51 1.87  84 1.87  54 1.88  90 1.90  87 1.90  57 1.91  13 2.78  37 2.80
                             5 2.81  34 2.81  22 2.82  16 2.83  28 2.83
  20  0.779  0.334  0.222-  74 1.87  53 1.87  71 1.89  56 1.90  59 1.91  50 1.93  14 2.80  35 2.81
                            38 2.81  29 2.81  23 2.81   5 2.82  17 2.84
  21  0.889  0.666  0.110-  91 1.87  52 1.87  43 1.88  58 1.88  55 1.90  40 1.91   1 2.78  36 2.80
                            39 2.80  24 2.81  18 2.81  30 2.81  15 2.82
  22  0.002  0.002  0.335-  60 1.86  57 1.88  75 1.88  42 1.92  54 1.92  63 1.93  31 2.80  13 2.80
                            34 2.81  25 2.82  19 2.82  28 2.83
  23  0.111  0.334  0.557-  62 1.87  59 1.87  83 1.88  77 1.90  74 1.90  80 1.91  32 2.78  29 2.80
                             7 2.81  20 2.81  35 2.82  14 2.83  26 2.83
  24  0.220  0.666  0.444-  61 1.87  67 1.88  64 1.88  82 1.88  43 1.91  58 1.91  30 2.78  11 2.80
                            21 2.81  15 2.81  33 2.81  27 2.82  36 2.83
  25  0.335  1.000  0.332-  69 1.86  63 1.88  42 1.88  66 1.88  48 1.90  45 1.91  28 2.79  16 2.79
                            37 2.81  13 2.82  22 2.82  34 2.84
  26  0.446  0.332  0.555-  62 1.88  86 1.88  83 1.88  89 1.89  68 1.91  65 1.91  17 2.79  38 2.80
                            29 2.80  14 2.82  11 2.83  35 2.83  23 2.83
  27  0.554  0.667  0.443-  73 1.87  88 1.87  64 1.91  49 1.91  70 1.94  67 1.94  15 2.78  39 2.82
                            18 2.82  24 2.82  30 2.83  36 2.83
  28  0.666  0.001  0.335-  51 1.88  75 1.88  54 1.88  72 1.89  69 1.91  48 1.91  25 2.79  31 2.80
                            37 2.80  16 2.82   6 2.83  22 2.83  19 2.83
  29  0.777  0.333  0.555-  68 1.88  77 1.88  74 1.88  89 1.88  71 1.90  92 1.90  12 2.79   9 2.79
                            26 2.80  23 2.80  17 2.81  20 2.81  32 2.81  38 2.82
  30  0.890  0.668  0.445-  73 1.87  70 1.87  55 1.89  61 1.90  76 1.90  58 1.91  24 2.78  33 2.80
                             9 2.81  21 2.81  39 2.82  18 2.83  27 2.83
  31  1.000  0.002  0.665-  72 1.88  81 1.88  93 1.88  75 1.89  60 1.90  78 1.91  22 2.80  28 2.80
                            34 2.81  16 2.82  10 2.82  37 2.82  13 2.83
  32  0.111  0.333  0.887-  77 1.87  44 1.88  41 1.88  92 1.88  80 1.90  47 1.92  23 2.78  35 2.80
                            29 2.81  17 2.82  14 2.83  38 2.83
  33  0.221  0.667  0.778-  76 1.87  61 1.87  46 1.88  85 1.88  82 1.90  79 1.91  10 2.78  30 2.80
                            39 2.80  18 2.81  24 2.81  36 2.81  15 2.82
  34  0.334  0.999  0.668-  87 1.87  60 1.87  66 1.89  81 1.90  84 1.91  63 1.93  16 2.80  22 2.81
                            31 2.81  37 2.81  19 2.81   7 2.82  25 2.84
  35  0.446  0.332  0.891-  53 1.86  80 1.88  86 1.88  47 1.92  83 1.92  50 1.93  38 2.80  32 2.80
                            20 2.81  17 2.82  23 2.82  26 2.83
  36  0.556  0.665  0.779-  88 1.87  67 1.87  82 1.89  52 1.90  91 1.90  85 1.91  18 2.78  21 2.80
                             8 2.81  33 2.81  39 2.82  24 2.83  27 2.83
  37  0.666  0.000  0.666-  69 1.88  90 1.88  87 1.88  72 1.88  66 1.90  93 1.90  12 2.79   8 2.79
                            28 2.80  19 2.80  25 2.81  34 2.81  13 2.81  31 2.82
  38  0.776  0.332  0.889-  89 1.88  56 1.88  92 1.88  86 1.89  53 1.90  41 1.91  35 2.80  26 2.80
                            20 2.81  14 2.82   1 2.82  29 2.82  32 2.83
  39  0.889  0.667  0.778-  76 1.87  91 1.87  88 1.92  73 1.92  40 1.94  79 1.94  33 2.80  21 2.80
                            36 2.82  30 2.82  27 2.82  15 2.84
  40  0.007  0.737  0.006-  15 1.88  21 1.91  39 1.94   2 2.10  10 2.24
  41  0.000  0.263  0.994-  32 1.88  38 1.91  14 1.95   3 2.12  12 2.21
  42  0.118  0.071  0.225-  25 1.88  22 1.92  13 1.92   3 2.10   7 2.22
  43  0.109  0.599  0.219-  15 1.88  21 1.88  24 1.91   1 2.12
  44  0.219  0.403  0.104-  32 1.88  14 1.91  17 1.91   4 2.11   1 2.23
  45  0.215  0.930  0.108-  13 1.88  16 1.91  25 1.91   2 2.11  10 2.23
  46  0.330  0.735  0.998-  15 1.88  33 1.88  18 1.91  10 2.12
  47  0.336  0.263  0.006-  17 1.88  35 1.92  32 1.92   3 2.10   5 2.22
  48  0.441  0.069  0.216-  16 1.87  25 1.90  28 1.91   3 2.12   5 2.22
  49  0.448  0.597  0.220-  18 1.88  15 1.90  27 1.91   4 2.11   9 2.23
  50  0.551  0.404  0.115-  17 1.88  20 1.93  35 1.93   4 2.10   9 2.23
  51  0.564  0.932  0.116-  19 1.87  28 1.88  16 1.93   6 2.01
  52  0.669  0.734  0.002-  18 1.87  21 1.87  36 1.90   6 2.14
  53  0.666  0.266  0.004-  35 1.86  20 1.87  38 1.90   5 2.02
  54  0.773  0.068  0.219-  19 1.88  28 1.88  22 1.92   5 2.02
  55  0.776  0.600  0.223-  18 1.88  30 1.89  21 1.90   9 2.15
  56  0.891  0.400  0.108-  14 1.86  38 1.88  20 1.90   1 2.01
  57  0.893  0.931  0.118-  22 1.88  13 1.90  19 1.91   2 2.12   6 2.22
  58  0.998  0.737  0.328-  21 1.88  30 1.91  24 1.91   2 2.11   6 2.22
  59  0.006  0.267  0.337-  23 1.87  14 1.87  20 1.91   7 2.13
  60  0.115  0.068  0.555-  22 1.86  34 1.87  31 1.90   7 2.02
  61  0.113  0.599  0.558-  24 1.87  33 1.87  30 1.90  11 2.14
  62  0.227  0.401  0.453-  23 1.87  26 1.88  14 1.93  11 2.01
  63  0.226  0.930  0.440-  25 1.88  34 1.93  22 1.93   2 2.10   8 2.23
  64  0.331  0.736  0.336-  24 1.88  15 1.90  27 1.91   2 2.11   8 2.23
  65  0.327  0.264  0.330-  14 1.87  17 1.90  26 1.91   3 2.12   7 2.22
  66  0.440  0.067  0.553-  25 1.88  34 1.89  37 1.90   7 2.14
  67  0.440  0.598  0.559-  36 1.87  24 1.88  27 1.94  11 2.01
  68  0.557  0.401  0.442-  17 1.86  29 1.88  26 1.91   9 2.14
  69  0.553  0.933  0.446-  25 1.86  37 1.88  28 1.91   8 2.14
  70  0.670  0.735  0.329-  30 1.87  18 1.88  27 1.94   6 2.01
  71  0.664  0.266  0.329-  17 1.88  20 1.89  29 1.90   5 2.14
  72  0.778  0.069  0.558-  31 1.88  37 1.88  28 1.89  12 2.01
  73  0.775  0.600  0.549-  27 1.87  30 1.87  39 1.92   9 2.01
  74  0.885  0.401  0.442-  20 1.87  29 1.88  23 1.90   9 2.03
  75  0.888  0.935  0.442-  28 1.88  22 1.88  31 1.89   6 2.16
  76  0.002  0.734  0.671-  39 1.87  33 1.87  30 1.90  10 2.02
  77  0.998  0.266  0.667-  32 1.87  29 1.88  23 1.90  12 2.14
  78  0.105  0.070  0.889-  13 1.88  31 1.91  16 1.95   3 2.12  12 2.21
  79  0.117  0.596  0.896-  15 1.88  33 1.91  39 1.94   4 2.10   1 2.24
  80  0.229  0.403  0.782-  35 1.88  32 1.90  23 1.91   4 2.12  11 2.22
  81  0.219  0.933  0.780-  16 1.86  31 1.88  34 1.90  10 2.01
  82  0.335  0.734  0.665-  24 1.88  36 1.89  33 1.90   8 2.15
  83  0.330  0.265  0.662-  23 1.88  26 1.88  35 1.92   7 2.02
  84  0.448  0.066  0.895-  19 1.87  16 1.87  34 1.91   5 2.13
  85  0.439  0.596  0.887-  33 1.88  36 1.91  18 1.91   4 2.11  11 2.22
  86  0.553  0.399  0.777-  26 1.88  35 1.88  38 1.89  11 2.16
  87  0.554  0.932  0.774-  34 1.87  37 1.88  19 1.90   8 2.03
  88  0.660  0.733  0.664-  27 1.87  36 1.87  39 1.92   8 2.01
  89  0.669  0.265  0.667-  38 1.88  29 1.88  26 1.89  12 2.01
  90  0.778  0.067  0.887-  13 1.87  37 1.88  19 1.90  12 2.14
  91  0.782  0.599  0.890-  39 1.87  21 1.87  36 1.90   1 2.02
  92  0.889  0.400  0.781-  38 1.88  32 1.88  29 1.90   1 2.16
  93  0.892  0.933  0.778-  31 1.88  13 1.88  37 1.90  10 2.16
 
  LATTYP: Found a base centered monoclinic cell.
 ALAT       =    14.6096951103
 B/A-ratio  =     0.5774910146
 C/A-ratio  =     2.2243885566
 COS(beta)  =    -0.7787629302
  
  Lattice vectors:
  
 A1 = (   8.4354253601,   0.0008904622,   0.0014463005)
 A2 = (   4.2169415161,  -7.3057378445,   0.0014463005)
 A3 = ( -25.3070613967,  14.6110385789, -14.2185340622)


Analysis of symmetry for initial positions (statically):
=====================================================================
 Subroutine PRICEL returns:
 Original cell was already a primitive cell.
 

 Routine SETGRP: Setting up the symmetry group for a 
 base centered monoclinic supercell.


 Subroutine GETGRP returns: Found  1 space group operations
 (whereof  1 operations were pure point group operations)
 out of a pool of  4 trial point group operations.


The static configuration has the point symmetry C_1 .


Analysis of symmetry for dynamics (positions and initial velocities):
=====================================================================
 Subroutine PRICEL returns:
 Original cell was already a primitive cell.
 

 Routine SETGRP: Setting up the symmetry group for a 
 base centered monoclinic supercell.


 Subroutine GETGRP returns: Found  1 space group operations
 (whereof  1 operations were pure point group operations)
 out of a pool of  4 trial point group operations.


The dynamic configuration has the point symmetry C_1 .


Analysis of structural, dynamic, and magnetic symmetry:
=====================================================================
 Subroutine PRICEL returns:
 Original cell was already a primitive cell.
 

 Routine SETGRP: Setting up the symmetry group for a 
 base centered monoclinic supercell.


 Subroutine GETGRP returns: Found  1 space group operations
 (whereof  1 operations were pure point group operations)
 out of a pool of  4 trial point group operations.


The magnetic configuration has the point symmetry C_1 .


 Subroutine INISYM returns: Found  1 space group operations
 (whereof  1 operations are pure point group operations),
 and found     1 'primitive' translations

 
 
 KPOINTS: Automatic mesh                          

Automatic generation of k-mesh.
Space group operators:
 irot       det(A)        alpha          n_x          n_y          n_z        tau_x        tau_y        tau_z
    1     1.000000     0.000000     1.000000     0.000000     0.000000     0.000000     0.000000     0.000000
 
 Subroutine IBZKPT returns following result:
 ===========================================
 
 Found      1 irreducible k-points:
 
 Following reciprocal coordinates:
            Coordinates               Weight
  0.000000  0.000000  0.000000      1.000000
 
 Following cartesian coordinates:
            Coordinates               Weight
  0.000000  0.000000  0.000000      1.000000
 


--------------------------------------------------------------------------------------------------------




 Dimension of arrays:
   k-points           NKPTS =      1   k-points in BZ     NKDIM =      1   number of bands    NBANDS=    416
   number of dos      NEDOS =    301   number of ions     NIONS =     93
   non local maximal  LDIM  =      6   non local SUM 2l+1 LMDIM =     18
   total plane-waves  NPLWV = 442368
   max r-space proj   IRMAX =   6830   max aug-charges    IRDMAX=  16568
   dimension x,y,z NGX =    64 NGY =  108 NGZ =   64
   dimension x,y,z NGXF=   128 NGYF=  216 NGZF=  128
   support grid    NGXF=   128 NGYF=  216 NGZF=  128
   ions per type =              12  27  54
   NGX,Y,Z   is equivalent  to a cutoff of  12.61, 12.63, 12.61 a.u.
   NGXF,Y,Z  is equivalent  to a cutoff of  25.23, 25.27, 25.23 a.u.

 SYSTEM =  unknown system                          
 POSCAR =  ce351892_1                              

 Startparameter for this run:
   NWRITE =      1    write-flag & timer
   PREC   = accura    normal or accurate (medium, high low for compatibility)
   ISTART =      0    job   : 0-new  1-cont  2-samecut
   ICHARG =      2    charge: 1-file 2-atom 10-const
   ISPIN  =      2    spin polarized calculation?
   LNONCOLLINEAR =      F non collinear calculations
   LSORBIT =      F    spin-orbit coupling
   INIWAV =      1    electr: 0-lowe 1-rand  2-diag
   LASPH  =      F    aspherical Exc in radial PAW
   METAGGA=      F    non-selfconsistent MetaGGA calc.

 Electronic Relaxation 1
   ENCUT  =  500.0 eV  36.75 Ry    6.06 a.u.  15.38 25.91 15.38*2*pi/ulx,y,z
   ENINI  =  500.0     initial cutoff
   ENAUG  =  628.9 eV  augmentation charge cutoff
   NELM   =     80;   NELMIN=  2; NELMDL= -5     # of ELM steps 
   EDIFF  = 0.1E-04   stopping-criterion for ELM
   LREAL  =      T    real-space projection
   NLSPLINE    = F    spline interpolate recip. space projectors
   LCOMPAT=      F    compatible to vasp.4.4
   GGA_COMPAT  = T    GGA compatible to vasp.4.4-vasp.4.6
   LMAXPAW     = -100 max onsite density
   LMAXMIX     =    2 max onsite mixed and CHGCAR
   VOSKOWN=      1    Vosko Wilk Nusair interpolation
   ROPT   =   -0.00025  -0.00025  -0.00025
 Ionic relaxation
   EDIFFG = -.2E-01   stopping-criterion for IOM
   NSW    =     20    number of steps for IOM
   NBLOCK =      1;   KBLOCK =     20    inner block; outer block 
   IBRION =      1    ionic relax: 0-MD 1-quasi-New 2-CG
   NFREE  =      0    steps in history (QN), initial steepest desc. (CG)
   ISIF   =      3    stress and relaxation
   IWAVPR =     11    prediction:  0-non 1-charg 2-wave 3-comb
   ISYM   =      2    0-nonsym 1-usesym 2-fastsym
   LCORR  =      T    Harris-Foulkes like correction to forces

   POTIM  = 0.5000    time-step for ionic-motion
   TEIN   =    0.0    initial temperature
   TEBEG  =    0.0;   TEEND  =   0.0 temperature during run
   SMASS  =  -3.00    Nose mass-parameter (am)
   estimated Nose-frequenzy (Omega)   =  0.10E-29 period in steps =****** mass=  -0.163E-26a.u.
   SCALEE = 1.0000    scale energy and forces
   NPACO  =    256;   APACO  = 16.0  distance and # of slots for P.C.
   PSTRESS=    0.0 pullay stress

  Mass of Ions in am
   POMASS =   7.01 58.69 16.00
  Ionic Valenz
   ZVAL   =   3.00 10.00  6.00
  Atomic Wigner-Seitz radii
   RWIGS  =   1.23  1.15  0.73
  virtual crystal weights 
   VCA    =   1.00  1.00  1.00
   NELECT =     630.0000    total number of electrons
   NUPDOWN=      -1.0000    fix difference up-down

 DOS related values:
   EMIN   =  10.00;   EMAX   =-10.00  energy-range for DOS
   EFERMI =   0.00
   ISMEAR =     0;   SIGMA  =   0.05  broadening in eV -4-tet -1-fermi 0-gaus

 Electronic relaxation 2 (details)
   IALGO  =     38    algorithm
   LDIAG  =      T    sub-space diagonalisation (order eigenvalues)
   LSUBROT=      F    optimize rotation matrix (better conditioning)
   TURBO    =      0    0=normal 1=particle mesh
   IRESTART =      0    0=no restart 2=restart with 2 vectors
   NREBOOT  =      0    no. of reboots
   NMIN     =      0    reboot dimension
   EREF     =   0.00    reference energy to select bands
   IMIX   =      4    mixing-type and parameters
     AMIX     =   0.40;   BMIX     =  1.00
     AMIX_MAG =   1.60;   BMIX_MAG =  1.00
     AMIN     =   0.10
     WC   =   100.;   INIMIX=   1;  MIXPRE=   1;  MAXMIX= -45

 Intra band minimization:
   WEIMIN = 0.0010     energy-eigenvalue tresh-hold
   EBREAK =  0.60E-08  absolut break condition
   DEPER  =   0.30     relativ break condition  

   TIME   =   0.40     timestep for ELM

  volume/ion in A,a.u.               =       9.42        63.56
  Fermi-wavevector in a.u.,A,eV,Ry     =   1.466774  2.771801 29.271920  2.151425
  Thomas-Fermi vector in A             =   2.582471
 
 Write flags
   LWAVE        =      F    write WAVECAR
   LDOWNSAMPLE  =      F    k-point downsampling of WAVECAR
   LCHARG       =      T    write CHGCAR
   LVTOT        =      F    write LOCPOT, total local potential
   LVHAR        =      F    write LOCPOT, Hartree potential only
   LELF         =      F    write electronic localiz. function (ELF)
   LORBIT       =      0    0 simple, 1 ext, 2 COOP (PROOUT), +10 PAW based schemes


 Dipole corrections
   LMONO  =      F    monopole corrections only (constant potential shift)
   LDIPOL =      F    correct potential (dipole corrections)
   IDIPOL =      0    1-x, 2-y, 3-z, 4-all directions 
   EPSILON=  1.0000000 bulk dielectric constant

 Exchange correlation treatment:
   GGA     =    PS    GGA type
   LEXCH   =    14    internal setting for exchange type
   VOSKOWN=      1    Vosko Wilk Nusair interpolation
   LHFCALC =     F    Hartree Fock is set to
   LHFONE  =     F    Hartree Fock one center treatment
   AEXX    =    0.0000 exact exchange contribution

 Linear response parameters
   LEPSILON=     F    determine dielectric tensor
   LRPA    =     F    only Hartree local field effects (RPA)
   LNABLA  =     F    use nabla operator in PAW spheres
   LVEL    =     F    velocity operator in full k-point grid
   LINTERFAST=   F  fast interpolation
   KINTER  =     0    interpolate to denser k-point grid
   CSHIFT  =0.1000    complex shift for real part using Kramers Kronig
   OMEGAMAX=  -1.0    maximum frequency
   DEG_THRESHOLD= 0.2000000E-02 threshold for treating states as degnerate
   RTIME   =   -0.100 relaxation time in fs
  (WPLASMAI=    0.000 imaginary part of plasma frequency in eV, 0.658/RTIME)
   DFIELD  = 0.0000000 0.0000000 0.0000000 field for delta impulse in time
 
 Orbital magnetization related:
   ORBITALMAG=     F  switch on orbital magnetization
   LCHIMAG   =     F  perturbation theory with respect to B field
   DQ        =  0.001000  dq finite difference perturbation B field
   LLRAUG    =     F  two centre corrections for induced B field



--------------------------------------------------------------------------------------------------------


 quasi-Newton-method for relaxation of ions
 charge density and potential will be updated during run
 spin polarized calculation
 Variant of blocked Davidson
 Davidson routine will perform the subspace rotation
 perform sub-space diagonalisation
    after iterative eigenvector-optimisation
 modified Broyden-mixing scheme, WC =      100.0
 initial mixing is a Kerker type mixing with AMIX =  0.4000 and BMIX =      1.0000
 Hartree-type preconditioning will be used
 using additional bands          101
 real space projection scheme for non local part
 use partial core corrections
 calculate Harris-corrections to forces 
   (improved forces if not selfconsistent)
 use gradient corrections 
 use of overlap-Matrix (Vanderbilt PP)
 Gauss-broadening in eV      SIGMA  =   0.05


--------------------------------------------------------------------------------------------------------


  energy-cutoff  :      500.00
  volume of cell :      875.94
      direct lattice vectors                 reciprocal lattice vectors
    -4.216941516  7.305737844 -0.001446301    -0.000014451  0.136870375  0.000012943
     0.002327644 -0.001343814 14.212748860    -0.000012064  0.000006965  0.070359369
     8.435425360  0.000890462  0.001446301     0.118540447  0.068422673 -0.000012944

  length of vectors
     8.435425496 14.212749114  8.435425531     0.136870377  0.070359370  0.136870376


 
 k-points in units of 2pi/SCALE and weight: Automatic mesh                          
   0.00000000  0.00000000  0.00000000       1.000
 
 k-points in reciprocal lattice and weights: Automatic mesh                          
   0.00000000  0.00000000  0.00000000       1.000
 
 position of ions in fractional coordinates (direct lattice) 
   0.97965979  0.50022898  0.00149108
   0.11255754  0.83317181  0.22287334
   0.22142419  0.16666667  0.11031308
   0.33398445  0.50016152  0.00144643
   0.57391232  0.16634025  0.10985633
   0.76019092  0.83334096  0.22138959
   0.22096744  0.16699309  0.46280120
   0.46600516  0.83267829  0.57547138
   0.68658249  0.50065504  0.35489405
   0.11260219  0.83310435  0.86854868
   0.33250070  0.49999237  0.64907981
   0.86779243  0.16666667  0.75668132
   0.99775677  0.00028115  0.00008803
   0.11071543  0.33478875  0.22169412
   0.22512023  0.66666667  0.11400912
   0.33280523  0.99854458  0.99960432
   0.44278936  0.33334753  0.22356751
   0.55532090  0.66727710  0.10897993
   0.66795102  0.99897803  0.99956336
   0.77893737  0.33446916  0.22249048
   0.88894280  0.66649679  0.11022991
   0.00178766  0.00174011  0.33459406
   0.11067447  0.33435530  0.55683991
   0.22009104  0.66605624  0.44420978
   0.33467862  0.99998580  0.33167825
   0.44565913  0.33196928  0.55537223
   0.55424100  0.66666667  0.44312988
   0.66648334  0.00136405  0.33454802
   0.77727394  0.33314136  0.55455690
   0.89044949  0.66801429  0.44462775
   0.99961895  0.00172339  0.66524530
   0.11119914  0.33305218  0.88664566
   0.22134102  0.66683655  0.77783169
   0.33360159  0.99886417  0.66782626
   0.44570517  0.33159322  0.89067655
   0.55573887  0.66531905  0.77933838
   0.66566801  0.00019197  0.66616283
   0.77635641  0.33160994  0.88850784
   0.88872757  0.66666667  0.77761646
   0.00728666  0.73683950  0.00565166
   0.00034033  0.26291363  0.99431861
   0.11751085  0.07054255  0.22466730
   0.10942173  0.59857101  0.21860854
   0.21899505  0.40325520  0.10435758
   0.21546869  0.93007814  0.10788394
   0.32971965  0.73476232  0.99831062
   0.33577841  0.26279078  0.00639974
   0.44136591  0.06945080  0.21588423
   0.44756698  0.59741465  0.21966365
   0.55149046  0.40370751  0.11475867
   0.56384659  0.93218088  0.11611508
   0.66863059  0.73409873  0.00199765
   0.66602933  0.26569823  0.00423219
   0.77319048  0.06818588  0.21869144
   0.77644735  0.59956818  0.22345167
   0.89090901  0.40044901  0.10801860
   0.89302538  0.93080398  0.11807893
   0.99826157  0.73686324  0.32816485
   0.00566348  0.26720200  0.33665744
   0.11534330  0.06763510  0.55491822
   0.11310876  0.59923460  0.55751948
   0.22722619  0.40115246  0.45273547
   0.22586978  0.92962583  0.44037934
   0.33077476  0.73591868  0.33645587
   0.32699534  0.26388253  0.33025480
   0.44022161  0.06736667  0.55278568
   0.44020056  0.59826248  0.55867556
   0.55675556  0.40068495  0.44231336
   0.55342448  0.93264839  0.44564444
   0.66978667  0.73507085  0.32908945
   0.66389679  0.26596666  0.32911050
   0.77783538  0.06858656  0.55807223
   0.77478314  0.60036060  0.54886508
   0.88546471  0.40135184  0.44241198
   0.88780000  0.93453080  0.44165702
   0.00151367  0.73408740  0.67119680
   0.99832541  0.26593890  0.66729916
   0.10542972  0.07041970  0.88922922
   0.11676277  0.59649383  0.89617555
   0.22919004  0.40252936  0.78191427
   0.21912971  0.93288433  0.77979790
   0.33456278  0.73376515  0.66533624
   0.32980255  0.26514745  0.66207937
   0.44776855  0.06613133  0.89455237
   0.43927596  0.59647009  0.88715046
   0.55276814  0.39880254  0.77668889
   0.55352310  0.93198150  0.77435360
   0.65997619  0.73297273  0.66367203
   0.66918334  0.26474677  0.66672427
   0.77841027  0.06739443  0.88721430
   0.78230791  0.59924593  0.89040256
   0.88887187  0.39999977  0.78050392
   0.89161503  0.93333357  0.77776076
 
 position of ions in cartesian coordinates  (Angst):
  -4.11742579  7.15646672  7.10821414
   1.40732219  0.82139471 11.84182124
  -0.00280717  1.61754135  2.36863082
  -1.39502744  2.43933200  7.10818912
  -1.49308264  4.19272725  2.36348103
  -1.33622557  5.55283286 11.84328651
   2.97250691  1.61451789  2.37378061
   2.89116755  3.40390500 11.83480574
   0.09956941  5.01563491  7.11520463
   6.85367988  0.82229595 11.84179623
   4.07429209  2.42906903  7.10672386
   2.72388681  6.34031382  2.36863082
  -4.20673872  7.28934909  0.00255299
   1.40398298  0.80860542  4.75842893
   0.01394834  1.64387503  9.47500525
   7.03099170  2.43093602 14.19302773
   0.01944612  3.23465411  4.73746767
  -1.42091051  4.05622926  9.48319630
   5.61735699  4.87942268 14.19870347
  -1.40715297  5.69046088  4.75292138
  -2.81723225  6.49358556  9.47162524
   2.81490881  0.01335578  0.02521308
   4.23125199  0.80860520  4.75275320
   2.82053774  1.60742794  9.46681421
   1.38885457  2.44402581 14.21254270
   2.80625521  3.25591720  4.71835468
   1.40233891  4.04863816  9.47500525
   0.01153676  4.86944863  0.01890682
   1.40098003  5.67860577  4.73453237
  -0.00279432  6.50488877  9.49367455
   1.39629644  7.30354405  0.02401050
   7.01108824  0.81273373  4.73470852
   5.62951119  1.61685599  9.47838527
   4.22894518  2.43645815 14.19708898
   5.63449475  3.25655264  4.71349472
   4.23208105  4.05988240  9.45633596
   2.81228421  4.86378891  0.00272914
   4.22186386  5.67220197  4.71325100
   2.81336518  6.49260720  9.47500525
   0.01866184  0.05224928 10.47251240
   8.38667724  0.00301846  3.73816299
   1.39979206  0.85860873  1.00275853
   1.38402425  0.79879677  8.50749736
  -0.04225011  1.59947145  5.73119908
   0.00359295  1.57300398 13.21881142
   7.03247651  2.40874690 10.44395931
  -1.36136170  2.45276159  3.73450298
  -0.03997726  3.22460254  0.98676066
  -0.03301689  3.26919981  8.49057477
  -1.35662513  4.02860440  5.73716181
  -1.39605822  4.11816609 13.24820519
  -2.80101635  4.88385509 10.43259674
  -2.77228796  4.86548240  3.77534506
  -1.41558500  5.64883006  0.96830682
  -1.38792760  5.67191406  8.52071217
  -2.84479625  6.50830573  5.69034892
  -2.76762322  6.52306363 13.22816240
  -1.43968540  7.29233934 10.47188301
   2.81658809  0.04131661  3.79815364
   4.19473271  0.84307116  0.96191645
   4.22733574  0.82603414  8.51741363
   2.86175045  1.65991904  5.70180532
   2.76447124  1.64928830 13.21284870
   1.44500352  2.41586435 10.45943560
   1.40753372  2.38888170  3.75050084
   2.80675037  3.21654538  0.95762836
   2.85775851  3.21568342  8.50312573
   1.38422835  4.06736558  5.69466905
   1.42761262  4.04231769 13.25534146
  -0.04673074  4.89259107 10.44688463
  -0.02280780  4.85019155  3.77963314
   1.42764998  5.68306615  0.97448571
   1.36409265  5.66004448  8.53244769
  -0.00108546  6.46882765  5.70367212
  -0.01606060  6.48517150 13.28160631
   5.65715614  0.01066967 10.43436842
   1.41969140  7.29374056  3.77924403
   7.05659966  0.77093909  1.00199112
   7.06862861  0.85303462  8.47894427
   5.63023541  1.67455769  5.72184811
   5.65604123  1.60034497 13.25966159
   4.20327046  2.44383438 10.42929820
   4.19478021  2.40968422  3.76895469
   5.65786989  3.27198734  0.94055417
   5.63247883  3.20922343  8.47812735
   4.22163851  4.03853482  5.66840420
   4.19999678  4.04333178 13.24633839
   2.81698098  4.82121902 10.41756268
   2.80281204  4.88911597  3.76277580
   4.20167629  5.68756083  0.95801747
   4.21337246  5.71532410  8.51708825
   2.83649293  6.49402234  5.68493954
   2.80302687  6.51334401 13.26507097
 


--------------------------------------------------------------------------------------------------------


 use serial FFT for orbitals x direction half grid
 k-point  1 :   0.0000 0.0000 0.0000  plane waves:   11128

 maximum and minimum number of plane-waves per node :     11128    11128

 maximum number of plane-waves:     11128
 maximum index in each direction: 
   IXMAX=   15   IYMAX=   25   IZMAX=   13
   IXMIN=    0   IYMIN=  -25   IZMIN=  -15

 The following grids will avoid any aliasing or wrap around errors in the Hartre
 e energy
  - symmetry arguments have not been applied
  - exchange correlation energies might require even more grid points
  - we recommend to set PREC=Normal or Accurate and rely on VASP defaults
 NGX is ok and might be reduce to    64
 NGY is ok and might be reduce to   108
 NGZ is ok and might be reduce to    60

 serial   3D FFT for wavefunctions
 parallel 3D FFT for charge:
    minimum data exchange during FFTs selected (reduces bandwidth)


 total amount of memory used by VASP MPI-rank0   145665. kBytes
=======================================================================

   base      :      30000. kBytes
   nonlr-proj:      39861. kBytes
   fftplans  :       9349. kBytes
   grid      :      55332. kBytes
   one-center:       1446. kBytes
   wavefun   :       9677. kBytes
 
     INWAV:  cpu time    0.0000: real time    0.0000
 Broyden mixing: mesh for mixing (old mesh)
   NGX = 31   NGY = 51   NGZ = 31
  (NGX  =128   NGY  =216   NGZ  =128)
  gives a total of  49011 points

 initial charge density was supplied:
 charge density of overlapping atoms calculated
 number of electron     630.0000000 magnetization      67.5000000
 keeping initial charge density in first step


--------------------------------------------------------------------------------------------------------


 Maximum index for non-local projection operator         6594
 Maximum index for augmentation-charges         1089 (set IRDMAX)


--------------------------------------------------------------------------------------------------------


 First call to EWALD:  gamma=   0.185
 Maximum number of real-space cells 3x 2x 3
 Maximum number of reciprocal cells 2x 4x 2

    FEWALD:  cpu time    0.0035: real time    0.0035


--------------------------------------- Iteration      1(   1)  ---------------------------------------


    POTLOK:  cpu time    0.2610: real time    0.2955
    SETDIJ:  cpu time    0.0278: real time    0.0279
     EDDAV:  cpu time    4.5545: real time    4.5940
    --------------------------------------------
      LOOP:  cpu time    4.8438: real time    4.9180

 eigenvalue-minimisations  :  1664
 total energy-change (2. order) : 0.1131301E+05  (-0.2902202E+05)
 number of electron     630.0000000 magnetization      67.5000000
 augmentation part      630.0000000 magnetization      67.5000000

 Free energy of the ion-electron system (eV)
  ---------------------------------------------------
  alpha Z        PSCENC =      1956.04352838
  Ewald energy   TEWEN  =    -36886.34880422
  -Hartree energ DENC   =    -19150.56468514
  -exchange      EXHF   =         0.00000000
  -V(xc)+E(xc)   XCENC  =      2560.78796645
  PAW double counting   =     45614.75965022   -47680.17472601
  entropy T*S    EENTRO =        -0.02722298
  eigenvalues    EBANDS =     10150.75390744
  atomic energy  EATOM  =     54747.78018348
  Solvation  Ediel_sol  =         0.00000000
  ---------------------------------------------------
  free energy    TOTEN  =     11313.00979762 eV

  energy without entropy =    11313.03702060  energy(sigma->0) =    11313.02340911


--------------------------------------------------------------------------------------------------------




--------------------------------------- Iteration      1(   2)  ---------------------------------------


     EDDAV:  cpu time    4.6958: real time    4.7070
    --------------------------------------------
      LOOP:  cpu time    4.6956: real time    4.7068

 eigenvalue-minimisations  :  1728
 total energy-change (2. order) :-0.9127065E+04  (-0.8406957E+04)
 number of electron     630.0000000 magnetization      67.5000000
 augmentation part      630.0000000 magnetization      67.5000000

 Free energy of the ion-electron system (eV)
  ---------------------------------------------------
  alpha Z        PSCENC =      1956.04352838
  Ewald energy   TEWEN  =    -36886.34880422
  -Hartree energ DENC   =    -19150.56468514
  -exchange      EXHF   =         0.00000000
  -V(xc)+E(xc)   XCENC  =      2560.78796645
  PAW double counting   =     45614.75965022   -47680.17472601
  entropy T*S    EENTRO =        -0.02810689
  eigenvalues    EBANDS =      1023.68938779
  atomic energy  EATOM  =     54747.78018348
  Solvation  Ediel_sol  =         0.00000000
  ---------------------------------------------------
  free energy    TOTEN  =      2185.94439406 eV

  energy without entropy =     2185.97250095  energy(sigma->0) =     2185.95844751


--------------------------------------------------------------------------------------------------------




--------------------------------------- Iteration      1(   3)  ---------------------------------------


     EDDAV:  cpu time    4.8873: real time    4.8991
    --------------------------------------------
      LOOP:  cpu time    4.8873: real time    4.8991

 eigenvalue-minimisations  :  1824
 total energy-change (2. order) :-0.2505436E+04  (-0.2119806E+04)
 number of electron     630.0000000 magnetization      67.5000000
 augmentation part      630.0000000 magnetization      67.5000000

 Free energy of the ion-electron system (eV)
  ---------------------------------------------------
  alpha Z        PSCENC =      1956.04352838
  Ewald energy   TEWEN  =    -36886.34880422
  -Hartree energ DENC   =    -19150.56468514
  -exchange      EXHF   =         0.00000000
  -V(xc)+E(xc)   XCENC  =      2560.78796645
  PAW double counting   =     45614.75965022   -47680.17472601
  entropy T*S    EENTRO =        -0.13339714
  eigenvalues    EBANDS =     -1481.64122781
  atomic energy  EATOM  =     54747.78018348
  Solvation  Ediel_sol  =         0.00000000
  ---------------------------------------------------
  free energy    TOTEN  =      -319.49151179 eV

  energy without entropy =     -319.35811465  energy(sigma->0) =     -319.42481322


--------------------------------------------------------------------------------------------------------




--------------------------------------- Iteration      1(   4)  ---------------------------------------


     EDDAV:  cpu time    5.0622: real time    5.0742
    --------------------------------------------
      LOOP:  cpu time    5.0622: real time    5.0743

 eigenvalue-minimisations  :  1920
 total energy-change (2. order) :-0.4188506E+03  (-0.4016371E+03)
 number of electron     630.0000000 magnetization      67.5000000
 augmentation part      630.0000000 magnetization      67.5000000

 Free energy of the ion-electron system (eV)
  ---------------------------------------------------
  alpha Z        PSCENC =      1956.04352838
  Ewald energy   TEWEN  =    -36886.34880422
  -Hartree energ DENC   =    -19150.56468514
  -exchange      EXHF   =         0.00000000
  -V(xc)+E(xc)   XCENC  =      2560.78796645
  PAW double counting   =     45614.75965022   -47680.17472601
  entropy T*S    EENTRO =        -0.26496178
  eigenvalues    EBANDS =     -1900.36030143
  atomic energy  EATOM  =     54747.78018348
  Solvation  Ediel_sol  =         0.00000000
  ---------------------------------------------------
  free energy    TOTEN  =      -738.34215005 eV

  energy without entropy =     -738.07718827  energy(sigma->0) =     -738.20966916


--------------------------------------------------------------------------------------------------------




--------------------------------------- Iteration      1(   5)  ---------------------------------------


     EDDAV:  cpu time    6.0289: real time    6.0433
    CHARGE:  cpu time    0.2736: real time    0.2743
    MIXING:  cpu time    0.0051: real time    0.0051
    --------------------------------------------
      LOOP:  cpu time    6.3073: real time    6.3223

 eigenvalue-minimisations  :  2400
 total energy-change (2. order) :-0.2135570E+02  (-0.2110260E+02)
 number of electron     629.9999914 magnetization      72.5282864
 augmentation part      186.9253264 magnetization      51.0250300

 Broyden mixing:
  rms(total) = 0.16007E+02    rms(broyden)= 0.16006E+02
  rms(prec ) = 0.17555E+02
  weight for this iteration     100.00

 Free energy of the ion-electron system (eV)
  ---------------------------------------------------
  alpha Z        PSCENC =      1956.04352838
  Ewald energy   TEWEN  =    -36886.34880422
  -Hartree energ DENC   =    -19150.56468514
  -exchange      EXHF   =         0.00000000
  -V(xc)+E(xc)   XCENC  =      2560.78796645
  PAW double counting   =     45614.75965022   -47680.17472601
  entropy T*S    EENTRO =        -0.24621071
  eigenvalues    EBANDS =     -1921.73474840
  atomic energy  EATOM  =     54747.78018348
  Solvation  Ediel_sol  =         0.00000000
  ---------------------------------------------------
  free energy    TOTEN  =      -759.69784595 eV

  energy without entropy =     -759.45163524  energy(sigma->0) =     -759.57474060


--------------------------------------------------------------------------------------------------------




--------------------------------------- Iteration      1(   6)  ---------------------------------------


    POTLOK:  cpu time    0.2262: real time    0.2267
    SETDIJ:  cpu time    0.0284: real time    0.0285
     EDDAV:  cpu time    6.3718: real time    6.3870
    CHARGE:  cpu time    0.3268: real time    0.3276
    MIXING:  cpu time    0.0073: real time    0.0073
    --------------------------------------------
      LOOP:  cpu time    6.9605: real time    6.9771

 eigenvalue-minimisations  :  2544
 total energy-change (2. order) :-0.7167604E+02  (-0.1682573E+03)
 number of electron     629.9999930 magnetization      67.7894742
 augmentation part      235.8181541 magnetization      66.9138667

 Broyden mixing:
  rms(total) = 0.27753E+02    rms(broyden)= 0.27752E+02
  rms(prec ) = 0.28913E+02
  weight for this iteration     100.00

 eigenvalues of (default mixing * dielectric matrix)
  average eigenvalue GAMMA=   0.2551
  0.2551

 Free energy of the ion-electron system (eV)
  ---------------------------------------------------
  alpha Z        PSCENC =      1956.04352838
  Ewald energy   TEWEN  =    -36886.34880422
  -Hartree energ DENC   =    -18263.11013223
  -exchange      EXHF   =         0.00000000
  -V(xc)+E(xc)   XCENC  =      2596.55066336
  PAW double counting   =     50348.09830834   -52122.59455163
  entropy T*S    EENTRO =        -0.06659734
  eigenvalues    EBANDS =     -3207.72648504
  atomic energy  EATOM  =     54747.78018348
  Solvation  Ediel_sol  =         0.00000000
  ---------------------------------------------------
  free energy    TOTEN  =      -831.37388690 eV

  energy without entropy =     -831.30728956  energy(sigma->0) =     -831.34058823


--------------------------------------------------------------------------------------------------------




--------------------------------------- Iteration      1(   7)  ---------------------------------------


    POTLOK:  cpu time    0.2633: real time    0.2640
    SETDIJ:  cpu time    0.0285: real time    0.0286
     EDDAV:  cpu time    5.7798: real time    5.7936
    CHARGE:  cpu time    0.2613: real time    0.2619
    MIXING:  cpu time    0.0053: real time    0.0053
    --------------------------------------------
      LOOP:  cpu time    6.3382: real time    6.3534

 eigenvalue-minimisations  :  2272
 total energy-change (2. order) : 0.2000431E+03  (-0.5137688E+02)
 number of electron     629.9999915 magnetization      59.2614019
 augmentation part      224.9064656 magnetization      57.8364019

 Broyden mixing:
  rms(total) = 0.12268E+02    rms(broyden)= 0.12267E+02
  rms(prec ) = 0.13241E+02
  weight for this iteration     100.00

 eigenvalues of (default mixing * dielectric matrix)
  average eigenvalue GAMMA=   0.5092
  0.5092  0.5092

 Free energy of the ion-electron system (eV)
  ---------------------------------------------------
  alpha Z        PSCENC =      1956.04352838
  Ewald energy   TEWEN  =    -36886.34880422
  -Hartree energ DENC   =    -18527.25416992
  -exchange      EXHF   =         0.00000000
  -V(xc)+E(xc)   XCENC  =      2567.05303883
  PAW double counting   =     52203.26548776   -54150.05225933
  entropy T*S    EENTRO =        -0.02443366
  eigenvalues    EBANDS =     -2541.79333445
  atomic energy  EATOM  =     54747.78018348
  Solvation  Ediel_sol  =         0.00000000
  ---------------------------------------------------
  free energy    TOTEN  =      -631.33076313 eV

  energy without entropy =     -631.30632947  energy(sigma->0) =     -631.31854630


--------------------------------------------------------------------------------------------------------




--------------------------------------- Iteration      1(   8)  ---------------------------------------


    POTLOK:  cpu time    0.2256: real time    0.2261
    SETDIJ:  cpu time    0.0286: real time    0.0286
     EDDAV:  cpu time    6.1410: real time    6.1555
    CHARGE:  cpu time    0.2615: real time    0.2621
    MIXING:  cpu time    0.0056: real time    0.0056
    --------------------------------------------
      LOOP:  cpu time    6.6622: real time    6.6780

 eigenvalue-minimisations  :  2448
 total energy-change (2. order) :-0.3701009E+02  (-0.2310428E+02)
 number of electron     629.9999944 magnetization      56.4872041
 augmentation part      203.8503035 magnetization      46.3779877

 Broyden mixing:
  rms(total) = 0.15384E+02    rms(broyden)= 0.15383E+02
  rms(prec ) = 0.20730E+02
  weight for this iteration     100.00

 eigenvalues of (default mixing * dielectric matrix)
  average eigenvalue GAMMA=   0.4524
  0.5803  0.5803  0.1966

 Free energy of the ion-electron system (eV)
  ---------------------------------------------------
  alpha Z        PSCENC =      1956.04352838
  Ewald energy   TEWEN  =    -36886.34880422
  -Hartree energ DENC   =    -18722.28533174
  -exchange      EXHF   =         0.00000000
  -V(xc)+E(xc)   XCENC  =      2551.03805022
  PAW double counting   =     54212.46266979   -56316.35836314
  entropy T*S    EENTRO =        -0.05181568
  eigenvalues    EBANDS =     -2210.62097375
  atomic energy  EATOM  =     54747.78018348
  Solvation  Ediel_sol  =         0.00000000
  ---------------------------------------------------
  free energy    TOTEN  =      -668.34085666 eV

  energy without entropy =     -668.28904098  energy(sigma->0) =     -668.31494882


--------------------------------------------------------------------------------------------------------




--------------------------------------- Iteration      1(   9)  ---------------------------------------


    POTLOK:  cpu time    0.2256: real time    0.2261
    SETDIJ:  cpu time    0.0284: real time    0.0285
     EDDAV:  cpu time    5.7142: real time    5.7278
    CHARGE:  cpu time    0.2623: real time    0.2630
    MIXING:  cpu time    0.0058: real time    0.0058
    --------------------------------------------
      LOOP:  cpu time    6.2364: real time    6.2512

 eigenvalue-minimisations  :  2240
 total energy-change (2. order) : 0.3010217E+02  (-0.4196680E+02)
 number of electron     629.9999915 magnetization      51.6649054
 augmentation part      199.2306822 magnetization      43.4386397

 Broyden mixing:
  rms(total) = 0.15162E+02    rms(broyden)= 0.15161E+02
  rms(prec ) = 0.19050E+02
  weight for this iteration     100.00

 eigenvalues of (default mixing * dielectric matrix)
  average eigenvalue GAMMA=   0.4181
  0.6302  0.6302  0.3212  0.0909

 Free energy of the ion-electron system (eV)
  ---------------------------------------------------
  alpha Z        PSCENC =      1956.04352838
  Ewald energy   TEWEN  =    -36886.34880422
  -Hartree energ DENC   =    -18678.76137958
  -exchange      EXHF   =         0.00000000
  -V(xc)+E(xc)   XCENC  =      2548.66031320
  PAW double counting   =     55021.36820849   -57136.73060033
  entropy T*S    EENTRO =        -0.08143290
  eigenvalues    EBANDS =     -2210.16870465
  atomic energy  EATOM  =     54747.78018348
  Solvation  Ediel_sol  =         0.00000000
  ---------------------------------------------------
  free energy    TOTEN  =      -638.23868813 eV

  energy without entropy =     -638.15725524  energy(sigma->0) =     -638.19797168


--------------------------------------------------------------------------------------------------------




--------------------------------------- Iteration      1(  10)  ---------------------------------------


    POTLOK:  cpu time    0.2254: real time    0.2260
    SETDIJ:  cpu time    0.0288: real time    0.0289
     EDDAV:  cpu time    6.1380: real time    6.1526
    CHARGE:  cpu time    0.2607: real time    0.2613
    MIXING:  cpu time    0.0061: real time    0.0062
    --------------------------------------------
      LOOP:  cpu time    6.6591: real time    6.6750

 eigenvalue-minimisations  :  2448
 total energy-change (2. order) : 0.4616465E+02  (-0.1709317E+02)
 number of electron     629.9999906 magnetization      48.9777156
 augmentation part      205.1072922 magnetization      44.0747937

 Broyden mixing:
  rms(total) = 0.99297E+01    rms(broyden)= 0.99286E+01
  rms(prec ) = 0.11351E+02
  weight for this iteration     100.00

 eigenvalues of (default mixing * dielectric matrix)
  average eigenvalue GAMMA=   0.3862
  0.6754  0.6754  0.3093  0.1505  0.1207

 Free energy of the ion-electron system (eV)
  ---------------------------------------------------
  alpha Z        PSCENC =      1956.04352838
  Ewald energy   TEWEN  =    -36886.34880422
  -Hartree energ DENC   =    -18601.05991349
  -exchange      EXHF   =         0.00000000
  -V(xc)+E(xc)   XCENC  =      2544.94196471
  PAW double counting   =     56513.68625608   -58646.89154394
  entropy T*S    EENTRO =        -0.09223963
  eigenvalues    EBANDS =     -2220.13347321
  atomic energy  EATOM  =     54747.78018348
  Solvation  Ediel_sol  =         0.00000000
  ---------------------------------------------------
  free energy    TOTEN  =      -592.07404184 eV

  energy without entropy =     -591.98180220  energy(sigma->0) =     -592.02792202


--------------------------------------------------------------------------------------------------------




--------------------------------------- Iteration      1(  11)  ---------------------------------------


    POTLOK:  cpu time    0.2263: real time    0.2269
    SETDIJ:  cpu time    0.0285: real time    0.0286
     EDDAV:  cpu time    5.9293: real time    5.9434
    CHARGE:  cpu time    0.2590: real time    0.2596
    MIXING:  cpu time    0.0062: real time    0.0062
    --------------------------------------------
      LOOP:  cpu time    6.4494: real time    6.4647

 eigenvalue-minimisations  :  2368
 total energy-change (2. order) : 0.2089852E+02  (-0.6562075E+01)
 number of electron     629.9999917 magnetization      45.9329708
 augmentation part      208.2088261 magnetization      42.9079952

 Broyden mixing:
  rms(total) = 0.54489E+01    rms(broyden)= 0.54482E+01
  rms(prec ) = 0.61044E+01
  weight for this iteration     100.00

 eigenvalues of (default mixing * dielectric matrix)
  average eigenvalue GAMMA=   0.4089
  0.7852  0.7852  0.3189  0.3189  0.1479  0.0971

 Free energy of the ion-electron system (eV)
  ---------------------------------------------------
  alpha Z        PSCENC =      1956.04352838
  Ewald energy   TEWEN  =    -36886.34880422
  -Hartree energ DENC   =    -18578.00986776
  -exchange      EXHF   =         0.00000000
  -V(xc)+E(xc)   XCENC  =      2544.29144542
  PAW double counting   =     57123.16046961   -59262.08275051
  entropy T*S    EENTRO =        -0.03651121
  eigenvalues    EBANDS =     -2215.97321523
  atomic energy  EATOM  =     54747.78018348
  Solvation  Ediel_sol  =         0.00000000
  ---------------------------------------------------
  free energy    TOTEN  =      -571.17552204 eV

  energy without entropy =     -571.13901083  energy(sigma->0) =     -571.15726643


--------------------------------------------------------------------------------------------------------




--------------------------------------- Iteration      1(  12)  ---------------------------------------


    POTLOK:  cpu time    0.2256: real time    0.2262
    SETDIJ:  cpu time    0.0286: real time    0.0286
     EDDAV:  cpu time    5.5725: real time    5.5858
    CHARGE:  cpu time    0.2601: real time    0.2607
    MIXING:  cpu time    0.0062: real time    0.0063
    --------------------------------------------
      LOOP:  cpu time    6.0931: real time    6.1076

 eigenvalue-minimisations  :  2192
 total energy-change (2. order) : 0.8629987E+01  (-0.3130082E+01)
 number of electron     629.9999914 magnetization      39.6968940
 augmentation part      208.2231997 magnetization      33.9369324

 Broyden mixing:
  rms(total) = 0.44596E+01    rms(broyden)= 0.44589E+01
  rms(prec ) = 0.52666E+01
  weight for this iteration     100.00

 eigenvalues of (default mixing * dielectric matrix)
  average eigenvalue GAMMA=   0.4478
  0.9317  0.9317  0.3552  0.3552  0.3391  0.1194  0.1026

 Free energy of the ion-electron system (eV)
  ---------------------------------------------------
  alpha Z        PSCENC =      1956.04352838
  Ewald energy   TEWEN  =    -36886.34880422
  -Hartree energ DENC   =    -18602.58136961
  -exchange      EXHF   =         0.00000000
  -V(xc)+E(xc)   XCENC  =      2545.44090866
  PAW double counting   =     57391.73773040   -59535.95967639
  entropy T*S    EENTRO =        -0.06354761
  eigenvalues    EBANDS =     -2178.59448776
  atomic energy  EATOM  =     54747.78018348
  Solvation  Ediel_sol  =         0.00000000
  ---------------------------------------------------
  free energy    TOTEN  =      -562.54553466 eV

  energy without entropy =     -562.48198705  energy(sigma->0) =     -562.51376086


--------------------------------------------------------------------------------------------------------




--------------------------------------- Iteration      1(  13)  ---------------------------------------


    POTLOK:  cpu time    0.2260: real time    0.2266
    SETDIJ:  cpu time    0.0285: real time    0.0286
     EDDAV:  cpu time    5.8656: real time    5.8796
    CHARGE:  cpu time    0.2596: real time    0.2602
    MIXING:  cpu time    0.0066: real time    0.0066
    --------------------------------------------
      LOOP:  cpu time    6.3864: real time    6.4016

 eigenvalue-minimisations  :  2336
 total energy-change (2. order) : 0.1854889E+01  (-0.4335140E+01)
 number of electron     629.9999913 magnetization      36.9141983
 augmentation part      207.5365498 magnetization      33.2916839

 Broyden mixing:
  rms(total) = 0.45965E+01    rms(broyden)= 0.45961E+01
  rms(prec ) = 0.51672E+01
  weight for this iteration     100.00

 eigenvalues of (default mixing * dielectric matrix)
  average eigenvalue GAMMA=   0.4463
  0.9984  0.9984  0.3943  0.3943  0.3932  0.1684  0.1213  0.1023

 Free energy of the ion-electron system (eV)
  ---------------------------------------------------
  alpha Z        PSCENC =      1956.04352838
  Ewald energy   TEWEN  =    -36886.34880422
  -Hartree energ DENC   =    -18639.09240784
  -exchange      EXHF   =         0.00000000
  -V(xc)+E(xc)   XCENC  =      2547.60583197
  PAW double counting   =     58133.47269545   -60284.53478758
  entropy T*S    EENTRO =        -0.03147170
  eigenvalues    EBANDS =     -2135.58541403
  atomic energy  EATOM  =     54747.78018348
  Solvation  Ediel_sol  =         0.00000000
  ---------------------------------------------------
  free energy    TOTEN  =      -560.69064610 eV

  energy without entropy =     -560.65917439  energy(sigma->0) =     -560.67491024


--------------------------------------------------------------------------------------------------------




--------------------------------------- Iteration      1(  14)  ---------------------------------------


    POTLOK:  cpu time    0.2258: real time    0.2263
    SETDIJ:  cpu time    0.0288: real time    0.0289
     EDDAV:  cpu time    5.5437: real time    5.5569
    CHARGE:  cpu time    0.2609: real time    0.2616
    MIXING:  cpu time    0.0070: real time    0.0070
    --------------------------------------------
      LOOP:  cpu time    6.0662: real time    6.0806

 eigenvalue-minimisations  :  2176
 total energy-change (2. order) : 0.5083502E+01  (-0.2229627E+01)
 number of electron     629.9999917 magnetization      32.3639918
 augmentation part      208.2852933 magnetization      27.2162827

 Broyden mixing:
  rms(total) = 0.23896E+01    rms(broyden)= 0.23888E+01
  rms(prec ) = 0.27824E+01
  weight for this iteration     100.00

 eigenvalues of (default mixing * dielectric matrix)
  average eigenvalue GAMMA=   0.4369
  0.9761  0.9761  0.4874  0.4321  0.4321  0.2033  0.2033  0.1032  0.1184

 Free energy of the ion-electron system (eV)
  ---------------------------------------------------
  alpha Z        PSCENC =      1956.04352838
  Ewald energy   TEWEN  =    -36886.34880422
  -Hartree energ DENC   =    -18643.33430517
  -exchange      EXHF   =         0.00000000
  -V(xc)+E(xc)   XCENC  =      2547.62036860
  PAW double counting   =     58488.64605188   -60643.06898701
  entropy T*S    EENTRO =        -0.05018013
  eigenvalues    EBANDS =     -2122.89499987
  atomic energy  EATOM  =     54747.78018348
  Solvation  Ediel_sol  =         0.00000000
  ---------------------------------------------------
  free energy    TOTEN  =      -555.60714405 eV

  energy without entropy =     -555.55696392  energy(sigma->0) =     -555.58205399


--------------------------------------------------------------------------------------------------------




--------------------------------------- Iteration      1(  15)  ---------------------------------------


    POTLOK:  cpu time    0.2256: real time    0.2261
    SETDIJ:  cpu time    0.0284: real time    0.0285
     EDDAV:  cpu time    5.3255: real time    5.3382
    CHARGE:  cpu time    0.2621: real time    0.2628
    MIXING:  cpu time    0.0072: real time    0.0072
    --------------------------------------------
      LOOP:  cpu time    5.8489: real time    5.8628

 eigenvalue-minimisations  :  2064
 total energy-change (2. order) :-0.3653759E+01  (-0.1104944E+01)
 number of electron     629.9999913 magnetization      30.1130879
 augmentation part      208.2734038 magnetization      26.1339517

 Broyden mixing:
  rms(total) = 0.31420E+01    rms(broyden)= 0.31415E+01
  rms(prec ) = 0.36850E+01
  weight for this iteration     100.00

 eigenvalues of (default mixing * dielectric matrix)
  average eigenvalue GAMMA=   0.4452
  1.0472  1.0472  0.5265  0.5265  0.3616  0.3616  0.2269  0.1031  0.1180  0.1339

 Free energy of the ion-electron system (eV)
  ---------------------------------------------------
  alpha Z        PSCENC =      1956.04352838
  Ewald energy   TEWEN  =    -36886.34880422
  -Hartree energ DENC   =    -18650.44241171
  -exchange      EXHF   =         0.00000000
  -V(xc)+E(xc)   XCENC  =      2546.60506346
  PAW double counting   =     59128.17952917   -61287.77260157
  entropy T*S    EENTRO =        -0.05302560
  eigenvalues    EBANDS =     -2113.25236490
  atomic energy  EATOM  =     54747.78018348
  Solvation  Ediel_sol  =         0.00000000
  ---------------------------------------------------
  free energy    TOTEN  =      -559.26090351 eV

  energy without entropy =     -559.20787791  energy(sigma->0) =     -559.23439071


--------------------------------------------------------------------------------------------------------




--------------------------------------- Iteration      1(  16)  ---------------------------------------


    POTLOK:  cpu time    0.2253: real time    0.2258
    SETDIJ:  cpu time    0.0287: real time    0.0288
     EDDAV:  cpu time    5.4165: real time    5.4294
    CHARGE:  cpu time    0.2595: real time    0.2601
    MIXING:  cpu time    0.0074: real time    0.0075
    --------------------------------------------
      LOOP:  cpu time    5.9374: real time    5.9515

 eigenvalue-minimisations  :  2128
 total energy-change (2. order) :-0.2079432E+00  (-0.8576003E+00)
 number of electron     629.9999917 magnetization      27.9546879
 augmentation part      208.2219717 magnetization      22.7796232

 Broyden mixing:
  rms(total) = 0.18867E+01    rms(broyden)= 0.18861E+01
  rms(prec ) = 0.21427E+01
  weight for this iteration     100.00

 eigenvalues of (default mixing * dielectric matrix)
  average eigenvalue GAMMA=   0.4403
  0.9661  0.9661  0.6801  0.6801  0.3840  0.3840  0.2494  0.1779  0.1037  0.1150
  0.1366

 Free energy of the ion-electron system (eV)
  ---------------------------------------------------
  alpha Z        PSCENC =      1956.04352838
  Ewald energy   TEWEN  =    -36886.34880422
  -Hartree energ DENC   =    -18657.46525658
  -exchange      EXHF   =         0.00000000
  -V(xc)+E(xc)   XCENC  =      2545.78421334
  PAW double counting   =     59355.79036445   -61517.76210200
  entropy T*S    EENTRO =        -0.06003476
  eigenvalues    EBANDS =     -2103.23093880
  atomic energy  EATOM  =     54747.78018348
  Solvation  Ediel_sol  =         0.00000000
  ---------------------------------------------------
  free energy    TOTEN  =      -559.46884671 eV

  energy without entropy =     -559.40881195  energy(sigma->0) =     -559.43882933


--------------------------------------------------------------------------------------------------------




--------------------------------------- Iteration      1(  17)  ---------------------------------------


    POTLOK:  cpu time    0.2254: real time    0.2259
    SETDIJ:  cpu time    0.0285: real time    0.0286
     EDDAV:  cpu time    5.5756: real time    5.5888
    CHARGE:  cpu time    0.2594: real time    0.2600
    MIXING:  cpu time    0.0082: real time    0.0082
    --------------------------------------------
      LOOP:  cpu time    6.0970: real time    6.1116

 eigenvalue-minimisations  :  2208
 total energy-change (2. order) :-0.3686318E+01  (-0.7148493E+00)
 number of electron     629.9999916 magnetization      25.6048951
 augmentation part      207.8828060 magnetization      21.6375121

 Broyden mixing:
  rms(total) = 0.23226E+01    rms(broyden)= 0.23220E+01
  rms(prec ) = 0.26503E+01
  weight for this iteration     100.00

 eigenvalues of (default mixing * dielectric matrix)
  average eigenvalue GAMMA=   0.4540
  1.0047  1.0047  0.7728  0.7728  0.4225  0.4225  0.3366  0.2148  0.1566  0.1036
  0.1230  0.1133

 Free energy of the ion-electron system (eV)
  ---------------------------------------------------
  alpha Z        PSCENC =      1956.04352838
  Ewald energy   TEWEN  =    -36886.34880422
  -Hartree energ DENC   =    -18662.06701942
  -exchange      EXHF   =         0.00000000
  -V(xc)+E(xc)   XCENC  =      2544.25729152
  PAW double counting   =     59540.89503169   -61704.37960621
  entropy T*S    EENTRO =        -0.06188006
  eigenvalues    EBANDS =     -2099.27389025
  atomic energy  EATOM  =     54747.78018348
  Solvation  Ediel_sol  =         0.00000000
  ---------------------------------------------------
  free energy    TOTEN  =      -563.15516509 eV

  energy without entropy =     -563.09328504  energy(sigma->0) =     -563.12422507


--------------------------------------------------------------------------------------------------------




--------------------------------------- Iteration      1(  18)  ---------------------------------------


    POTLOK:  cpu time    0.2254: real time    0.2259
    SETDIJ:  cpu time    0.0285: real time    0.0286
     EDDAV:  cpu time    5.7002: real time    5.7138
    CHARGE:  cpu time    0.2603: real time    0.2609
    MIXING:  cpu time    0.0080: real time    0.0080
    --------------------------------------------
      LOOP:  cpu time    6.2224: real time    6.2372

 eigenvalue-minimisations  :  2272
 total energy-change (2. order) :-0.2728489E+01  (-0.6478448E+00)
 number of electron     629.9999916 magnetization      23.8900332
 augmentation part      207.7084520 magnetization      19.1924727

 Broyden mixing:
  rms(total) = 0.19090E+01    rms(broyden)= 0.19084E+01
  rms(prec ) = 0.20875E+01
  weight for this iteration     100.00

 eigenvalues of (default mixing * dielectric matrix)
  average eigenvalue GAMMA=   0.4506
  1.0339  1.0339  0.8492  0.8492  0.4295  0.4295  0.3408  0.2454  0.1805  0.1040
  0.1253  0.1253  0.1113

 Free energy of the ion-electron system (eV)
  ---------------------------------------------------
  alpha Z        PSCENC =      1956.04352838
  Ewald energy   TEWEN  =    -36886.34880422
  -Hartree energ DENC   =    -18663.21562185
  -exchange      EXHF   =         0.00000000
  -V(xc)+E(xc)   XCENC  =      2542.88506395
  PAW double counting   =     59684.31214980   -61848.27792638
  entropy T*S    EENTRO =        -0.06880353
  eigenvalues    EBANDS =     -2098.99342359
  atomic energy  EATOM  =     54747.78018348
  Solvation  Ediel_sol  =         0.00000000
  ---------------------------------------------------
  free energy    TOTEN  =      -565.88365397 eV

  energy without entropy =     -565.81485044  energy(sigma->0) =     -565.84925220


--------------------------------------------------------------------------------------------------------




--------------------------------------- Iteration      1(  19)  ---------------------------------------


    POTLOK:  cpu time    0.2257: real time    0.2262
    SETDIJ:  cpu time    0.0286: real time    0.0287
     EDDAV:  cpu time    5.5115: real time    5.5246
    CHARGE:  cpu time    0.2598: real time    0.2604
    MIXING:  cpu time    0.0082: real time    0.0082
    --------------------------------------------
      LOOP:  cpu time    6.0337: real time    6.0481

 eigenvalue-minimisations  :  2176
 total energy-change (2. order) :-0.1463641E+01  (-0.3521536E+00)
 number of electron     629.9999915 magnetization      21.3355996
 augmentation part      207.7227512 magnetization      17.4800103

 Broyden mixing:
  rms(total) = 0.15097E+01    rms(broyden)= 0.15092E+01
  rms(prec ) = 0.17238E+01
  weight for this iteration     100.00

 eigenvalues of (default mixing * dielectric matrix)
  average eigenvalue GAMMA=   0.4904
  1.3628  1.3628  0.8179  0.8179  0.4412  0.4412  0.3927  0.3927  0.2024  0.1622
  0.1441  0.1183  0.1048  0.1048

 Free energy of the ion-electron system (eV)
  ---------------------------------------------------
  alpha Z        PSCENC =      1956.04352838
  Ewald energy   TEWEN  =    -36886.34880422
  -Hartree energ DENC   =    -18660.75098552
  -exchange      EXHF   =         0.00000000
  -V(xc)+E(xc)   XCENC  =      2541.91021509
  PAW double counting   =     59784.13508122   -61947.58479268
  entropy T*S    EENTRO =        -0.07608407
  eigenvalues    EBANDS =     -2102.45563700
  atomic energy  EATOM  =     54747.78018348
  Solvation  Ediel_sol  =         0.00000000
  ---------------------------------------------------
  free energy    TOTEN  =      -567.34729532 eV

  energy without entropy =     -567.27121125  energy(sigma->0) =     -567.30925329


--------------------------------------------------------------------------------------------------------




--------------------------------------- Iteration      1(  20)  ---------------------------------------


    POTLOK:  cpu time    0.2257: real time    0.2262
    SETDIJ:  cpu time    0.0287: real time    0.0288
     EDDAV:  cpu time    5.4493: real time    5.4622
    CHARGE:  cpu time    0.2593: real time    0.2599
    MIXING:  cpu time    0.0083: real time    0.0084
    --------------------------------------------
      LOOP:  cpu time    5.9713: real time    5.9855

 eigenvalue-minimisations  :  2144
 total energy-change (2. order) :-0.2483172E+01  (-0.6427008E+00)
 number of electron     629.9999917 magnetization      18.7091756
 augmentation part      207.8577831 magnetization      14.3226384

 Broyden mixing:
  rms(total) = 0.16402E+01    rms(broyden)= 0.16398E+01
  rms(prec ) = 0.18679E+01
  weight for this iteration     100.00

 eigenvalues of (default mixing * dielectric matrix)
  average eigenvalue GAMMA=   0.5190
  1.6902  1.6902  0.7538  0.7538  0.5432  0.5432  0.3934  0.3934  0.2272  0.1832
  0.1559  0.1315  0.1178  0.1041  0.1041

 Free energy of the ion-electron system (eV)
  ---------------------------------------------------
  alpha Z        PSCENC =      1956.04352838
  Ewald energy   TEWEN  =    -36886.34880422
  -Hartree energ DENC   =    -18653.92960196
  -exchange      EXHF   =         0.00000000
  -V(xc)+E(xc)   XCENC  =      2540.81972598
  PAW double counting   =     59896.83332197   -62058.03675498
  entropy T*S    EENTRO =        -0.05866315
  eigenvalues    EBANDS =     -2112.93340249
  atomic energy  EATOM  =     54747.78018348
  Solvation  Ediel_sol  =         0.00000000
  ---------------------------------------------------
  free energy    TOTEN  =      -569.83046700 eV

  energy without entropy =     -569.77180385  energy(sigma->0) =     -569.80113542


--------------------------------------------------------------------------------------------------------




--------------------------------------- Iteration      1(  21)  ---------------------------------------


    POTLOK:  cpu time    0.2255: real time    0.2261
    SETDIJ:  cpu time    0.0284: real time    0.0284
     EDDAV:  cpu time    5.6068: real time    5.6201
    CHARGE:  cpu time    0.2621: real time    0.2627
    MIXING:  cpu time    0.0086: real time    0.0087
    --------------------------------------------
      LOOP:  cpu time    6.1314: real time    6.1460

 eigenvalue-minimisations  :  2224
 total energy-change (2. order) :-0.6445149E+00  (-0.2508211E+00)
 number of electron     629.9999916 magnetization      17.7332447
 augmentation part      207.9545255 magnetization      13.7194572

 Broyden mixing:
  rms(total) = 0.10377E+01    rms(broyden)= 0.10373E+01
  rms(prec ) = 0.11725E+01
  weight for this iteration     100.00

 eigenvalues of (default mixing * dielectric matrix)
  average eigenvalue GAMMA=   0.5236
  1.7790  1.7790  0.7437  0.7437  0.6110  0.6110  0.3959  0.3959  0.3367  0.2182
  0.1685  0.1364  0.1364  0.1166  0.1026  0.1026

 Free energy of the ion-electron system (eV)
  ---------------------------------------------------
  alpha Z        PSCENC =      1956.04352838
  Ewald energy   TEWEN  =    -36886.34880422
  -Hartree energ DENC   =    -18649.45977044
  -exchange      EXHF   =         0.00000000
  -V(xc)+E(xc)   XCENC  =      2540.14164927
  PAW double counting   =     60008.55943893   -62168.41846545
  entropy T*S    EENTRO =        -0.07784454
  eigenvalues    EBANDS =     -2118.69489725
  atomic energy  EATOM  =     54747.78018348
  Solvation  Ediel_sol  =         0.00000000
  ---------------------------------------------------
  free energy    TOTEN  =      -570.47498186 eV

  energy without entropy =     -570.39713731  energy(sigma->0) =     -570.43605959


--------------------------------------------------------------------------------------------------------




--------------------------------------- Iteration      1(  22)  ---------------------------------------


    POTLOK:  cpu time    0.2252: real time    0.2258
    SETDIJ:  cpu time    0.0285: real time    0.0286
     EDDAV:  cpu time    5.5458: real time    5.5590
    CHARGE:  cpu time    0.2618: real time    0.2624
    MIXING:  cpu time    0.0091: real time    0.0091
    --------------------------------------------
      LOOP:  cpu time    6.0705: real time    6.0849

 eigenvalue-minimisations  :  2192
 total energy-change (2. order) :-0.4082182E+00  (-0.1387785E+00)
 number of electron     629.9999916 magnetization      16.6445741
 augmentation part      207.9727993 magnetization      12.6827339

 Broyden mixing:
  rms(total) = 0.10878E+01    rms(broyden)= 0.10876E+01
  rms(prec ) = 0.12048E+01
  weight for this iteration     100.00

 eigenvalues of (default mixing * dielectric matrix)
  average eigenvalue GAMMA=   0.5126
  1.8086  1.8086  0.7732  0.7732  0.6256  0.6256  0.4039  0.4039  0.3600  0.2278
  0.1692  0.1413  0.1332  0.1332  0.1187  0.1037  0.1037

 Free energy of the ion-electron system (eV)
  ---------------------------------------------------
  alpha Z        PSCENC =      1956.04352838
  Ewald energy   TEWEN  =    -36886.34880422
  -Hartree energ DENC   =    -18648.46583079
  -exchange      EXHF   =         0.00000000
  -V(xc)+E(xc)   XCENC  =      2539.96314354
  PAW double counting   =     60071.62419991   -62231.94861931
  entropy T*S    EENTRO =        -0.07720350
  eigenvalues    EBANDS =     -2119.45379753
  atomic energy  EATOM  =     54747.78018348
  Solvation  Ediel_sol  =         0.00000000
  ---------------------------------------------------
  free energy    TOTEN  =      -570.88320004 eV

  energy without entropy =     -570.80599654  energy(sigma->0) =     -570.84459829


--------------------------------------------------------------------------------------------------------




--------------------------------------- Iteration      1(  23)  ---------------------------------------


    POTLOK:  cpu time    0.2257: real time    0.2263
    SETDIJ:  cpu time    0.0287: real time    0.0287
     EDDAV:  cpu time    5.5122: real time    5.5255
    CHARGE:  cpu time    0.2613: real time    0.2619
    MIXING:  cpu time    0.0092: real time    0.0092
    --------------------------------------------
      LOOP:  cpu time    6.0372: real time    6.0517

 eigenvalue-minimisations  :  2176
 total energy-change (2. order) :-0.2034557E+00  (-0.8029487E-01)
 number of electron     629.9999916 magnetization      15.8673634
 augmentation part      208.0341993 magnetization      11.9073161

 Broyden mixing:
  rms(total) = 0.79514E+00    rms(broyden)= 0.79490E+00
  rms(prec ) = 0.87323E+00
  weight for this iteration     100.00

 eigenvalues of (default mixing * dielectric matrix)
  average eigenvalue GAMMA=   0.5108
  1.5719  1.5719  1.3866  0.7011  0.7011  0.4139  0.4139  0.4548  0.4548  0.4086
  0.2080  0.1846  0.1473  0.1330  0.1223  0.1155  0.1024  0.1024

 Free energy of the ion-electron system (eV)
  ---------------------------------------------------
  alpha Z        PSCENC =      1956.04352838
  Ewald energy   TEWEN  =    -36886.34880422
  -Hartree energ DENC   =    -18647.24439207
  -exchange      EXHF   =         0.00000000
  -V(xc)+E(xc)   XCENC  =      2539.81694625
  PAW double counting   =     60151.87598847   -62312.81286740
  entropy T*S    EENTRO =        -0.08235345
  eigenvalues    EBANDS =     -2120.11488514
  atomic energy  EATOM  =     54747.78018348
  Solvation  Ediel_sol  =         0.00000000
  ---------------------------------------------------
  free energy    TOTEN  =      -571.08665569 eV

  energy without entropy =     -571.00430224  energy(sigma->0) =     -571.04547897


--------------------------------------------------------------------------------------------------------




--------------------------------------- Iteration      1(  24)  ---------------------------------------


    POTLOK:  cpu time    0.2252: real time    0.2258
    SETDIJ:  cpu time    0.0287: real time    0.0288
     EDDAV:  cpu time    5.4148: real time    5.4277
    CHARGE:  cpu time    0.2621: real time    0.2627
    MIXING:  cpu time    0.0095: real time    0.0095
    --------------------------------------------
      LOOP:  cpu time    5.9403: real time    5.9544

 eigenvalue-minimisations  :  2128
 total energy-change (2. order) :-0.2546691E+00  (-0.6614569E-01)
 number of electron     629.9999916 magnetization      14.8359999
 augmentation part      208.1232187 magnetization      10.8675705

 Broyden mixing:
  rms(total) = 0.77748E+00    rms(broyden)= 0.77730E+00
  rms(prec ) = 0.85949E+00
[...]
   -.233E+01 0.346E+02 0.345E+03   0.235E+01 -.376E+02 -.366E+03   -.248E-01 0.301E+01 0.211E+02   0.175E-03 0.189E-01 -.510E-02
   -.264E+02 0.311E+02 -.352E+03   0.287E+02 -.325E+02 0.374E+03   -.233E+01 0.147E+01 -.223E+02   -.170E-01 0.425E-03 0.197E-01
   0.129E+02 0.367E+02 0.346E+03   -.134E+02 -.402E+02 -.367E+03   0.496E+00 0.343E+01 0.208E+02   -.121E-01 0.603E-02 -.860E-01
   0.246E+02 0.325E+02 -.362E+03   -.269E+02 -.340E+02 0.382E+03   0.227E+01 0.156E+01 -.196E+02   0.467E-02 -.125E-01 -.115E+00
   0.159E+02 0.376E+02 0.362E+03   -.161E+02 -.404E+02 -.382E+03   0.226E+00 0.275E+01 0.196E+02   -.798E-02 -.396E-02 0.110E+00
 -----------------------------------------------------------------------------------------------
   -.653E-01 -.117E+00 0.486E-01   -.174E-12 0.497E-13 -.625E-12   0.672E-01 0.134E+00 -.365E-01   -.104E-02 0.237E-04 -.123E-01
 
 
 POSITION                                       TOTAL-FORCE (eV/Angst)
 -----------------------------------------------------------------------------------
     -4.12698      7.13847      7.18146        -0.009914     -0.016690      0.002190
      1.40004      0.83216     11.97656        -0.000446      0.007692     -0.000771
     -0.01104      1.60099      2.39453        -0.001848     -0.004097     -0.000460
     -1.38285      2.43939      7.17956         0.006528      0.003487      0.000442
     -1.50661      4.20038      2.39713        -0.013654      0.000213      0.005865
     -1.31744      5.54781     11.98621         0.009055      0.000722      0.004631
      2.98679      1.60735      2.39196         0.008271     -0.010347     -0.005580
      2.90231      3.40859     11.96884         0.009236      0.003374     -0.003563
      0.09710      5.02816      7.18705        -0.002681      0.010323      0.003570
      6.84219      0.80656     11.97404        -0.007664     -0.014742     -0.001935
      4.06010      2.44343      7.16956        -0.003854      0.007709     -0.005637
      2.72897      6.35161      2.39473        -0.000395      0.002164     -0.000483
     -4.19148      7.28850      0.00391         0.006120     -0.002951     -0.000625
      1.39651      0.80598      4.81344        -0.007058     -0.001996      0.003457
      0.01733      1.65104      9.57785        -0.000009     -0.002101      0.000644
      7.02686      2.42547     14.34291         0.001009     -0.005948     -0.002840
      0.02524      3.23842      4.79138        -0.001579      0.002902      0.002128
     -1.42626      4.05392      9.58777         0.005117      0.007682      0.005536
      5.60859      4.87629     14.34894        -0.002998      0.003899     -0.000475
     -1.40334      5.69033      4.81256         0.001279     -0.002700      0.005597
     -2.81543      6.49445      9.57800         0.004315      0.001019      0.004881
      2.80804      0.01363      0.02922        -0.000271     -0.001229     -0.001903
      4.22799      0.80293      4.80781         0.003665     -0.001540     -0.000241
      2.82051      1.60221      9.56749        -0.008991     -0.005322      0.003029
      1.38795      2.45141     14.36405         0.004760      0.000232     -0.002786
      2.80133      3.25024      4.76666         0.000454      0.000851     -0.003480
      1.39764      4.04140      9.57768        -0.004991     -0.001195      0.000599
      0.00948      4.86204      0.02250         0.000167      0.002052      0.003438
      1.40598      5.67919      4.78890         0.007307      0.002115     -0.000925
     -0.00632      6.50602      9.60234        -0.003913     -0.007093      0.005618
      1.39563      7.30036      0.02502        -0.001333     -0.002337      0.001160
      7.00290      0.82582      4.78526        -0.003262      0.004686      0.001371
      5.62819      1.61990      9.57743         0.008967     -0.004245      0.001720
      4.22585      2.44041     14.34318        -0.003867      0.000665     -0.005312
      5.63404      3.25228      4.76042        -0.001004      0.001207      0.000811
      4.23365      4.05744      9.55284         0.003723      0.006108      0.000004
      2.81064      4.86820      0.00032        -0.000594      0.006940      0.001457
      4.21978      5.67012      4.76386        -0.000161     -0.001634     -0.000484
      2.81017      6.48803      9.57786        -0.002067      0.000261      0.001146
      0.01936      0.07724     10.58178        -0.002597     -0.000045      0.002410
      8.34577      0.01404      3.77650         0.002174      0.004196     -0.000775
      1.40668      0.87211      1.00270         0.006775      0.002862     -0.001967
      1.38224      0.79590      8.60899        -0.002572     -0.000596     -0.003010
     -0.04891      1.60310      5.78618        -0.002342      0.004312      0.003273
      0.00834      1.56921     13.36934         0.003426      0.000092     -0.003237
      7.02532      2.40812     10.54755         0.000626     -0.001810      0.002799
     -1.35292      2.46577      3.78595        -0.000866      0.008267      0.001669
     -0.04498      3.21668      0.98245         0.001632     -0.004041      0.001694
     -0.03868      3.27498      8.59781        -0.000643     -0.000033     -0.002301
     -1.31380      4.05569      5.80804         0.011719      0.009286      0.008680
     -1.39637      4.13598     13.39374        -0.002081     -0.008297     -0.003480
     -2.79770      4.88646     10.53696        -0.000271     -0.001021      0.001715
     -2.75662      4.85166      3.83269         0.002116      0.003157      0.001015
     -1.41934      5.59694      0.97829        -0.001960     -0.011148      0.005015
     -1.38205      5.66822      8.62514        -0.001973      0.002406      0.000685
     -2.85454      6.50635      5.74142        -0.001310     -0.000902      0.006708
     -2.76432      6.52068     13.38606         0.002435     -0.002415      0.000647
     -1.44023      7.28985     10.57905        -0.001049      0.002039      0.001757
      2.81478      0.03032      3.85667        -0.001923     -0.008205     -0.000405
      4.17515      0.84946      0.95616         0.002661      0.003107     -0.001035
      4.22732      0.83087      8.61845        -0.000354     -0.001394     -0.008414
      2.87606      1.66865      5.76215        -0.006616     -0.005888      0.003070
      2.76532      1.70041     13.34732         0.001488      0.014915     -0.008699
      1.45183      2.41425     10.55770         0.003534     -0.001465     -0.000203
      1.40398      2.38020      3.80626        -0.005160     -0.000056     -0.001682
      2.81155      3.20276      0.95627         0.000329      0.007448     -0.001513
      2.88700      3.18773      8.59186         0.000796     -0.001544     -0.010022
      1.39065      4.06931      5.74563         0.008080     -0.000230      0.004014
      1.42497      4.04970     13.41030        -0.004067      0.006271     -0.002901
     -0.08662      4.90494     10.56383        -0.003082      0.001238      0.002607
     -0.03657      4.84741      3.83254         0.007614      0.004630      0.000035
      1.43030      5.68851      0.97091        -0.001498      0.001135      0.002449
      1.33745      5.64317      8.64075        -0.001171      0.000259     -0.002530
      0.00795      6.46737      5.76110         0.006227      0.002778      0.007128
     -0.03298      6.47191     13.44268        -0.003027     -0.003768      0.000396
      5.66141      0.01504     10.53031         0.000696     -0.001403      0.003472
      1.42290      7.28926      3.83337        -0.000998      0.001561     -0.002267
      7.07827      0.74515      1.01395         0.002965      0.003159      0.001270
      7.08379      0.86911      8.57492         0.002223     -0.001747     -0.005468
      5.62517      1.67698      5.77009        -0.003442      0.001438      0.000261
      5.65810      1.59176     13.41434        -0.000557     -0.001370     -0.005132
      4.19641      2.44748     10.52998         0.001140      0.000191      0.003386
      4.15224      2.38007      3.81107        -0.009248     -0.007375     -0.004413
      5.64511      3.26654      0.93285        -0.005514     -0.006071      0.000292
      5.63011      3.20821      8.57666         0.001590      0.001507     -0.009217
      4.21744      4.01829      5.71311        -0.002027     -0.005066      0.000672
      4.19337      4.05149     13.39491        -0.000887      0.006527     -0.005294
      2.81473      4.78954     10.51481         0.001493     -0.003605      0.002412
      2.80667      4.89419      3.81838         0.000705     -0.000095     -0.004496
      4.19644      5.68788      0.95617         0.002139      0.000459      0.000505
      4.20938      5.72291      8.62596        -0.001847     -0.000309     -0.004972
      2.84662      6.51554      5.74378        -0.002254     -0.002431      0.001846
      2.81543      6.53341     13.41213        -0.000671     -0.001046     -0.000243
 -----------------------------------------------------------------------------------
    total drift:                                0.000923      0.017437     -0.000199


--------------------------------------------------------------------------------------------------------



  FREE ENERGIE OF THE ION-ELECTRON SYSTEM (eV)
  ---------------------------------------------------
  free  energy   TOTEN  =      -571.6069352528 eV

  energy  without entropy=     -571.5460351212  energy(sigma->0) =     -571.57648519
 
 d Force = 0.3688055E-04[ 0.269E-04, 0.469E-04]  d Energy = 0.7391296E-05 0.295E-04
 d Force =-0.1159123E+01[-0.116E+01,-0.116E+01]  d Ewald  = 0.2985760E+00-0.146E+01


--------------------------------------------------------------------------------------------------------


    POTLOK:  cpu time    0.2553: real time    0.2559


--------------------------------------------------------------------------------------------------------


 Quasi-Newton relaxation of ions (Broydens 2nd method)
  g(Force)  = 0.263E-03   g(Stress)= 0.176E-03

 retain information from N=  1 steps
 eigenvalues of (default step * inverse Hessian matrix)
  average eigenvalue of G=   0.1059
 eigenvalue spectrum of G is  0.1059


--------------------------------------------------------------------------------------------------------


  
 reached required accuracy - stopping structural energy minimisation
     LOOP+:  cpu time   48.3481: real time   48.6256
    4ORBIT:  cpu time    0.0000: real time    0.0000

volume of typ            1:    10.6 %

volume of typ            2:    19.4 %

volume of typ            3:     9.9 %
 
total charge     
 
# of ion       s       p       d       tot
------------------------------------------
    1        2.068   0.224   0.085   2.377
    2        2.071   0.234   0.089   2.394
    3        2.071   0.231   0.088   2.390
    4        2.071   0.234   0.089   2.394
    5        2.071   0.234   0.089   2.395
    6        2.073   0.240   0.091   2.404
    7        2.071   0.235   0.089   2.395
    8        2.070   0.230   0.087   2.386
    9        2.070   0.230   0.087   2.387
   10        2.068   0.224   0.085   2.377
   11        2.073   0.240   0.091   2.404
   12        2.069   0.228   0.087   2.383
   13        0.291   0.402   7.839   8.533
   14        0.277   0.372   7.847   8.496
   15        0.292   0.405   7.839   8.536
   16        0.277   0.372   7.847   8.496
   17        0.292   0.404   7.838   8.534
   18        0.291   0.402   7.837   8.531
   19        0.289   0.396   7.832   8.516
   20        0.285   0.389   7.832   8.506
   21        0.289   0.398   7.839   8.525
   22        0.277   0.372   7.848   8.497
   23        0.289   0.396   7.832   8.517
   24        0.291   0.402   7.837   8.531
   25        0.292   0.404   7.838   8.534
   26        0.288   0.394   7.832   8.514
   27        0.274   0.364   7.844   8.483
   28        0.288   0.394   7.832   8.514
   29        0.287   0.393   7.836   8.516
   30        0.286   0.391   7.834   8.512
   31        0.283   0.385   7.834   8.502
   32        0.291   0.402   7.839   8.533
   33        0.289   0.398   7.839   8.527
   34        0.285   0.389   7.832   8.506
   35        0.277   0.372   7.848   8.497
   36        0.286   0.391   7.835   8.512
   37        0.287   0.393   7.836   8.516
   38        0.283   0.385   7.834   8.502
   39        0.269   0.356   7.845   8.470
   40        1.270   2.762   0.006   4.038
   41        1.271   2.763   0.006   4.039
   42        1.266   2.772   0.006   4.044
   43        1.274   2.751   0.007   4.032
   44        1.266   2.771   0.006   4.044
   45        1.266   2.772   0.006   4.044
   46        1.274   2.751   0.007   4.032
   47        1.266   2.772   0.006   4.044
   48        1.266   2.773   0.007   4.046
   49        1.266   2.775   0.007   4.047
   50        1.271   2.760   0.006   4.037
   51        1.276   2.752   0.007   4.035
   52        1.274   2.753   0.007   4.034
   53        1.270   2.767   0.007   4.044
   54        1.276   2.753   0.007   4.035
   55        1.278   2.742   0.007   4.027
   56        1.270   2.766   0.007   4.043
   57        1.266   2.775   0.007   4.047
   58        1.267   2.771   0.007   4.045
   59        1.276   2.748   0.007   4.031
   60        1.270   2.767   0.007   4.044
   61        1.274   2.753   0.007   4.034
   62        1.276   2.752   0.007   4.035
   63        1.271   2.760   0.006   4.037
   64        1.266   2.775   0.007   4.047
   65        1.266   2.773   0.007   4.046
   66        1.278   2.743   0.007   4.027
   67        1.276   2.753   0.007   4.035
   68        1.274   2.754   0.007   4.035
   69        1.274   2.754   0.007   4.035
   70        1.276   2.752   0.007   4.035
   71        1.278   2.743   0.007   4.027
   72        1.271   2.761   0.007   4.040
   73        1.273   2.760   0.007   4.040
   74        1.271   2.762   0.007   4.041
   75        1.275   2.750   0.007   4.033
   76        1.270   2.766   0.007   4.043
   77        1.273   2.755   0.007   4.036
   78        1.271   2.763   0.006   4.039
   79        1.270   2.762   0.006   4.039
   80        1.266   2.775   0.007   4.047
   81        1.270   2.766   0.007   4.043
   82        1.278   2.743   0.007   4.028
   83        1.276   2.753   0.007   4.035
   84        1.276   2.748   0.007   4.031
   85        1.267   2.772   0.007   4.045
   86        1.275   2.750   0.007   4.033
   87        1.271   2.762   0.007   4.041
   88        1.273   2.760   0.007   4.040
   89        1.271   2.761   0.007   4.040
   90        1.273   2.755   0.007   4.035
   91        1.270   2.766   0.007   4.043
   92        1.278   2.743   0.007   4.028
   93        1.278   2.743   0.007   4.028
--------------------------------------------------
tot         101.24  162.31  213.05  476.60
 
magnetization (x)
 
# of ion       s       p       d       tot
------------------------------------------
    1        0.005   0.008   0.000   0.013
    2        0.005   0.009   0.000   0.015
    3        0.005   0.008   0.001   0.014
    4        0.005   0.009   0.000   0.015
    5        0.006   0.012   0.001   0.019
    6        0.007   0.014   0.001   0.021
    7        0.006   0.012   0.001   0.019
    8        0.006   0.011   0.001   0.017
    9        0.006   0.011   0.001   0.017
   10        0.005   0.008   0.000   0.013
   11        0.007   0.014   0.001   0.021
   12        0.005   0.009   0.000   0.014
   13       -0.001  -0.001   0.227   0.226
   14        0.000  -0.000   0.535   0.535
   15       -0.000  -0.000   0.210   0.209
   16        0.000  -0.000   0.536   0.536
   17       -0.000  -0.000   0.211   0.210
   18       -0.000  -0.000   0.216   0.215
   19       -0.001  -0.001   0.214   0.212
   20       -0.001  -0.001   0.267   0.266
   21       -0.000  -0.000   0.253   0.253
   22        0.001  -0.000   0.554   0.554
   23       -0.001  -0.001   0.214   0.213
   24       -0.000  -0.000   0.217   0.216
   25       -0.000  -0.000   0.211   0.210
   26       -0.001  -0.001   0.216   0.215
   27        0.000  -0.001   0.573   0.573
   28       -0.001  -0.001   0.216   0.215
   29       -0.000  -0.000   0.298   0.297
   30       -0.001  -0.001   0.245   0.244
   31       -0.001  -0.001   0.313   0.312
   32       -0.001  -0.001   0.228   0.227
   33       -0.000  -0.000   0.251   0.250
   34       -0.001  -0.001   0.268   0.266
   35        0.001  -0.000   0.553   0.553
   36       -0.001  -0.001   0.245   0.244
   37       -0.000  -0.000   0.297   0.297
   38       -0.001  -0.001   0.313   0.312
   39       -0.000  -0.001   0.623   0.622
   40        0.010   0.069   0.000   0.080
   41        0.012   0.085   0.000   0.097
   42        0.005   0.016   0.000   0.021
   43        0.004   0.016   0.000   0.020
   44        0.005   0.021   0.000   0.027
   45        0.005   0.021   0.000   0.027
   46        0.004   0.016   0.000   0.020
   47        0.005   0.016   0.000   0.021
   48        0.004   0.005   0.000   0.009
   49        0.004   0.010   0.000   0.015
   50        0.012   0.084   0.000   0.096
   51        0.010   0.076   0.000   0.086
   52        0.004   0.009   0.000   0.013
   53        0.005   0.018   0.000   0.023
   54        0.010   0.083   0.000   0.094
   55        0.007   0.052   0.000   0.059
   56        0.004   0.007   0.000   0.012
   57        0.004   0.006   0.000   0.011
   58        0.004   0.002   0.000   0.006
   59        0.008   0.054   0.000   0.062
   60        0.005   0.018   0.000   0.023
   61        0.004   0.009   0.000   0.013
   62        0.010   0.076   0.000   0.086
   63        0.012   0.084   0.000   0.096
   64        0.004   0.010   0.000   0.015
   65        0.004   0.005   0.000   0.009
   66        0.008   0.058   0.000   0.066
   67        0.011   0.094   0.000   0.106
   68        0.004   0.006   0.000   0.010
   69        0.004   0.006   0.000   0.010
   70        0.011   0.094   0.000   0.105
   71        0.008   0.058   0.000   0.066
   72        0.004   0.008   0.000   0.012
   73        0.009   0.069   0.000   0.079
   74        0.003   0.009   0.000   0.012
   75        0.008   0.055   0.000   0.062
   76        0.004   0.013   0.000   0.018
   77        0.004   0.009   0.000   0.013
   78        0.012   0.086   0.000   0.097
   79        0.010   0.069   0.000   0.080
   80        0.004   0.006   0.000   0.011
   81        0.004   0.008   0.000   0.012
   82        0.007   0.051   0.000   0.059
   83        0.010   0.083   0.000   0.094
   84        0.008   0.054   0.000   0.062
   85        0.004   0.002   0.000   0.005
   86        0.008   0.055   0.000   0.062
   87        0.003   0.009   0.000   0.012
   88        0.009   0.069   0.000   0.079
   89        0.004   0.008   0.000   0.012
   90        0.004   0.009   0.000   0.013
   91        0.004   0.013   0.000   0.018
   92        0.009   0.071   0.000   0.080
   93        0.009   0.071   0.000   0.080
--------------------------------------------------
tot           0.41    2.12    8.52   11.06
 

 total amount of memory used by VASP MPI-rank0   145665. kBytes
=======================================================================

   base      :      30000. kBytes
   nonlr-proj:      39861. kBytes
   fftplans  :       9349. kBytes
   grid      :      55332. kBytes
   one-center:       1446. kBytes
   wavefun   :       9677. kBytes
 
  
  
 General timing and accounting informations for this job:
 ========================================================
  
                  Total CPU time used (sec):     1492.387
                            User time (sec):     1483.234
                          System time (sec):        9.152
                         Elapsed time (sec):     1502.593
  
                   Maximum memory used (kb):      214004.
                   Average memory used (kb):           0.
  
                          Minor page faults:        33790
                          Major page faults:           54
                 Voluntary context switches:         1016
