 vasp.5.4.4.18Apr17-6-g9f103f2a35 (build May 12 2020 05:39:39) gamma-only       
  
 MD_VERSION_INFO: Compiled 2020-05-12T12:39:39-UTC in devlin.sd.materialsdesign.
 com:/home/medea2/data/build/wwolf/vasp-gpu5.4.4/13047/x86_64/src/src/build/gam 
 from svn 13047
 
 This VASP executable licensed from Materials Design, Inc.
 
 executed on                        Lin64 date 2023.01.19  23:21:00
 running on   16 total cores
 distrk:  each k-point on   16 cores,    1 groups
 distr:  one band on NCORES_PER_BAND=   1 cores,   16 groups


--------------------------------------------------------------------------------------------------------


 INCAR:
 POTCAR:    PAW_PBE Li_sv 10Sep2004               
 POTCAR:    PAW_PBE Ni 02Aug2007                  
 POTCAR:    PAW_PBE O 08Apr2002                   

 ----------------------------------------------------------------------------- 
|                                                                             |
|           W    W    AA    RRRRR   N    N  II  N    N   GGGG   !!!           |
|           W    W   A  A   R    R  NN   N  II  NN   N  G    G  !!!           |
|           W    W  A    A  R    R  N N  N  II  N N  N  G       !!!           |
|           W WW W  AAAAAA  RRRRR   N  N N  II  N  N N  G  GGG   !            |
|           WW  WW  A    A  R   R   N   NN  II  N   NN  G    G                |
|           W    W  A    A  R    R  N    N  II  N    N   GGGG   !!!           |
|                                                                             |
|      For optimal performance we recommend to set                            |
|        NCORE= 4 - approx SQRT( number of cores)                             |
|      NCORE specifies how many cores store one orbital (NPAR=cpu/NCORE).     |
|      This setting can  greatly improve the performance of VASP for DFT.     |
|      The default,   NCORE=1            might be grossly inefficient         |
|      on modern multi-core architectures or massively parallel machines.     |
|      Do your own testing !!!!                                               |
|      Unfortunately you need to use the default for GW and RPA calculations. |
|      (for HF NCORE is supported but not extensively tested yet)             |
|                                                                             |
 ----------------------------------------------------------------------------- 

 POTCAR:    PAW_PBE Li_sv 10Sep2004               
  local pseudopotential read in
  atomic valenz-charges read in
  non local Contribution for L=           0  read in
    real space projection operators read in
  non local Contribution for L=           0  read in
    real space projection operators read in
  non local Contribution for L=           1  read in
    real space projection operators read in
    PAW grid and wavefunctions read in
 
   number of l-projection  operators is LMAX  =           3
   number of lm-projection operators is LMMAX =           5
 
 POTCAR:    PAW_PBE Ni 02Aug2007                  
  local pseudopotential read in
  partial core-charges read in
  partial kinetic energy density read in
  atomic valenz-charges read in
  non local Contribution for L=           2  read in
    real space projection operators read in
  non local Contribution for L=           2  read in
    real space projection operators read in
  non local Contribution for L=           0  read in
    real space projection operators read in
  non local Contribution for L=           0  read in
    real space projection operators read in
  non local Contribution for L=           1  read in
    real space projection operators read in
  non local Contribution for L=           1  read in
    real space projection operators read in
    PAW grid and wavefunctions read in
 
   number of l-projection  operators is LMAX  =           6
   number of lm-projection operators is LMMAX =          18
 
 POTCAR:    PAW_PBE O 08Apr2002                   
  local pseudopotential read in
  partial core-charges read in
  partial kinetic energy density read in
  kinetic energy density of atom read in
  atomic valenz-charges read in
  non local Contribution for L=           0  read in
    real space projection operators read in
  non local Contribution for L=           0  read in
    real space projection operators read in
  non local Contribution for L=           1  read in
    real space projection operators read in
  non local Contribution for L=           1  read in
    real space projection operators read in
    PAW grid and wavefunctions read in
 
   number of l-projection  operators is LMAX  =           4
   number of lm-projection operators is LMMAX =           8
 
 Optimization of the real space projectors (new method)

 maximal supplied QI-value         = 22.11
 optimisation between [QCUT,QGAM] = [ 11.28, 22.77] = [ 35.61,145.23] Ry 
 Optimized for a Real-space Cutoff    1.10 Angstroem

   l    n(q)    QCUT    max X(q) W(low)/X(q) W(high)/X(q)  e(spline) 
   0      7    11.276    10.506    0.54E-04    0.58E-04    0.16E-07
   0      7    11.276     8.367    0.11E-03    0.14E-03    0.35E-07
   1      7    11.276     8.983    0.23E-03    0.43E-03    0.86E-07
 Optimization of the real space projectors (new method)

 maximal supplied QI-value         = 16.25
 optimisation between [QCUT,QGAM] = [ 11.38, 22.75] = [ 36.24,144.96] Ry 
 Optimized for a Real-space Cutoff    1.47 Angstroem

   l    n(q)    QCUT    max X(q) W(low)/X(q) W(high)/X(q)  e(spline) 
   2      9    11.376    60.317    0.17E-03    0.16E-04    0.16E-06
   2      9    11.376    55.921    0.17E-03    0.16E-04    0.17E-06
   0     10    11.376    51.690    0.45E-04    0.60E-04    0.21E-06
   0     10    11.376    30.015    0.37E-04    0.55E-04    0.19E-06
   1     10    11.376    18.849    0.83E-04    0.11E-03    0.92E-07
   1     10    11.376    14.624    0.69E-04    0.92E-04    0.82E-07
 Optimization of the real space projectors (new method)

 maximal supplied QI-value         = 24.76
 optimisation between [QCUT,QGAM] = [ 11.39, 22.77] = [ 36.31,145.25] Ry 
 Optimized for a Real-space Cutoff    1.10 Angstroem

   l    n(q)    QCUT    max X(q) W(low)/X(q) W(high)/X(q)  e(spline) 
   0      7    11.387    20.381    0.22E-03    0.48E-03    0.18E-06
   0      7    11.387    15.268    0.22E-03    0.52E-03    0.19E-06
   1      7    11.387     5.964    0.22E-03    0.73E-03    0.24E-06
   1      7    11.387     5.382    0.19E-03    0.60E-03    0.21E-06

 ----------------------------------------------------------------------------- 
|                                                                             |
|  ADVICE TO THIS USER RUNNING 'VASP/VAMP'   (HEAR YOUR MASTER'S VOICE ...):  |
|                                                                             |
|      You enforced a specific xc-type in the INCAR file,                     |
|      a different type was found on the POTCAR file                          |
|          I HOPE YOU KNOW, WHAT YOU ARE  DOING                               |
|                                                                             |
 ----------------------------------------------------------------------------- 

  PAW_PBE Li_sv 10Sep2004               :
 energy of atom  1       EATOM= -202.7858
 kinetic energy error for atom=    0.0143 (will be added to EATOM!!)
  PAW_PBE Ni 02Aug2007                  :
 energy of atom  2       EATOM=-1077.6739
 kinetic energy error for atom=    0.0030 (will be added to EATOM!!)
  PAW_PBE O 08Apr2002                   :
 energy of atom  3       EATOM= -432.3788
 kinetic energy error for atom=    0.0224 (will be added to EATOM!!)
 
 
 POSCAR: ce285087_1                              
  positions in direct lattice
  No initial velocities read in
 exchange correlation table for  LEXCH =       14
   RHO(1)=    0.500       N(1)  =     2000
   RHO(2)=  100.500       N(2)  =     4000
 


--------------------------------------------------------------------------------------------------------


 ion  position               nearest neighbor table
   1  0.999  0.500  0.999-  43 2.10  90 2.10  78 2.11  91 2.11  42 2.11  55 2.12
   2  0.112  0.833  0.223-  44 2.10  57 2.10  63 2.11  62 2.11  39 2.11  56 2.12
   3  0.222  0.167  0.111-  40 2.12  41 2.12  64 2.12  77 2.12  46 2.13  47 2.13
   4  0.353  0.500  0.998-  84 2.01  49 2.03  79 2.12  48 2.15  78 2.24  43 2.25  34 2.79  17 2.81

   5  0.467  0.834  0.225-  69 2.01  50 2.03  68 2.12  45 2.15  63 2.24  44 2.25  27 2.79  17 2.81

   6  0.000  0.500  0.352-  60 2.02  73 2.02  54 2.14  61 2.14  42 2.21  55 2.23  29 2.81  22 2.82

   7  0.114  0.833  0.578-  80 2.01  75 2.02  81 2.12  74 2.16  62 2.24  57 2.24  32 2.80  30 2.82

   8  0.887  0.167  0.445-  70 2.10  71 2.11  76 2.12  59 2.13  53 2.13  58 2.13
   9  0.553  0.166  0.777-  83 2.10  82 2.11  65 2.12  88 2.13  52 2.13  89 2.13
  10  0.647  0.500  0.644-  67 2.01  66 2.02  72 2.12  85 2.16  91 2.24  90 2.24  26 2.80  25 2.82

  11  0.760  0.833  0.870-  87 2.02  86 2.02  51 2.14  92 2.14  39 2.21  56 2.23  35 2.81  36 2.82

  12  0.000  0.001  1.000-  77 1.86  92 1.87  56 1.87  41 1.88  89 1.91  44 1.92  30 2.79  21 2.80
                            18 2.81  15 2.81  36 2.81  24 2.82
  13  0.112  0.332  0.223-  64 1.86  61 1.87  55 1.87  40 1.88  58 1.91  43 1.92  25 2.79  37 2.80
                            19 2.81  16 2.81  22 2.81  31 2.82
  14  0.222  0.667  0.111-  63 1.87  78 1.87  45 1.88  48 1.88  39 1.92  42 1.92  23 2.80  38 2.80
                            32 2.81  26 2.81  20 2.82  17 2.83
  15  0.333  1.000  0.999-  50 1.87  77 1.87  47 1.89  80 1.90  83 1.92  44 1.94  30 2.80  12 2.81
                            33 2.81  18 2.81  27 2.81  24 2.84
  16  0.445  0.334  0.223-  49 1.87  64 1.87  46 1.89  67 1.90  70 1.92  43 1.94  25 2.80  13 2.81
                            28 2.81  19 2.81  34 2.81  31 2.84
  17  0.558  0.667  0.111-  45 1.88  48 1.88  69 1.88  84 1.88  51 1.90  54 1.90  20 2.78  35 2.79
                            29 2.79   5 2.81   4 2.81  26 2.82  32 2.82  14 2.83
  18  0.668  1.000  0.002-  83 1.87  86 1.87  89 1.88  53 1.90  50 1.90  56 1.90  21 2.78  27 2.80
                            12 2.81  15 2.81  33 2.82  36 2.83
  19  0.777  0.334  0.220-  70 1.87  73 1.87  58 1.88  52 1.90  49 1.90  55 1.90  37 2.78  34 2.80
                            13 2.81  16 2.81  28 2.82  22 2.83
  20  0.887  0.667  0.111-  51 1.86  54 1.86  39 1.88  42 1.88  57 1.92  90 1.92  17 2.78  29 2.80
                            35 2.80  14 2.82  38 2.82  23 2.82
  21  0.998  0.001  0.332-  53 1.86  62 1.87  59 1.88  74 1.88  41 1.90  56 1.91  18 2.78  12 2.80
                            24 2.80  27 2.81  33 2.82  30 2.83
  22  0.113  0.333  0.557-  61 1.87  76 1.87  73 1.88  58 1.88  82 1.90  79 1.90  25 2.79  31 2.79
                            34 2.80  13 2.81  28 2.81   6 2.82  19 2.83
  23  0.224  0.665  0.444-  81 1.87  60 1.88  57 1.88  66 1.89  63 1.91  42 1.91  26 2.79  14 2.80
                            35 2.80  20 2.82  32 2.82  29 2.83
  24  0.334  0.001  0.336-  47 1.87  68 1.88  44 1.88  41 1.88  65 1.89  62 1.91  33 2.78  36 2.79
                            21 2.80  27 2.82  12 2.82  15 2.84
  25  0.443  0.332  0.554-  82 1.87  88 1.88  67 1.88  85 1.88  61 1.90  64 1.90  13 2.79  22 2.79
                            16 2.80  34 2.82  10 2.82  28 2.82  37 2.83
  26  0.555  0.668  0.444-  69 1.87  66 1.87  72 1.87  63 1.91  87 1.91  48 1.91  23 2.79  10 2.80
                            29 2.81  14 2.81  35 2.82  17 2.82  38 2.82
  27  0.666  0.001  0.333-  53 1.87  71 1.87  68 1.87  50 1.88  47 1.91  74 1.91   5 2.79  36 2.80
                            18 2.80  21 2.81  15 2.81  24 2.82  30 2.82
  28  0.779  0.334  0.556-  67 1.87  76 1.87  70 1.87  91 1.91  73 1.93  88 1.93  31 2.78  16 2.81
                            22 2.81  37 2.82  25 2.82  19 2.82
  29  0.888  0.668  0.444-  75 1.87  54 1.87  60 1.88  69 1.90  72 1.91  57 1.93  17 2.79  38 2.80
                            20 2.80  26 2.81   6 2.81  32 2.82  23 2.83
  30  1.000  0.001  0.668-  71 1.87  59 1.88  80 1.88  74 1.88  92 1.90  77 1.90  12 2.79  36 2.79
                            15 2.80  27 2.82   7 2.82  33 2.82  21 2.83
  31  0.108  0.332  0.886-  46 1.87  79 1.88  43 1.88  40 1.88  76 1.89  91 1.91  28 2.78  22 2.79
                            37 2.80  34 2.82  13 2.82  16 2.84
  32  0.222  0.665  0.778-  84 1.87  75 1.87  81 1.87  78 1.91  60 1.91  45 1.91  38 2.79   7 2.80
                            35 2.81  14 2.81  29 2.82  17 2.82  23 2.82
  33  0.333  1.000  0.666-  80 1.87  65 1.87  83 1.87  62 1.91  86 1.93  59 1.93  24 2.78  15 2.81
                            36 2.81  21 2.82  30 2.82  18 2.82
  34  0.444  0.332  0.889-  52 1.87  82 1.87  79 1.87  49 1.88  46 1.91  85 1.91   4 2.79  22 2.80
                            19 2.80  37 2.81  16 2.81  31 2.82  25 2.82
  35  0.555  0.665  0.778-  66 1.87  51 1.87  87 1.88  84 1.90  81 1.91  90 1.93  17 2.79  23 2.80
                            20 2.80  32 2.81  11 2.81  26 2.82  38 2.83
  36  0.667  0.001  0.665-  92 1.87  65 1.87  86 1.88  89 1.88  71 1.90  68 1.90  30 2.79  24 2.79
                            27 2.80  12 2.81  33 2.81  11 2.82  18 2.83
  37  0.778  0.332  0.891-  52 1.86  91 1.87  88 1.88  85 1.88  40 1.90  55 1.91  19 2.78  13 2.80
                            31 2.80  34 2.81  28 2.82  25 2.83
  38  0.891  0.668  0.778-  72 1.87  87 1.88  90 1.88  75 1.89  78 1.91  39 1.91  32 2.79  14 2.80
                            29 2.80  20 2.82  26 2.82  35 2.83
  39  0.998  0.737  0.004-  20 1.88  38 1.91  14 1.92   2 2.11  11 2.21
  40  0.003  0.265  0.002-  13 1.88  31 1.88  37 1.90   3 2.12
  41  0.113  0.069  0.221-  12 1.88  24 1.88  21 1.90   3 2.12
  42  0.105  0.596  0.219-  20 1.88  23 1.91  14 1.92   1 2.11   6 2.21
  43  0.216  0.403  0.103-  31 1.88  13 1.92  16 1.94   1 2.10   4 2.25
  44  0.223  0.930  0.119-  24 1.88  12 1.92  15 1.94   2 2.10   5 2.25
  45  0.336  0.734  0.004-  17 1.88  14 1.88  32 1.91   5 2.15
  46  0.330  0.266  0.001-  31 1.87  16 1.89  34 1.91   3 2.13
  47  0.440  0.068  0.221-  24 1.87  15 1.89  27 1.91   3 2.13
  48  0.443  0.599  0.218-  17 1.88  14 1.88  26 1.91   4 2.15
  49  0.552  0.400  0.109-  16 1.87  34 1.88  19 1.90   4 2.03
  50  0.553  0.933  0.113-  15 1.87  27 1.88  18 1.90   5 2.03
  51  0.668  0.734  0.997-  20 1.86  35 1.87  17 1.90  11 2.14
  52  0.665  0.265  0.997-  37 1.86  34 1.87  19 1.90   9 2.13
  53  0.779  0.068  0.225-  21 1.86  27 1.87  18 1.90   8 2.13
  54  0.782  0.599  0.225-  20 1.86  29 1.87  17 1.90   6 2.14
  55  0.894  0.403  0.114-  13 1.87  19 1.90  37 1.91   1 2.12   6 2.23
  56  0.892  0.931  0.108-  12 1.87  18 1.90  21 1.91   2 2.12  11 2.23
  57  0.007  0.737  0.336-  23 1.88  20 1.92  29 1.93   2 2.10   7 2.24
  58  0.998  0.265  0.335-  22 1.88  19 1.88  13 1.91   8 2.13
  59  0.106  0.068  0.553-  30 1.88  21 1.88  33 1.93   8 2.13
  60  0.108  0.599  0.550-  23 1.88  29 1.88  32 1.91   6 2.02
  61  0.219  0.400  0.443-  22 1.87  13 1.87  25 1.90   6 2.14
  62  0.216  0.931  0.441-  21 1.87  24 1.91  33 1.91   2 2.11   7 2.24
  63  0.330  0.737  0.328-  14 1.87  26 1.91  23 1.91   2 2.11   5 2.24
  64  0.331  0.266  0.328-  13 1.86  16 1.87  25 1.90   3 2.12
  65  0.447  0.068  0.560-  33 1.87  36 1.87  24 1.89   9 2.12
  66  0.449  0.599  0.557-  35 1.87  26 1.87  23 1.89  10 2.02
  67  0.558  0.400  0.449-  28 1.87  25 1.88  16 1.90  10 2.01
  68  0.554  0.933  0.441-  27 1.87  24 1.88  36 1.90   5 2.12
  69  0.663  0.735  0.332-  26 1.87  17 1.88  29 1.90   5 2.01
  70  0.673  0.266  0.336-  19 1.87  28 1.87  16 1.92   8 2.10
  71  0.779  0.068  0.554-  27 1.87  30 1.87  36 1.90   8 2.11
  72  0.775  0.600  0.558-  38 1.87  26 1.87  29 1.91  10 2.12
  73  0.892  0.401  0.441-  19 1.87  22 1.88  28 1.93   6 2.02
  74  0.892  0.933  0.447-  30 1.88  21 1.88  27 1.91   7 2.16
  75  0.003  0.734  0.665-  29 1.87  32 1.87  38 1.89   7 2.02
  76  0.998  0.266  0.662-  28 1.87  22 1.87  31 1.89   8 2.12
  77  0.114  0.068  0.894-  12 1.86  15 1.87  30 1.90   3 2.12
  78  0.113  0.597  0.894-  14 1.87  32 1.91  38 1.91   1 2.11   4 2.24
  79  0.224  0.400  0.782-  34 1.87  31 1.88  22 1.90   4 2.12
  80  0.220  0.933  0.773-  33 1.87  30 1.88  15 1.90   7 2.01
  81  0.328  0.733  0.664-  23 1.87  32 1.87  35 1.91   7 2.12
  82  0.337  0.265  0.668-  34 1.87  25 1.87  22 1.90   9 2.11
  83  0.449  0.067  0.886-  18 1.87  33 1.87  15 1.92   9 2.10
  84  0.442  0.598  0.891-  32 1.87  17 1.88  35 1.90   4 2.01
  85  0.557  0.400  0.775-  25 1.88  37 1.88  34 1.91  10 2.16
  86  0.562  0.932  0.781-  18 1.87  36 1.88  33 1.93  11 2.02
  87  0.668  0.734  0.672-  38 1.88  35 1.88  26 1.91  11 2.02
  88  0.663  0.265  0.669-  25 1.88  37 1.88  28 1.93   9 2.13
  89  0.774  0.068  0.887-  36 1.88  18 1.88  12 1.91   9 2.13
  90  0.782  0.596  0.887-  38 1.88  20 1.92  35 1.93   1 2.10  10 2.24
  91  0.886  0.402  0.781-  37 1.87  31 1.91  28 1.91   1 2.11  10 2.24
  92  0.887  0.933  0.780-  36 1.87  12 1.87  30 1.90  11 2.14
 
  LATTYP: Found a base centered monoclinic cell.
 ALAT       =    14.5922551466
 B/A-ratio  =     0.5775220297
 C/A-ratio  =     2.2241860070
 COS(beta)  =    -0.7783947776
  
  Lattice vectors:
  
 A1 = (   4.2117941746,   7.2972126595,  -0.0027307716)
 A2 = (   8.4254685480,  -0.0010855147,  -0.0027307716)
 A3 = ( -25.2699822247, -14.5896313104, -14.2111024675)


Analysis of symmetry for initial positions (statically):
=====================================================================
 Subroutine PRICEL returns:
 Original cell was already a primitive cell.
 

 Routine SETGRP: Setting up the symmetry group for a 
 base centered monoclinic supercell.


 Subroutine GETGRP returns: Found  2 space group operations
 (whereof  1 operations were pure point group operations)
 out of a pool of  4 trial point group operations.


The static configuration has the point symmetry C_1 .
 The point group associated with its full space group is C_2 .


Analysis of symmetry for dynamics (positions and initial velocities):
=====================================================================
 Subroutine PRICEL returns:
 Original cell was already a primitive cell.
 

 Routine SETGRP: Setting up the symmetry group for a 
 base centered monoclinic supercell.


 Subroutine GETGRP returns: Found  2 space group operations
 (whereof  1 operations were pure point group operations)
 out of a pool of  4 trial point group operations.


The dynamic configuration has the point symmetry C_1 .
 The point group associated with its full space group is C_2 .


Analysis of structural, dynamic, and magnetic symmetry:
=====================================================================
 Subroutine PRICEL returns:
 Original cell was already a primitive cell.
 

 Routine SETGRP: Setting up the symmetry group for a 
 base centered monoclinic supercell.


 Subroutine GETGRP returns: Found  2 space group operations
 (whereof  1 operations were pure point group operations)
 out of a pool of  4 trial point group operations.


The magnetic configuration has the point symmetry C_1 .
 The point group associated with its full space group is C_2 .


 Subroutine INISYM returns: Found  2 space group operations
 (whereof  1 operations are pure point group operations),
 and found     1 'primitive' translations

 
 
 KPOINTS: Automatic mesh                          

Automatic generation of k-mesh.
Space group operators:
 irot       det(A)        alpha          n_x          n_y          n_z        tau_x        tau_y        tau_z
    1     1.000000     0.000000     1.000000     0.000000     0.000000     0.000000     0.000000     0.000000
    2     1.000000   180.000000    -0.500000     0.866025    -0.000000    -0.888889    -0.666667    -1.777778
 
 Subroutine IBZKPT returns following result:
 ===========================================
 
 Found      1 irreducible k-points:
 
 Following reciprocal coordinates:
            Coordinates               Weight
  0.000000  0.000000  0.000000      1.000000
 
 Following cartesian coordinates:
            Coordinates               Weight
  0.000000  0.000000  0.000000      1.000000
 


--------------------------------------------------------------------------------------------------------




 Dimension of arrays:
   k-points           NKPTS =      1   k-points in BZ     NKDIM =      1   number of bands    NBANDS=    416
   number of dos      NEDOS =    301   number of ions     NIONS =     92
   non local maximal  LDIM  =      6   non local SUM 2l+1 LMDIM =     18
   total plane-waves  NPLWV = 442368
   max r-space proj   IRMAX =   6841   max aug-charges    IRDMAX=  16595
   dimension x,y,z NGX =    64 NGY =  108 NGZ =   64
   dimension x,y,z NGXF=   128 NGYF=  216 NGZF=  128
   support grid    NGXF=   128 NGYF=  216 NGZF=  128
   ions per type =              11  27  54
   NGX,Y,Z   is equivalent  to a cutoff of  12.63, 12.62, 12.63 a.u.
   NGXF,Y,Z  is equivalent  to a cutoff of  25.25, 25.25, 25.26 a.u.

 SYSTEM =  unknown system                          
 POSCAR =  ce285087_1                              

 Startparameter for this run:
   NWRITE =      1    write-flag & timer
   PREC   = accura    normal or accurate (medium, high low for compatibility)
   ISTART =      0    job   : 0-new  1-cont  2-samecut
   ICHARG =      2    charge: 1-file 2-atom 10-const
   ISPIN  =      2    spin polarized calculation?
   LNONCOLLINEAR =      F non collinear calculations
   LSORBIT =      F    spin-orbit coupling
   INIWAV =      1    electr: 0-lowe 1-rand  2-diag
   LASPH  =      F    aspherical Exc in radial PAW
   METAGGA=      F    non-selfconsistent MetaGGA calc.

 Electronic Relaxation 1
   ENCUT  =  500.0 eV  36.75 Ry    6.06 a.u.  15.36 25.93 15.36*2*pi/ulx,y,z
   ENINI  =  500.0     initial cutoff
   ENAUG  =  628.9 eV  augmentation charge cutoff
   NELM   =     80;   NELMIN=  2; NELMDL= -5     # of ELM steps 
   EDIFF  = 0.1E-04   stopping-criterion for ELM
   LREAL  =      T    real-space projection
   NLSPLINE    = F    spline interpolate recip. space projectors
   LCOMPAT=      F    compatible to vasp.4.4
   GGA_COMPAT  = T    GGA compatible to vasp.4.4-vasp.4.6
   LMAXPAW     = -100 max onsite density
   LMAXMIX     =    2 max onsite mixed and CHGCAR
   VOSKOWN=      1    Vosko Wilk Nusair interpolation
   ROPT   =   -0.00025  -0.00025  -0.00025
 Ionic relaxation
   EDIFFG = -.2E-01   stopping-criterion for IOM
   NSW    =     20    number of steps for IOM
   NBLOCK =      1;   KBLOCK =     20    inner block; outer block 
   IBRION =      1    ionic relax: 0-MD 1-quasi-New 2-CG
   NFREE  =      0    steps in history (QN), initial steepest desc. (CG)
   ISIF   =      3    stress and relaxation
   IWAVPR =     11    prediction:  0-non 1-charg 2-wave 3-comb
   ISYM   =      2    0-nonsym 1-usesym 2-fastsym
   LCORR  =      T    Harris-Foulkes like correction to forces

   POTIM  = 0.5000    time-step for ionic-motion
   TEIN   =    0.0    initial temperature
   TEBEG  =    0.0;   TEEND  =   0.0 temperature during run
   SMASS  =  -3.00    Nose mass-parameter (am)
   estimated Nose-frequenzy (Omega)   =  0.10E-29 period in steps =****** mass=  -0.162E-26a.u.
   SCALEE = 1.0000    scale energy and forces
   NPACO  =    256;   APACO  = 16.0  distance and # of slots for P.C.
   PSTRESS=    0.0 pullay stress

  Mass of Ions in am
   POMASS =   7.01 58.69 16.00
  Ionic Valenz
   ZVAL   =   3.00 10.00  6.00
  Atomic Wigner-Seitz radii
   RWIGS  =   1.23  1.15  0.73
  virtual crystal weights 
   VCA    =   1.00  1.00  1.00
   NELECT =     627.0000    total number of electrons
   NUPDOWN=      -1.0000    fix difference up-down

 DOS related values:
   EMIN   =  10.00;   EMAX   =-10.00  energy-range for DOS
   EFERMI =   0.00
   ISMEAR =     0;   SIGMA  =   0.05  broadening in eV -4-tet -1-fermi 0-gaus

 Electronic relaxation 2 (details)
   IALGO  =     38    algorithm
   LDIAG  =      T    sub-space diagonalisation (order eigenvalues)
   LSUBROT=      F    optimize rotation matrix (better conditioning)
   TURBO    =      0    0=normal 1=particle mesh
   IRESTART =      0    0=no restart 2=restart with 2 vectors
   NREBOOT  =      0    no. of reboots
   NMIN     =      0    reboot dimension
   EREF     =   0.00    reference energy to select bands
   IMIX   =      4    mixing-type and parameters
     AMIX     =   0.40;   BMIX     =  1.00
     AMIX_MAG =   1.60;   BMIX_MAG =  1.00
     AMIN     =   0.10
     WC   =   100.;   INIMIX=   1;  MIXPRE=   1;  MAXMIX= -45

 Intra band minimization:
   WEIMIN = 0.0010     energy-eigenvalue tresh-hold
   EBREAK =  0.60E-08  absolut break condition
   DEPER  =   0.30     relativ break condition  

   TIME   =   0.40     timestep for ELM

  volume/ion in A,a.u.               =       9.51        64.14
  Fermi-wavevector in a.u.,A,eV,Ry     =   1.465264  2.768947 29.211673  2.146997
  Thomas-Fermi vector in A             =   2.581141
 
 Write flags
   LWAVE        =      F    write WAVECAR
   LDOWNSAMPLE  =      F    k-point downsampling of WAVECAR
   LCHARG       =      T    write CHGCAR
   LVTOT        =      F    write LOCPOT, total local potential
   LVHAR        =      F    write LOCPOT, Hartree potential only
   LELF         =      F    write electronic localiz. function (ELF)
   LORBIT       =      0    0 simple, 1 ext, 2 COOP (PROOUT), +10 PAW based schemes


 Dipole corrections
   LMONO  =      F    monopole corrections only (constant potential shift)
   LDIPOL =      F    correct potential (dipole corrections)
   IDIPOL =      0    1-x, 2-y, 3-z, 4-all directions 
   EPSILON=  1.0000000 bulk dielectric constant

 Exchange correlation treatment:
   GGA     =    PS    GGA type
   LEXCH   =    14    internal setting for exchange type
   VOSKOWN=      1    Vosko Wilk Nusair interpolation
   LHFCALC =     F    Hartree Fock is set to
   LHFONE  =     F    Hartree Fock one center treatment
   AEXX    =    0.0000 exact exchange contribution

 Linear response parameters
   LEPSILON=     F    determine dielectric tensor
   LRPA    =     F    only Hartree local field effects (RPA)
   LNABLA  =     F    use nabla operator in PAW spheres
   LVEL    =     F    velocity operator in full k-point grid
   LINTERFAST=   F  fast interpolation
   KINTER  =     0    interpolate to denser k-point grid
   CSHIFT  =0.1000    complex shift for real part using Kramers Kronig
   OMEGAMAX=  -1.0    maximum frequency
   DEG_THRESHOLD= 0.2000000E-02 threshold for treating states as degnerate
   RTIME   =   -0.100 relaxation time in fs
  (WPLASMAI=    0.000 imaginary part of plasma frequency in eV, 0.658/RTIME)
   DFIELD  = 0.0000000 0.0000000 0.0000000 field for delta impulse in time
 
 Orbital magnetization related:
   ORBITALMAG=     F  switch on orbital magnetization
   LCHIMAG   =     F  perturbation theory with respect to B field
   DQ        =  0.001000  dq finite difference perturbation B field
   LLRAUG    =     F  two centre corrections for induced B field



--------------------------------------------------------------------------------------------------------


 quasi-Newton-method for relaxation of ions
 charge density and potential will be updated during run
 spin polarized calculation
 Variant of blocked Davidson
 Davidson routine will perform the subspace rotation
 perform sub-space diagonalisation
    after iterative eigenvector-optimisation
 modified Broyden-mixing scheme, WC =      100.0
 initial mixing is a Kerker type mixing with AMIX =  0.4000 and BMIX =      1.0000
 Hartree-type preconditioning will be used
 using additional bands          102
 real space projection scheme for non local part
 use partial core corrections
 calculate Harris-corrections to forces 
   (improved forces if not selfconsistent)
 use gradient corrections 
 use of overlap-Matrix (Vanderbilt PP)
 Gauss-broadening in eV      SIGMA  =   0.05


--------------------------------------------------------------------------------------------------------


  energy-cutoff  :      500.00
  volume of cell :      874.47
      direct lattice vectors                 reciprocal lattice vectors
    -4.213674373  7.298298174  0.000000000     0.000017663  0.137028441  0.000025278
    -0.004543221 -0.002622979 14.222025554     0.000022791  0.000013158  0.070313482
     8.425468548 -0.001085515 -0.002730772     0.118696607  0.068529517  0.000050557

  length of vectors
     8.427348810 14.222026522  8.425469060     0.137028445  0.070313487  0.137059045


 
 k-points in units of 2pi/SCALE and weight: Automatic mesh                          
   0.00000000  0.00000000  0.00000000       1.000
 
 k-points in reciprocal lattice and weights: Automatic mesh                          
   0.00000000  0.00000000  0.00000000       1.000
 
 position of ions in fractional coordinates (direct lattice) 
   0.99944539  0.49991491  0.99874511
   0.11181139  0.83341842  0.22347711
   0.22150326  0.16666667  0.11111111
   0.35320010  0.49964328  0.99764675
   0.46666446  0.83369005  0.22457547
   0.00049946  0.50026641  0.35189549
   0.11408016  0.83289793  0.57807377
   0.88669492  0.16699132  0.44484570
   0.55296033  0.16634202  0.77737652
   0.64711751  0.50043540  0.64414846
   0.75971508  0.83306692  0.87032673
   0.00008998  0.00098840  0.99960278
   0.11159831  0.33234493  0.22261944
   0.22164164  0.66666667  0.11111111
   0.33315965  0.99962657  0.99913882
   0.44513194  0.33370676  0.22308340
   0.55754868  0.66666667  0.11111111
   0.66797690  0.99950559  0.00179957
   0.77728844  0.33382774  0.22042265
   0.88746288  0.66666667  0.11111111
   0.99845651  0.00125476  0.33153524
   0.11287861  0.33263934  0.55678903
   0.22384122  0.66537053  0.44402079
   0.33361473  0.00096424  0.33627632
   0.44256962  0.33238223  0.55378548
   0.55474077  0.66793391  0.44411841
   0.66633495  0.00088639  0.33317577
   0.77863811  0.33365819  0.55634840
   0.88764012  0.66783785  0.44398362
   0.99989526  0.00095110  0.66843675
   0.10844952  0.33236909  0.88594590
   0.22173347  0.66539943  0.77810381
   0.33340083  0.99967514  0.66587383
   0.44427028  0.33244694  0.88904645
   0.55476761  0.66549549  0.77823860
   0.66720070  0.00069399  0.66543320
   0.77803238  0.33207857  0.89068698
   0.89093154  0.66796281  0.77820143
   0.99772093  0.73688238  0.00350847
   0.00329955  0.26475337  0.00171467
   0.11269599  0.06857996  0.22050755
   0.10532357  0.59645095  0.21871375
   0.21580663  0.40297016  0.10341960
   0.22349813  0.93036318  0.11880262
   0.33618013  0.73392505  0.00406234
   0.33001094  0.26573874  0.00110149
   0.44002056  0.06759459  0.22112073
   0.44322890  0.59940828  0.21815988
   0.55178202  0.40046486  0.10945158
   0.55344155  0.93286848  0.11277064
   0.66823562  0.73383849  0.99742548
   0.66515322  0.26535669  0.99732861
   0.77893572  0.06797664  0.22489361
   0.78192125  0.59949484  0.22479674
   0.89431789  0.40258236  0.11388078
   0.89154822  0.93075098  0.10834144
   0.00668990  0.73688902  0.33562272
   0.99770983  0.26523767  0.33480887
   0.10577674  0.06836660  0.55347113
   0.10771485  0.59899962  0.55033142
   0.21871186  0.40015223  0.44268877
   0.21569702  0.93095614  0.44101210
   0.32995017  0.73653032  0.32788305
   0.33138983  0.26568907  0.32825747
   0.44660521  0.06770367  0.56011679
   0.44853718  0.59931289  0.55687395
   0.55842352  0.40025869  0.44927279
   0.55372084  0.93297255  0.44063153
   0.66292770  0.73486628  0.33158504
   0.67334721  0.26638184  0.33575476
   0.77935877  0.06848914  0.55379374
   0.77503280  0.60035441  0.55782616
   0.89246634  0.40102052  0.44136297
   0.89248790  0.93326162  0.44679850
   0.00277436  0.73402044  0.66534828
   0.99759954  0.26562966  0.66210544
   0.11424347  0.06764426  0.89396475
   0.11317824  0.59680301  0.89433917
   0.22420041  0.40036079  0.78159069
   0.22026182  0.93307465  0.77294943
   0.32831775  0.73297892  0.66439607
   0.33667614  0.26484419  0.66842849
   0.44870356  0.06695149  0.88646746
   0.44245376  0.59846705  0.89063718
   0.55680051  0.40007172  0.77542372
   0.56221448  0.93231282  0.78085925
   0.66849455  0.73433371  0.67189081
   0.66341673  0.26496673  0.66875110
   0.77401208  0.06809566  0.88741335
   0.78217829  0.59644431  0.88659950
   0.88579603  0.40237720  0.78121012
   0.88713420  0.93318111  0.77953345
 
 position of ions in cartesian coordinates  (Angst):
   4.20128686  7.29185505  7.10707528
   1.40797617  0.81360424 11.85228780
   0.00206335  1.61603906  2.37003422
   6.91510111  2.57536613  7.10321515
  -0.07800615  3.40342584 11.85614793
   2.96050700  0.00195103  7.11384072
   4.38606168  0.82977884 11.84391706
   0.01103111  6.47044301  2.37374005
   4.21901092  4.03438920  2.36359762
   2.69823653  4.72084468  7.11544602
   4.12793372  5.54149731 11.84552236
   8.42173815 -0.00043098  0.01132736
   1.40392423  0.81336435  4.72601016
  -0.00079135  1.61573751  9.48104700
   7.00984490  2.42779189 14.21398620
   0.00242502  3.24758816  4.74537688
  -1.41619424  4.06728725  9.48104700
  -2.80401590  4.87247095 14.21498913
  -1.41959293  5.67176791  4.74710473
  -2.80634525  6.47509945  9.48104700
  -1.41383657  7.28667015  0.01693988
   4.21406350  0.82234484  4.72928473
   2.79486626  1.63143272  9.46170416
   1.42753734  2.43445221  0.01279515
   2.79954779  3.22853208  4.72563631
   1.40137416  4.04642948  9.49816035
  -0.00056056  4.86274716  0.01169643
   1.40505261  5.68125399  4.74377604
  -0.00249053  6.47602859  9.49679455
   1.41865546  7.29680566  0.01170122
   7.00602833  0.78966343  4.72454238
   5.61855348  1.61568701  9.46120287
   4.20091473  2.42991373 14.21558704
   5.61711223  3.24057990  4.72564109
   4.21639129  4.04626906  9.46256867
   2.79521685  4.86870549  0.00805280
   4.22457133  5.67647441  4.72039765
   2.79958157  6.49968723  9.49765906
  -4.17785843  7.27972821 10.47995046
  -0.00065916  0.02338480  3.76532451
   1.38270365  0.82206969  0.97474379
   1.39625679  0.76688092  8.48214340
  -0.03981106  1.57385189  5.73076950
   0.05499255  1.62858671 13.23132450
  -1.38566086  2.45161335 10.43788972
  -1.38248538  2.40782002  3.77934014
   0.00863530  3.21098392  0.96072816
  -0.03224629  3.23300762  8.52420413
  -1.40466831  4.02590049  5.69512259
  -1.38611522  4.03661215 13.26697141
   5.58471571  4.87397524 10.43394602
   5.59901618  4.85270789  3.77118615
  -1.38765628  5.68448272  0.96615138
  -1.40346731  5.70487795  8.52541707
  -2.81069447  6.52581904  5.72522563
  -2.84809510  6.50422580 13.23686837
   2.79624176  0.04652772 10.47913796
  -1.38430777  7.28052468  3.77130263
   4.21723425  0.77121006  0.97080013
   4.18020338  0.78396654  8.51748507
   2.80646177  1.59469423  5.68976636
   2.80262703  1.57130056 13.23887771
   1.36891953  2.40578690 10.47405766
   1.36814707  2.41752857  3.77774035
   2.83708988  3.25867239  0.96135377
   2.79921152  3.27138160  8.52192254
   1.43050042  4.07400379  5.69126246
   1.37508908  4.03829432 13.26755618
  -0.00294080  4.83595654 10.45038153
  -0.00958494  4.91322553  3.78757247
   1.38169650  5.68721189  0.97254202
   1.43148338  5.65424022  8.53673246
  -0.04369465  6.51195449  5.70211882
  -0.00040670  6.51070988 13.27165050
   5.59084594  0.01760054 10.43744054
   1.37378213  7.27936344  3.77598375
   7.05037978  0.83263507  0.95959718
   7.05561889  0.82347232  8.48530542
   5.63874133  1.63438288  5.69180704
   5.58011036  1.60424996 13.26810077
   4.21109402  2.39351704 10.42263062
   4.21197635  2.45574259  3.76479551
   5.57790884  3.27363449  0.94976506
   5.63696051  3.22662290  8.50898155
   4.18531451  4.06180503  5.68771272
   4.20588060  4.09991584 13.25724440
   2.84084029  4.87621706 10.44187801
   2.83791548  4.84039217  3.76653740
   4.21512903  5.64782904  0.96603489
   4.17146181  5.70604351  8.48022512
   2.84777718  6.46290011  5.72048551
   2.82560027  6.47127600 13.26959687
 


--------------------------------------------------------------------------------------------------------


 use serial FFT for orbitals x direction half grid
 k-point  1 :   0.0000 0.0000 0.0000  plane waves:   11104

 maximum and minimum number of plane-waves per node :     11104    11104

 maximum number of plane-waves:     11104
 maximum index in each direction: 
   IXMAX=   15   IYMAX=   25   IZMAX=   13
   IXMIN=    0   IYMIN=  -25   IZMIN=  -15

 The following grids will avoid any aliasing or wrap around errors in the Hartre
 e energy
  - symmetry arguments have not been applied
  - exchange correlation energies might require even more grid points
  - we recommend to set PREC=Normal or Accurate and rely on VASP defaults
 NGX is ok and might be reduce to    64
 NGY is ok and might be reduce to   108
 NGZ is ok and might be reduce to    60

 serial   3D FFT for wavefunctions
 parallel 3D FFT for charge:
    minimum data exchange during FFTs selected (reduces bandwidth)


 total amount of memory used by VASP MPI-rank0   145561. kBytes
=======================================================================

   base      :      30000. kBytes
   nonlr-proj:      39806. kBytes
   fftplans  :       9349. kBytes
   grid      :      55332. kBytes
   one-center:       1430. kBytes
   wavefun   :       9644. kBytes
 
     INWAV:  cpu time    0.0000: real time    0.0000
 Broyden mixing: mesh for mixing (old mesh)
   NGX = 31   NGY = 51   NGZ = 31
  (NGX  =128   NGY  =216   NGZ  =128)
  gives a total of  49011 points

 initial charge density was supplied:
 charge density of overlapping atoms calculated
 number of electron     627.0000000 magnetization      67.5000000
 keeping initial charge density in first step


--------------------------------------------------------------------------------------------------------


 Maximum index for non-local projection operator         6599
 Maximum index for augmentation-charges         1086 (set IRDMAX)


--------------------------------------------------------------------------------------------------------


 First call to EWALD:  gamma=   0.185
 Maximum number of real-space cells 3x 2x 3
 Maximum number of reciprocal cells 2x 4x 2

    FEWALD:  cpu time    0.0036: real time    0.0036


--------------------------------------- Iteration      1(   1)  ---------------------------------------


    POTLOK:  cpu time    0.2579: real time    0.2601
    SETDIJ:  cpu time    0.0278: real time    0.0278
     EDDAV:  cpu time    4.5643: real time    4.6006
    --------------------------------------------
      LOOP:  cpu time    4.8505: real time    4.8891

 eigenvalue-minimisations  :  1680
 total energy-change (2. order) : 0.1126947E+05  (-0.2887868E+05)
 number of electron     627.0000000 magnetization      67.5000000
 augmentation part      627.0000000 magnetization      67.5000000

 Free energy of the ion-electron system (eV)
  ---------------------------------------------------
  alpha Z        PSCENC =      1944.50601801
  Ewald energy   TEWEN  =    -36513.33836478
  -Hartree energ DENC   =    -19326.58421644
  -exchange      EXHF   =         0.00000000
  -V(xc)+E(xc)   XCENC  =      2547.45853180
  PAW double counting   =     45535.01588895   -47585.20232930
  entropy T*S    EENTRO =        -0.01514720
  eigenvalues    EBANDS =     10120.86571283
  atomic energy  EATOM  =     54546.76284294
  Solvation  Ediel_sol  =         0.00000000
  ---------------------------------------------------
  free energy    TOTEN  =     11269.46893681 eV

  energy without entropy =    11269.48408402  energy(sigma->0) =    11269.47651042


--------------------------------------------------------------------------------------------------------




--------------------------------------- Iteration      1(   2)  ---------------------------------------


     EDDAV:  cpu time    4.7172: real time    4.7285
    --------------------------------------------
      LOOP:  cpu time    4.7170: real time    4.7282

 eigenvalue-minimisations  :  1760
 total energy-change (2. order) :-0.9121468E+04  (-0.8321644E+04)
 number of electron     627.0000000 magnetization      67.5000000
 augmentation part      627.0000000 magnetization      67.5000000

 Free energy of the ion-electron system (eV)
  ---------------------------------------------------
  alpha Z        PSCENC =      1944.50601801
  Ewald energy   TEWEN  =    -36513.33836478
  -Hartree energ DENC   =    -19326.58421644
  -exchange      EXHF   =         0.00000000
  -V(xc)+E(xc)   XCENC  =      2547.45853180
  PAW double counting   =     45535.01588895   -47585.20232930
  entropy T*S    EENTRO =        -0.00566024
  eigenvalues    EBANDS =       999.38815328
  atomic energy  EATOM  =     54546.76284294
  Solvation  Ediel_sol  =         0.00000000
  ---------------------------------------------------
  free energy    TOTEN  =      2148.00086423 eV

  energy without entropy =     2148.00652447  energy(sigma->0) =     2148.00369435


--------------------------------------------------------------------------------------------------------




--------------------------------------- Iteration      1(   3)  ---------------------------------------


     EDDAV:  cpu time    4.9247: real time    4.9365
    --------------------------------------------
      LOOP:  cpu time    4.9248: real time    4.9365

 eigenvalue-minimisations  :  1856
 total energy-change (2. order) :-0.2485674E+04  (-0.2095827E+04)
 number of electron     627.0000000 magnetization      67.5000000
 augmentation part      627.0000000 magnetization      67.5000000

 Free energy of the ion-electron system (eV)
  ---------------------------------------------------
  alpha Z        PSCENC =      1944.50601801
  Ewald energy   TEWEN  =    -36513.33836478
  -Hartree energ DENC   =    -19326.58421644
  -exchange      EXHF   =         0.00000000
  -V(xc)+E(xc)   XCENC  =      2547.45853180
  PAW double counting   =     45535.01588895   -47585.20232930
  entropy T*S    EENTRO =        -0.13105965
  eigenvalues    EBANDS =     -1486.16056600
  atomic energy  EATOM  =     54546.76284294
  Solvation  Ediel_sol  =         0.00000000
  ---------------------------------------------------
  free energy    TOTEN  =      -337.67325447 eV

  energy without entropy =     -337.54219481  energy(sigma->0) =     -337.60772464


--------------------------------------------------------------------------------------------------------




--------------------------------------- Iteration      1(   4)  ---------------------------------------


     EDDAV:  cpu time    5.0354: real time    5.0474
    --------------------------------------------
      LOOP:  cpu time    5.0354: real time    5.0474

 eigenvalue-minimisations  :  1920
 total energy-change (2. order) :-0.3977145E+03  (-0.3819466E+03)
 number of electron     627.0000000 magnetization      67.5000000
 augmentation part      627.0000000 magnetization      67.5000000

 Free energy of the ion-electron system (eV)
  ---------------------------------------------------
  alpha Z        PSCENC =      1944.50601801
  Ewald energy   TEWEN  =    -36513.33836478
  -Hartree energ DENC   =    -19326.58421644
  -exchange      EXHF   =         0.00000000
  -V(xc)+E(xc)   XCENC  =      2547.45853180
  PAW double counting   =     45535.01588895   -47585.20232930
  entropy T*S    EENTRO =        -0.33823374
  eigenvalues    EBANDS =     -1883.66793976
  atomic energy  EATOM  =     54546.76284294
  Solvation  Ediel_sol  =         0.00000000
  ---------------------------------------------------
  free energy    TOTEN  =      -735.38780231 eV

  energy without entropy =     -735.04956857  energy(sigma->0) =     -735.21868544


--------------------------------------------------------------------------------------------------------




--------------------------------------- Iteration      1(   5)  ---------------------------------------


     EDDAV:  cpu time    6.0053: real time    6.0196
    CHARGE:  cpu time    0.3425: real time    0.3433
    MIXING:  cpu time    0.0050: real time    0.0050
    --------------------------------------------
      LOOP:  cpu time    6.3524: real time    6.3676

 eigenvalue-minimisations  :  2400
 total energy-change (2. order) :-0.1913442E+02  (-0.1892991E+02)
 number of electron     626.9999923 magnetization      71.8158426
 augmentation part      185.4176642 magnetization      51.0255304

 Broyden mixing:
  rms(total) = 0.15914E+02    rms(broyden)= 0.15913E+02
  rms(prec ) = 0.17494E+02
  weight for this iteration     100.00

 Free energy of the ion-electron system (eV)
  ---------------------------------------------------
  alpha Z        PSCENC =      1944.50601801
  Ewald energy   TEWEN  =    -36513.33836478
  -Hartree energ DENC   =    -19326.58421644
  -exchange      EXHF   =         0.00000000
  -V(xc)+E(xc)   XCENC  =      2547.45853180
  PAW double counting   =     45535.01588895   -47585.20232930
  entropy T*S    EENTRO =        -0.33188739
  eigenvalues    EBANDS =     -1902.80870712
  atomic energy  EATOM  =     54546.76284294
  Solvation  Ediel_sol  =         0.00000000
  ---------------------------------------------------
  free energy    TOTEN  =      -754.52222332 eV

  energy without entropy =     -754.19033593  energy(sigma->0) =     -754.35627963


--------------------------------------------------------------------------------------------------------




--------------------------------------- Iteration      1(   6)  ---------------------------------------


    POTLOK:  cpu time    0.2264: real time    0.2269
    SETDIJ:  cpu time    0.0286: real time    0.0287
     EDDAV:  cpu time    6.3153: real time    6.3303
    CHARGE:  cpu time    0.3313: real time    0.3320
    MIXING:  cpu time    0.0051: real time    0.0051
    --------------------------------------------
      LOOP:  cpu time    6.9065: real time    6.9230

 eigenvalue-minimisations  :  2544
 total energy-change (2. order) :-0.1020551E+03  (-0.1748942E+03)
 number of electron     626.9999896 magnetization      68.1730911
 augmentation part      234.2341682 magnetization      63.5717213

 Broyden mixing:
  rms(total) = 0.29246E+02    rms(broyden)= 0.29245E+02
  rms(prec ) = 0.31614E+02
  weight for this iteration     100.00

 eigenvalues of (default mixing * dielectric matrix)
  average eigenvalue GAMMA=   0.2284
  0.2284

 Free energy of the ion-electron system (eV)
  ---------------------------------------------------
  alpha Z        PSCENC =      1944.50601801
  Ewald energy   TEWEN  =    -36513.33836478
  -Hartree energ DENC   =    -18424.34652733
  -exchange      EXHF   =         0.00000000
  -V(xc)+E(xc)   XCENC  =      2578.44836203
  PAW double counting   =     50295.36914040   -52052.17626308
  entropy T*S    EENTRO =        -0.08749417
  eigenvalues    EBANDS =     -3231.71502274
  atomic energy  EATOM  =     54546.76284294
  Solvation  Ediel_sol  =         0.00000000
  ---------------------------------------------------
  free energy    TOTEN  =      -856.57730873 eV

  energy without entropy =     -856.48981456  energy(sigma->0) =     -856.53356164


--------------------------------------------------------------------------------------------------------




--------------------------------------- Iteration      1(   7)  ---------------------------------------


    POTLOK:  cpu time    0.2261: real time    0.2266
    SETDIJ:  cpu time    0.0285: real time    0.0286
     EDDAV:  cpu time    5.7292: real time    5.7428
    CHARGE:  cpu time    0.3302: real time    0.3310
    MIXING:  cpu time    0.0053: real time    0.0053
    --------------------------------------------
      LOOP:  cpu time    6.3194: real time    6.3344

 eigenvalue-minimisations  :  2256
 total energy-change (2. order) : 0.1751648E+03  (-0.5366250E+02)
 number of electron     626.9999882 magnetization      63.7715515
 augmentation part      230.6512725 magnetization      59.8402596

 Broyden mixing:
  rms(total) = 0.17016E+02    rms(broyden)= 0.17014E+02
  rms(prec ) = 0.19447E+02
  weight for this iteration     100.00

 eigenvalues of (default mixing * dielectric matrix)
  average eigenvalue GAMMA=   0.3577
  0.3577  0.3577

 Free energy of the ion-electron system (eV)
  ---------------------------------------------------
  alpha Z        PSCENC =      1944.50601801
  Ewald energy   TEWEN  =    -36513.33836478
  -Hartree energ DENC   =    -18644.16040574
  -exchange      EXHF   =         0.00000000
  -V(xc)+E(xc)   XCENC  =      2555.29446227
  PAW double counting   =     51916.01922445   -53818.85311977
  entropy T*S    EENTRO =        -0.04934331
  eigenvalues    EBANDS =     -2667.59380071
  atomic energy  EATOM  =     54546.76284294
  Solvation  Ediel_sol  =         0.00000000
  ---------------------------------------------------
  free energy    TOTEN  =      -681.41248663 eV

  energy without entropy =     -681.36314332  energy(sigma->0) =     -681.38781498


--------------------------------------------------------------------------------------------------------




--------------------------------------- Iteration      1(   8)  ---------------------------------------


    POTLOK:  cpu time    0.2259: real time    0.2264
    SETDIJ:  cpu time    0.0285: real time    0.0286
     EDDAV:  cpu time    5.9545: real time    5.9686
    CHARGE:  cpu time    0.3296: real time    0.3304
    MIXING:  cpu time    0.0056: real time    0.0057
    --------------------------------------------
      LOOP:  cpu time    6.5441: real time    6.5596

 eigenvalue-minimisations  :  2368
 total energy-change (2. order) :-0.1126049E+03  (-0.2865134E+02)
 number of electron     626.9999910 magnetization      58.4664409
 augmentation part      208.7689907 magnetization      56.7090938

 Broyden mixing:
  rms(total) = 0.21184E+02    rms(broyden)= 0.21182E+02
  rms(prec ) = 0.31164E+02
  weight for this iteration     100.00

 eigenvalues of (default mixing * dielectric matrix)
  average eigenvalue GAMMA=   0.3706
  0.4860  0.4860  0.1399

 Free energy of the ion-electron system (eV)
  ---------------------------------------------------
  alpha Z        PSCENC =      1944.50601801
  Ewald energy   TEWEN  =    -36513.33836478
  -Hartree energ DENC   =    -18872.14215352
  -exchange      EXHF   =         0.00000000
  -V(xc)+E(xc)   XCENC  =      2544.62019482
  PAW double counting   =     53381.08683894   -55419.25639707
  entropy T*S    EENTRO =        -0.01788764
  eigenvalues    EBANDS =     -2406.23849635
  atomic energy  EATOM  =     54546.76284294
  Solvation  Ediel_sol  =         0.00000000
  ---------------------------------------------------
  free energy    TOTEN  =      -794.01740464 eV

  energy without entropy =     -793.99951700  energy(sigma->0) =     -794.00846082


--------------------------------------------------------------------------------------------------------




--------------------------------------- Iteration      1(   9)  ---------------------------------------


    POTLOK:  cpu time    0.2256: real time    0.2262
    SETDIJ:  cpu time    0.0286: real time    0.0287
     EDDAV:  cpu time    5.5985: real time    5.6118
    CHARGE:  cpu time    0.3308: real time    0.3316
    MIXING:  cpu time    0.0059: real time    0.0059
    --------------------------------------------
      LOOP:  cpu time    6.1894: real time    6.2041

 eigenvalue-minimisations  :  2192
 total energy-change (2. order) : 0.1281400E+03  (-0.2822644E+02)
 number of electron     626.9999898 magnetization      51.6144971
 augmentation part      198.3731787 magnetization      47.4675888

 Broyden mixing:
  rms(total) = 0.16086E+02    rms(broyden)= 0.16084E+02
  rms(prec ) = 0.18917E+02
  weight for this iteration     100.00

 eigenvalues of (default mixing * dielectric matrix)
  average eigenvalue GAMMA=   0.3849
  0.5907  0.5907  0.2490  0.1093

 Free energy of the ion-electron system (eV)
  ---------------------------------------------------
  alpha Z        PSCENC =      1944.50601801
  Ewald energy   TEWEN  =    -36513.33836478
  -Hartree energ DENC   =    -18882.08253260
  -exchange      EXHF   =         0.00000000
  -V(xc)+E(xc)   XCENC  =      2539.79411279
  PAW double counting   =     54632.96921714   -56715.90838463
  entropy T*S    EENTRO =        -0.07805402
  eigenvalues    EBANDS =     -2218.50222816
  atomic energy  EATOM  =     54546.76284294
  Solvation  Ediel_sol  =         0.00000000
  ---------------------------------------------------
  free energy    TOTEN  =      -665.87737330 eV

  energy without entropy =     -665.79931928  energy(sigma->0) =     -665.83834629


--------------------------------------------------------------------------------------------------------




--------------------------------------- Iteration      1(  10)  ---------------------------------------


    POTLOK:  cpu time    0.2255: real time    0.2260
    SETDIJ:  cpu time    0.0286: real time    0.0286
     EDDAV:  cpu time    5.7261: real time    5.7398
    CHARGE:  cpu time    0.3371: real time    0.3379
    MIXING:  cpu time    0.0058: real time    0.0058
    --------------------------------------------
      LOOP:  cpu time    6.3231: real time    6.3381

 eigenvalue-minimisations  :  2256
 total energy-change (2. order) : 0.2750589E+02  (-0.1452314E+02)
 number of electron     626.9999923 magnetization      48.5117157
 augmentation part      202.3612806 magnetization      38.1704148

 Broyden mixing:
  rms(total) = 0.14886E+02    rms(broyden)= 0.14885E+02
  rms(prec ) = 0.17727E+02
  weight for this iteration     100.00

 eigenvalues of (default mixing * dielectric matrix)
  average eigenvalue GAMMA=   0.3627
  0.6208  0.6208  0.2609  0.1806  0.1305

 Free energy of the ion-electron system (eV)
  ---------------------------------------------------
  alpha Z        PSCENC =      1944.50601801
  Ewald energy   TEWEN  =    -36513.33836478
  -Hartree energ DENC   =    -18750.22199507
  -exchange      EXHF   =         0.00000000
  -V(xc)+E(xc)   XCENC  =      2535.78347232
  PAW double counting   =     56306.28990452   -58402.62976580
  entropy T*S    EENTRO =        -0.10782235
  eigenvalues    EBANDS =     -2305.41577039
  atomic energy  EATOM  =     54546.76284294
  Solvation  Ediel_sol  =         0.00000000
  ---------------------------------------------------
  free energy    TOTEN  =      -638.37148060 eV

  energy without entropy =     -638.26365824  energy(sigma->0) =     -638.31756942


--------------------------------------------------------------------------------------------------------




--------------------------------------- Iteration      1(  11)  ---------------------------------------


    POTLOK:  cpu time    0.2269: real time    0.2274
    SETDIJ:  cpu time    0.0285: real time    0.0286
     EDDAV:  cpu time    5.3959: real time    5.4087
    CHARGE:  cpu time    0.3295: real time    0.3303
    MIXING:  cpu time    0.0064: real time    0.0064
    --------------------------------------------
      LOOP:  cpu time    5.9872: real time    6.0014

 eigenvalue-minimisations  :  2096
 total energy-change (2. order) : 0.6387751E+02  (-0.1517647E+02)
 number of electron     626.9999893 magnetization      42.9820009
 augmentation part      209.1718129 magnetization      38.0516019

 Broyden mixing:
  rms(total) = 0.61872E+01    rms(broyden)= 0.61858E+01
  rms(prec ) = 0.75109E+01
  weight for this iteration     100.00

 eigenvalues of (default mixing * dielectric matrix)
  average eigenvalue GAMMA=   0.4516
  0.8967  0.8967  0.3217  0.3217  0.1190  0.1537

 Free energy of the ion-electron system (eV)
  ---------------------------------------------------
  alpha Z        PSCENC =      1944.50601801
  Ewald energy   TEWEN  =    -36513.33836478
  -Hartree energ DENC   =    -18736.40579008
  -exchange      EXHF   =         0.00000000
  -V(xc)+E(xc)   XCENC  =      2534.61016879
  PAW double counting   =     57312.11014148   -59431.03596080
  entropy T*S    EENTRO =        -0.11253558
  eigenvalues    EBANDS =     -2231.59048843
  atomic energy  EATOM  =     54546.76284294
  Solvation  Ediel_sol  =         0.00000000
  ---------------------------------------------------
  free energy    TOTEN  =      -574.49396844 eV

  energy without entropy =     -574.38143286  energy(sigma->0) =     -574.43770065


--------------------------------------------------------------------------------------------------------




--------------------------------------- Iteration      1(  12)  ---------------------------------------


    POTLOK:  cpu time    0.2255: real time    0.2261
    SETDIJ:  cpu time    0.0284: real time    0.0284
     EDDAV:  cpu time    5.7178: real time    5.7313
    CHARGE:  cpu time    0.3303: real time    0.3311
    MIXING:  cpu time    0.0064: real time    0.0064
    --------------------------------------------
      LOOP:  cpu time    6.3084: real time    6.3233

 eigenvalue-minimisations  :  2256
 total energy-change (2. order) :-0.5001590E+01  (-0.1234122E+02)
 number of electron     626.9999915 magnetization      39.8265691
 augmentation part      204.4634625 magnetization      35.4681844

 Broyden mixing:
  rms(total) = 0.11108E+02    rms(broyden)= 0.11107E+02
  rms(prec ) = 0.13081E+02
  weight for this iteration     100.00

 eigenvalues of (default mixing * dielectric matrix)
  average eigenvalue GAMMA=   0.4473
  0.9883  0.9883  0.3481  0.3481  0.2013  0.1222  0.1344

 Free energy of the ion-electron system (eV)
  ---------------------------------------------------
  alpha Z        PSCENC =      1944.50601801
  Ewald energy   TEWEN  =    -36513.33836478
  -Hartree energ DENC   =    -18792.79982049
  -exchange      EXHF   =         0.00000000
  -V(xc)+E(xc)   XCENC  =      2534.91709265
  PAW double counting   =     57948.76602526   -60092.99291954
  entropy T*S    EENTRO =        -0.05914093
  eigenvalues    EBANDS =     -2155.25729152
  atomic energy  EATOM  =     54546.76284294
  Solvation  Ediel_sol  =         0.00000000
  ---------------------------------------------------
  free energy    TOTEN  =      -579.49555839 eV

  energy without entropy =     -579.43641746  energy(sigma->0) =     -579.46598793


--------------------------------------------------------------------------------------------------------




--------------------------------------- Iteration      1(  13)  ---------------------------------------


    POTLOK:  cpu time    0.2264: real time    0.2269
    SETDIJ:  cpu time    0.0288: real time    0.0288
     EDDAV:  cpu time    5.6213: real time    5.6346
    CHARGE:  cpu time    0.3287: real time    0.3295
    MIXING:  cpu time    0.0065: real time    0.0065
    --------------------------------------------
      LOOP:  cpu time    6.2116: real time    6.2263

 eigenvalue-minimisations  :  2208
 total energy-change (2. order) : 0.1295278E+02  (-0.2098079E+02)
 number of electron     626.9999891 magnetization      36.7629671
 augmentation part      205.6511182 magnetization      33.9987332

 Broyden mixing:
  rms(total) = 0.56576E+01    rms(broyden)= 0.56565E+01
  rms(prec ) = 0.63983E+01
  weight for this iteration     100.00

 eigenvalues of (default mixing * dielectric matrix)
  average eigenvalue GAMMA=   0.4302
  1.0239  1.0239  0.3595  0.3595  0.2881  0.1171  0.1347  0.1347

 Free energy of the ion-electron system (eV)
  ---------------------------------------------------
  alpha Z        PSCENC =      1944.50601801
  Ewald energy   TEWEN  =    -36513.33836478
  -Hartree energ DENC   =    -18813.51713226
  -exchange      EXHF   =         0.00000000
  -V(xc)+E(xc)   XCENC  =      2534.84549686
  PAW double counting   =     58143.60228696   -60288.84095903
  entropy T*S    EENTRO =        -0.04561274
  eigenvalues    EBANDS =     -2120.51735652
  atomic energy  EATOM  =     54546.76284294
  Solvation  Ediel_sol  =         0.00000000
  ---------------------------------------------------
  free energy    TOTEN  =      -566.54278055 eV

  energy without entropy =     -566.49716780  energy(sigma->0) =     -566.51997418


--------------------------------------------------------------------------------------------------------




--------------------------------------- Iteration      1(  14)  ---------------------------------------


    POTLOK:  cpu time    0.2260: real time    0.2265
    SETDIJ:  cpu time    0.0286: real time    0.0286
     EDDAV:  cpu time    6.0075: real time    6.0217
    CHARGE:  cpu time    0.3301: real time    0.3308
    MIXING:  cpu time    0.0070: real time    0.0070
    --------------------------------------------
      LOOP:  cpu time    6.5990: real time    6.6147

 eigenvalue-minimisations  :  2400
 total energy-change (2. order) : 0.1242298E+02  (-0.2299989E+01)
 number of electron     626.9999891 magnetization      34.0328469
 augmentation part      208.5174802 magnetization      30.0090269

 Broyden mixing:
  rms(total) = 0.35602E+01    rms(broyden)= 0.35599E+01
  rms(prec ) = 0.41190E+01
  weight for this iteration     100.00

 eigenvalues of (default mixing * dielectric matrix)
  average eigenvalue GAMMA=   0.4360
  1.0290  1.0290  0.4120  0.4120  0.3120  0.3120  0.1192  0.1493  0.1493

 Free energy of the ion-electron system (eV)
  ---------------------------------------------------
  alpha Z        PSCENC =      1944.50601801
  Ewald energy   TEWEN  =    -36513.33836478
  -Hartree energ DENC   =    -18786.88623152
  -exchange      EXHF   =         0.00000000
  -V(xc)+E(xc)   XCENC  =      2534.37144174
  PAW double counting   =     58543.52685729   -60687.28396987
  entropy T*S    EENTRO =        -0.04402265
  eigenvalues    EBANDS =     -2135.73436766
  atomic energy  EATOM  =     54546.76284294
  Solvation  Ediel_sol  =         0.00000000
  ---------------------------------------------------
  free energy    TOTEN  =      -554.11979650 eV

  energy without entropy =     -554.07577385  energy(sigma->0) =     -554.09778517


--------------------------------------------------------------------------------------------------------




--------------------------------------- Iteration      1(  15)  ---------------------------------------


    POTLOK:  cpu time    0.2258: real time    0.2263
    SETDIJ:  cpu time    0.0286: real time    0.0287
     EDDAV:  cpu time    5.4290: real time    5.4418
    CHARGE:  cpu time    0.3290: real time    0.3298
    MIXING:  cpu time    0.0071: real time    0.0071
    --------------------------------------------
      LOOP:  cpu time    6.0195: real time    6.0338

 eigenvalue-minimisations  :  2112
 total energy-change (2. order) :-0.7061291E+00  (-0.1562423E+01)
 number of electron     626.9999892 magnetization      33.2264074
 augmentation part      207.7369063 magnetization      29.6823958

 Broyden mixing:
  rms(total) = 0.43392E+01    rms(broyden)= 0.43386E+01
  rms(prec ) = 0.47633E+01
  weight for this iteration     100.00

 eigenvalues of (default mixing * dielectric matrix)
  average eigenvalue GAMMA=   0.4358
  1.0097  1.0097  0.5391  0.5391  0.3346  0.3346  0.1194  0.1620  0.1551  0.1551

 Free energy of the ion-electron system (eV)
  ---------------------------------------------------
  alpha Z        PSCENC =      1944.50601801
  Ewald energy   TEWEN  =    -36513.33836478
  -Hartree energ DENC   =    -18806.96085534
  -exchange      EXHF   =         0.00000000
  -V(xc)+E(xc)   XCENC  =      2533.70246977
  PAW double counting   =     58803.87664136   -60951.09668304
  entropy T*S    EENTRO =        -0.04217923
  eigenvalues    EBANDS =     -2112.23581530
  atomic energy  EATOM  =     54546.76284294
  Solvation  Ediel_sol  =         0.00000000
  ---------------------------------------------------
  free energy    TOTEN  =      -554.82592559 eV

  energy without entropy =     -554.78374637  energy(sigma->0) =     -554.80483598


--------------------------------------------------------------------------------------------------------




--------------------------------------- Iteration      1(  16)  ---------------------------------------


    POTLOK:  cpu time    0.2260: real time    0.2266
    SETDIJ:  cpu time    0.0285: real time    0.0286
     EDDAV:  cpu time    5.8625: real time    5.8764
    CHARGE:  cpu time    0.3299: real time    0.3307
    MIXING:  cpu time    0.0077: real time    0.0077
    --------------------------------------------
      LOOP:  cpu time    6.4546: real time    6.4699

 eigenvalue-minimisations  :  2336
 total energy-change (2. order) : 0.1647787E+01  (-0.1248292E+01)
 number of electron     626.9999892 magnetization      32.6030855
 augmentation part      206.5590846 magnetization      27.6891074

 Broyden mixing:
  rms(total) = 0.23257E+01    rms(broyden)= 0.23251E+01
  rms(prec ) = 0.24235E+01
  weight for this iteration     100.00

 eigenvalues of (default mixing * dielectric matrix)
  average eigenvalue GAMMA=   0.4294
  0.9631  0.9631  0.6259  0.6259  0.3457  0.3457  0.2821  0.1559  0.1559  0.1193
  0.1410

 Free energy of the ion-electron system (eV)
  ---------------------------------------------------
  alpha Z        PSCENC =      1944.50601801
  Ewald energy   TEWEN  =    -36513.33836478
  -Hartree energ DENC   =    -18832.32520235
  -exchange      EXHF   =         0.00000000
  -V(xc)+E(xc)   XCENC  =      2533.09488146
  PAW double counting   =     58798.51105492   -60950.79642020
  entropy T*S    EENTRO =        -0.07954221
  eigenvalues    EBANDS =     -2079.51340590
  atomic energy  EATOM  =     54546.76284294
  Solvation  Ediel_sol  =         0.00000000
  ---------------------------------------------------
  free energy    TOTEN  =      -553.17813810 eV

  energy without entropy =     -553.09859589  energy(sigma->0) =     -553.13836700


--------------------------------------------------------------------------------------------------------




--------------------------------------- Iteration      1(  17)  ---------------------------------------


    POTLOK:  cpu time    0.2262: real time    0.2267
    SETDIJ:  cpu time    0.0286: real time    0.0287
     EDDAV:  cpu time    5.7672: real time    5.7809
    CHARGE:  cpu time    0.3294: real time    0.3302
    MIXING:  cpu time    0.0078: real time    0.0078
    --------------------------------------------
      LOOP:  cpu time    6.3592: real time    6.3742

 eigenvalue-minimisations  :  2288
 total energy-change (2. order) :-0.2614843E+01  (-0.3793657E+00)
 number of electron     626.9999892 magnetization      31.8703235
 augmentation part      206.1485225 magnetization      27.2725999

 Broyden mixing:
  rms(total) = 0.24180E+01    rms(broyden)= 0.24178E+01
  rms(prec ) = 0.25706E+01
  weight for this iteration     100.00

 eigenvalues of (default mixing * dielectric matrix)
  average eigenvalue GAMMA=   0.4150
  1.0059  1.0059  0.6050  0.6050  0.3570  0.3570  0.2416  0.2416  0.1526  0.1526
  0.1197  0.1362

 Free energy of the ion-electron system (eV)
  ---------------------------------------------------
  alpha Z        PSCENC =      1944.50601801
  Ewald energy   TEWEN  =    -36513.33836478
  -Hartree energ DENC   =    -18835.82032575
  -exchange      EXHF   =         0.00000000
  -V(xc)+E(xc)   XCENC  =      2531.89866126
  PAW double counting   =     58839.80532328   -60991.27801266
  entropy T*S    EENTRO =        -0.06281989
  eigenvalues    EBANDS =     -2078.26630378
  atomic energy  EATOM  =     54546.76284294
  Solvation  Ediel_sol  =         0.00000000
  ---------------------------------------------------
  free energy    TOTEN  =      -555.79298136 eV

  energy without entropy =     -555.73016147  energy(sigma->0) =     -555.76157142


--------------------------------------------------------------------------------------------------------




--------------------------------------- Iteration      1(  18)  ---------------------------------------


    POTLOK:  cpu time    0.2260: real time    0.2266
    SETDIJ:  cpu time    0.0285: real time    0.0286
     EDDAV:  cpu time    5.6082: real time    5.6214
    CHARGE:  cpu time    0.3298: real time    0.3305
    MIXING:  cpu time    0.0082: real time    0.0082
    --------------------------------------------
      LOOP:  cpu time    6.2006: real time    6.2153

 eigenvalue-minimisations  :  2208
 total energy-change (2. order) :-0.1058503E+01  (-0.1825620E+00)
 number of electron     626.9999892 magnetization      30.6157146
 augmentation part      206.1380599 magnetization      26.1841418

 Broyden mixing:
  rms(total) = 0.20922E+01    rms(broyden)= 0.20921E+01
  rms(prec ) = 0.22227E+01
  weight for this iteration     100.00

 eigenvalues of (default mixing * dielectric matrix)
  average eigenvalue GAMMA=   0.4369
  1.0084  1.0084  0.7041  0.7041  0.4355  0.4355  0.3265  0.3265  0.1193  0.1559
  0.1559  0.1634  0.1363

 Free energy of the ion-electron system (eV)
  ---------------------------------------------------
  alpha Z        PSCENC =      1944.50601801
  Ewald energy   TEWEN  =    -36513.33836478
  -Hartree energ DENC   =    -18836.78508139
  -exchange      EXHF   =         0.00000000
  -V(xc)+E(xc)   XCENC  =      2531.28954348
  PAW double counting   =     58890.81987741   -61040.92166945
  entropy T*S    EENTRO =        -0.08180024
  eigenvalues    EBANDS =     -2079.10284986
  atomic energy  EATOM  =     54546.76284294
  Solvation  Ediel_sol  =         0.00000000
  ---------------------------------------------------
  free energy    TOTEN  =      -556.85148387 eV

  energy without entropy =     -556.76968364  energy(sigma->0) =     -556.81058376


--------------------------------------------------------------------------------------------------------




--------------------------------------- Iteration      1(  19)  ---------------------------------------


    POTLOK:  cpu time    0.2265: real time    0.2270
    SETDIJ:  cpu time    0.0285: real time    0.0286
     EDDAV:  cpu time    5.6383: real time    5.6516
    CHARGE:  cpu time    0.3293: real time    0.3301
    MIXING:  cpu time    0.0081: real time    0.0081
    --------------------------------------------
      LOOP:  cpu time    6.2307: real time    6.2455

 eigenvalue-minimisations  :  2224
 total energy-change (2. order) :-0.3174685E+01  (-0.2378998E+00)
 number of electron     626.9999893 magnetization      28.2222383
 augmentation part      205.7599901 magnetization      24.0410816

 Broyden mixing:
  rms(total) = 0.21385E+01    rms(broyden)= 0.21384E+01
  rms(prec ) = 0.23631E+01
  weight for this iteration     100.00

 eigenvalues of (default mixing * dielectric matrix)
  average eigenvalue GAMMA=   0.4649
  1.1854  1.1854  0.7837  0.7837  0.4753  0.4753  0.3389  0.3389  0.2132  0.1195
  0.1682  0.1538  0.1538  0.1329

 Free energy of the ion-electron system (eV)
  ---------------------------------------------------
  alpha Z        PSCENC =      1944.50601801
  Ewald energy   TEWEN  =    -36513.33836478
  -Hartree energ DENC   =    -18844.17057409
  -exchange      EXHF   =         0.00000000
  -V(xc)+E(xc)   XCENC  =      2530.38581314
  PAW double counting   =     58940.10611108   -61087.79202679
  entropy T*S    EENTRO =        -0.05686198
  eigenvalues    EBANDS =     -2076.42912685
  atomic energy  EATOM  =     54546.76284294
  Solvation  Ediel_sol  =         0.00000000
  ---------------------------------------------------
  free energy    TOTEN  =      -560.02616931 eV

  energy without entropy =     -559.96930734  energy(sigma->0) =     -559.99773833


--------------------------------------------------------------------------------------------------------




--------------------------------------- Iteration      1(  20)  ---------------------------------------


    POTLOK:  cpu time    0.2263: real time    0.2268
    SETDIJ:  cpu time    0.0286: real time    0.0287
     EDDAV:  cpu time    5.6704: real time    5.6839
    CHARGE:  cpu time    0.3298: real time    0.3306
    MIXING:  cpu time    0.0083: real time    0.0083
    --------------------------------------------
      LOOP:  cpu time    6.2635: real time    6.2784

 eigenvalue-minimisations  :  2240
 total energy-change (2. order) :-0.2659085E+01  (-0.3079009E+00)
 number of electron     626.9999893 magnetization      22.5273417
 augmentation part      205.4129975 magnetization      18.6735686

 Broyden mixing:
  rms(total) = 0.18036E+01    rms(broyden)= 0.18033E+01
  rms(prec ) = 0.20877E+01
  weight for this iteration     100.00

 eigenvalues of (default mixing * dielectric matrix)
  average eigenvalue GAMMA=   0.5314
  1.6382  1.6382  0.8440  0.8440  0.5100  0.5100  0.3511  0.3511  0.3832  0.1887
  0.1559  0.1559  0.1194  0.1480  0.1338

 Free energy of the ion-electron system (eV)
  ---------------------------------------------------
  alpha Z        PSCENC =      1944.50601801
  Ewald energy   TEWEN  =    -36513.33836478
  -Hartree energ DENC   =    -18851.24675978
  -exchange      EXHF   =         0.00000000
  -V(xc)+E(xc)   XCENC  =      2529.26915040
  PAW double counting   =     59076.02234875   -61220.27771454
  entropy T*S    EENTRO =        -0.06980639
  eigenvalues    EBANDS =     -2074.31296915
  atomic energy  EATOM  =     54546.76284294
  Solvation  Ediel_sol  =         0.00000000
  ---------------------------------------------------
  free energy    TOTEN  =      -562.68525453 eV

  energy without entropy =     -562.61544814  energy(sigma->0) =     -562.65035134


--------------------------------------------------------------------------------------------------------




--------------------------------------- Iteration      1(  21)  ---------------------------------------


    POTLOK:  cpu time    0.2265: real time    0.2270
    SETDIJ:  cpu time    0.0283: real time    0.0284
     EDDAV:  cpu time    5.8512: real time    5.8651
    CHARGE:  cpu time    0.3260: real time    0.3268
    MIXING:  cpu time    0.0086: real time    0.0086
    --------------------------------------------
      LOOP:  cpu time    6.4406: real time    6.4559

 eigenvalue-minimisations  :  2336
 total energy-change (2. order) :-0.3120451E+01  (-0.4961564E+00)
 number of electron     626.9999893 magnetization      19.1982700
 augmentation part      205.5574810 magnetization      15.6222988

 Broyden mixing:
  rms(total) = 0.19122E+01    rms(broyden)= 0.19119E+01
  rms(prec ) = 0.22551E+01
  weight for this iteration     100.00

 eigenvalues of (default mixing * dielectric matrix)
  average eigenvalue GAMMA=   0.5306
  1.7221  1.7221  0.8855  0.8855  0.5177  0.5177  0.3546  0.3546  0.3880  0.2629
  0.1194  0.1686  0.1558  0.1558  0.1497  0.1302

 Free energy of the ion-electron system (eV)
  ---------------------------------------------------
  alpha Z        PSCENC =      1944.50601801
  Ewald energy   TEWEN  =    -36513.33836478
  -Hartree energ DENC   =    -18849.09633606
  -exchange      EXHF   =         0.00000000
  -V(xc)+E(xc)   XCENC  =      2527.58857553
  PAW double counting   =     59469.61327206   -61605.42158274
  entropy T*S    EENTRO =        -0.05055857
  eigenvalues    EBANDS =     -2086.36957232
  atomic energy  EATOM  =     54546.76284294
  Solvation  Ediel_sol  =         0.00000000
  ---------------------------------------------------
  free energy    TOTEN  =      -565.80570590 eV

  energy without entropy =     -565.75514734  energy(sigma->0) =     -565.78042662


--------------------------------------------------------------------------------------------------------




--------------------------------------- Iteration      1(  22)  ---------------------------------------


    POTLOK:  cpu time    0.2264: real time    0.2269
    SETDIJ:  cpu time    0.0286: real time    0.0287
     EDDAV:  cpu time    5.6923: real time    5.7058
    CHARGE:  cpu time    0.3263: real time    0.3271
    MIXING:  cpu time    0.0089: real time    0.0089
    --------------------------------------------
      LOOP:  cpu time    6.2824: real time    6.2973

 eigenvalue-minimisations  :  2256
 total energy-change (2. order) : 0.6496356E-01  (-0.2339602E+00)
 number of electron     626.9999893 magnetization      16.9619257
 augmentation part      206.1652111 magnetization      13.3909746

 Broyden mixing:
  rms(total) = 0.14153E+01    rms(broyden)= 0.14150E+01
  rms(prec ) = 0.16654E+01
  weight for this iteration     100.00

 eigenvalues of (default mixing * dielectric matrix)
  average eigenvalue GAMMA=   0.5204
  1.5801  1.5801  0.9161  0.9161  0.5721  0.5721  0.4731  0.4731  0.3515  0.3515
  0.1828  0.1777  0.1540  0.1540  0.1194  0.1398  0.1325

 Free energy of the ion-electron system (eV)
  ---------------------------------------------------
  alpha Z        PSCENC =      1944.50601801
  Ewald energy   TEWEN  =    -36513.33836478
  -Hartree energ DENC   =    -18840.07032429
  -exchange      EXHF   =         0.00000000
  -V(xc)+E(xc)   XCENC  =      2526.91225093
  PAW double counting   =     59768.91696762   -61901.74138848
  entropy T*S    EENTRO =        -0.06865605
  eigenvalues    EBANDS =     -2097.62008826
  atomic energy  EATOM  =     54546.76284294
  Solvation  Ediel_sol  =         0.00000000
  ---------------------------------------------------
  free energy    TOTEN  =      -565.74074235 eV

  energy without entropy =     -565.67208630  energy(sigma->0) =     -565.70641432


--------------------------------------------------------------------------------------------------------




--------------------------------------- Iteration      1(  23)  ---------------------------------------


    POTLOK:  cpu time    0.2263: real time    0.2268
    SETDIJ:  cpu time    0.0286: real time    0.0287
     EDDAV:  cpu time    5.7577: real time    5.7713
    CHARGE:  cpu time    0.3264: real time    0.3272
    MIXING:  cpu time    0.0095: real time    0.0095
    --------------------------------------------
      LOOP:  cpu time    6.3485: real time    6.3635

 eigenvalue-minimisations  :  2288
 total energy-change (2. order) :-0.9412544E-01  (-0.1609783E+00)
 number of electron     626.9999892 magnetization      16.2828578
 augmentation part      206.6414374 magnetization      13.0054362

 Broyden mixing:
  rms(total) = 0.13422E+01    rms(broyden)= 0.13420E+01
  rms(prec ) = 0.14419E+01
  weight for this iteration     100.00

 eigenvalues of (default mixing * dielectric matrix)
  average eigenvalue GAMMA=   0.5065
  1.4107  1.4107  0.9955  0.9955  0.6137  0.6137  0.5233  0.5233  0.3488  0.3488
  0.2885  0.1921  0.1554  0.1554  0.1194  0.1537  0.1390  0.1296

 Free energy of the ion-electron system (eV)
  ---------------------------------------------------
  alpha Z        PSCENC =      1944.50601801
  Ewald energy   TEWEN  =    -36513.33836478
  -Hartree energ DENC   =    -18833.88720274
  -exchange      EXHF   =         0.00000000
  -V(xc)+E(xc)   XCENC  =      2526.62787610
  PAW double counting   =     60041.96904387   -62177.78483075
  entropy T*S    EENTRO =        -0.08302861
  eigenvalues    EBANDS =     -2100.60722184
  atomic energy  EATOM  =     54546.76284294
  Solvation  Ediel_sol  =         0.00000000
  ---------------------------------------------------
  free energy    TOTEN  =      -565.83486779 eV

  energy without entropy =     -565.75183918  energy(sigma->0) =     -565.79335349


--------------------------------------------------------------------------------------------------------




--------------------------------------- Iteration      1(  24)  ---------------------------------------


    POTLOK:  cpu time    0.2261: real time    0.2267
    SETDIJ:  cpu time    0.0284: real time    0.0285
     EDDAV:  cpu time    5.5010: real time    5.5140
    CHARGE:  cpu time    0.3271: real time    0.3279
    MIXING:  cpu time    0.0099: real time    0.0099
    --------------------------------------------
      LOOP:  cpu time    6.0926: real time    6.1071

 eigenvalue-minimisations  :  2160
 total energy-change (2. order) :-0.3742676E-01  (-0.1721897E+00)
 number of electron     626.9999893 magnetization      15.5989877
 augmentation part      206.7297527 magnetization      12.3138828

 Broyden mixing:
  rms(total) = 0.10641E+01    rms(broyden)= 0.10639E+01
  rms(prec ) = 0.11351E+01
  weight for this iteration     100.00

[...]
   -.401E+01 0.495E+02 0.345E+03   0.455E+01 -.547E+02 -.363E+03   -.548E+00 0.520E+01 0.185E+02   0.217E-02 0.913E-02 0.246E-01
   0.402E+02 0.271E+02 -.356E+03   -.446E+02 -.295E+02 0.374E+03   0.438E+01 0.241E+01 -.182E+02   -.154E-01 -.134E-01 0.881E-02
   0.431E+02 -.183E+02 0.367E+03   -.473E+02 0.208E+02 -.387E+03   0.417E+01 -.245E+01 0.197E+02   -.927E-02 0.130E-01 -.102E-01
   -.393E+00 -.264E+02 -.369E+03   0.483E+00 0.293E+02 0.390E+03   -.923E-01 -.287E+01 -.209E+02   0.385E-02 -.499E-02 -.241E-01
   -.243E+02 0.300E+02 0.337E+03   0.269E+02 -.313E+02 -.353E+03   -.265E+01 0.134E+01 0.163E+02   -.254E-02 -.116E-02 -.182E-01
   0.418E+02 -.578E+01 -.319E+03   -.442E+02 0.645E+01 0.337E+03   0.236E+01 -.667E+00 -.186E+02   -.143E-01 -.323E-02 -.382E-02
   0.346E+02 -.139E+02 0.343E+03   -.366E+02 0.155E+02 -.365E+03   0.199E+01 -.158E+01 0.221E+02   0.236E-01 -.131E-01 0.122E-01
 -----------------------------------------------------------------------------------------------
   -.472E-01 0.805E-01 -.180E-02   0.341E-12 0.165E-12 0.114E-12   0.481E-01 -.833E-01 -.382E-11   0.148E-02 -.256E-02 -.139E-05
 
 
 POSITION                                       TOTAL-FORCE (eV/Angst)
 -----------------------------------------------------------------------------------
      4.20404      7.29084      7.18628        -0.009290     -0.000984      0.004250
      1.42142      0.82758     11.98319         0.005497      0.007553     -0.004250
     -0.00393      1.63091      2.39612        -0.008223      0.014243      0.000000
      6.93167      2.60458      7.18269         0.003067      0.017629      0.002239
     -0.09001      3.40732     11.98679        -0.016800      0.006158     -0.002239
      2.98434      0.00751      7.19098         0.003660     -0.002910      0.003965
      4.40619      0.83250     11.97113         0.007850     -0.005226     -0.002989
      0.01732      6.46770      2.40700         0.001382     -0.000996      0.001411
      4.22485      4.04021      2.38681         0.000172     -0.001695     -0.001411
      2.70739      4.70841      7.19835         0.000601     -0.009411      0.002989
      4.13278      5.52727     11.97850         0.000690     -0.004624     -0.003965
      8.42733      0.01341      0.01529         0.000674     -0.000409     -0.002892
      1.40338      0.81485      4.77852         0.000017     -0.000788      0.002892
      0.00864      1.61237      9.58396         0.002109     -0.003654     -0.000000
      7.01272      2.43649     14.36989        -0.002393      0.000391     -0.002358
      0.01503      3.25308      4.79959         0.000858      0.002267      0.002358
     -1.40507      4.06099      9.58396        -0.000091      0.000157      0.000000
     -2.78870      4.87250     14.36455        -0.001355      0.001149     -0.002445
     -1.41604      5.66500      4.80336        -0.000318      0.001748      0.002445
     -2.79530      6.46894      9.58396         0.002711     -0.004696     -0.000000
     -1.40558      7.27540      0.01700        -0.000667     -0.002449     -0.001206
      4.21695      0.82868      4.78435        -0.001091     -0.001282      0.002261
      2.79557      1.63722      9.56235         0.002636      0.001462     -0.000827
      1.43225      2.43342      0.01479        -0.000543     -0.000139     -0.001589
      2.81331      3.22737      4.77729         0.002435     -0.001559      0.000357
      1.40978      4.04624      9.60587        -0.003946      0.000784      0.000932
      0.00903      4.85819      0.01499        -0.000599     -0.001377     -0.000560
      1.42292      5.67566      4.79982         0.001352      0.000567      0.002059
      0.01051      6.46846      9.60280         0.001199      0.003649      0.001928
      1.42702      7.28370      0.01651         0.000132     -0.002888     -0.000357
      7.01116      0.79770      4.77902         0.000392      0.000401      0.001589
      5.62846      1.62518      9.56361         0.001294      0.003809     -0.000932
      4.21076      2.42852     14.36965        -0.001168     -0.000888     -0.002059
      5.62286      3.24263      4.77881         0.001492     -0.000170      0.000560
      4.23038      4.04810      9.56668        -0.003760      0.000786     -0.001928
      2.80253      4.86877      0.00946         0.001656      0.000304     -0.002261
      4.23680      5.67632      4.77681         0.002455     -0.000647      0.001206
      2.81580      6.50561      9.60713        -0.002584     -0.001552      0.000827
     -4.16538      7.27241     10.58390         0.000517     -0.005450     -0.003362
     -0.00112      0.02848      3.81767         0.000199      0.002297      0.001058
      1.38242      0.82726      0.97457        -0.002089      0.000976     -0.001058
      1.39996      0.77214      8.58401         0.004462     -0.003173      0.003362
     -0.04518      1.58432      5.78585         0.003785     -0.001820      0.000094
      0.05984      1.64496     13.38206        -0.000317     -0.004188     -0.000094
     -1.33474      2.46441     10.55658         0.006588      0.001918      0.004313
     -1.36394      2.40537      3.83130        -0.001629      0.003285      0.001862
      0.00538      3.19594      0.96094        -0.002031      0.003053     -0.001862
     -0.05755      3.20180      8.61133        -0.004955     -0.004747     -0.004313
     -1.40115      4.02058      5.74564         0.000094      0.003862      0.002880
     -1.37203      4.03739     13.42227        -0.003391      0.001850     -0.002880
      5.59816      4.88071     10.53807        -0.000973     -0.004062     -0.000922
      5.60314      4.84961      3.82686         0.002486      0.000577     -0.000620
     -1.37279      5.67877      0.96695        -0.001743     -0.001864      0.000620
     -1.39444      5.70024      8.63141         0.004004     -0.001189      0.000922
     -2.81141      6.51550      5.78198        -0.001677     -0.001584      0.003221
     -2.82756      6.50618     13.38593         0.002210      0.000660     -0.003221
      2.82775      0.06812     10.59225         0.025422      0.008618      0.006711
     -1.36617      7.26622      3.82649        -0.003070      0.000919      0.002130
      4.21152      0.73614      0.98316        -0.001574     -0.000771      0.000006
      4.14870      0.76846      8.61270         0.000357      0.000698     -0.004266
      2.80481      1.59453      5.74343        -0.000862     -0.000843      0.001902
      2.81861      1.56844     13.39090         0.001490     -0.000267     -0.001870
      1.37062      2.40545     10.58010        -0.000432     -0.002467      0.000175
      1.37696      2.41945      3.83297         0.000114      0.001745      0.000924
      2.85044      3.25758      0.95756         0.000220     -0.000293     -0.000164
      2.80256      3.28039      8.62893        -0.007057      0.001944     -0.002034
      1.45726      4.07571      5.74475         0.003754      0.000154      0.003278
      1.38699      4.03764     13.42680         0.002586     -0.000188     -0.003805
      0.00884      4.82458     10.55114        -0.002900     -0.000020      0.002181
      0.00316      4.91645      3.84957         0.002578      0.004891      0.001340
      1.39041      5.68211      0.97511         0.000977     -0.003734      0.001868
      1.44928      5.65717      8.64939        -0.009315      0.005105      0.002086
     -0.05735      6.52554      5.76501         0.001617     -0.001525      0.002469
      0.01635      6.51810     13.42022         0.001557     -0.008451     -0.000561
      5.59531      0.03608     10.54055         0.001846      0.007084      0.002034
      1.38229      7.26665      3.83625         0.000143     -0.000337      0.000164
      7.05091      0.83859      0.96084        -0.001568      0.000774     -0.000924
      7.06900      0.83871      8.58938         0.002352     -0.000859     -0.000175
      5.64729      1.64062      5.74268        -0.001130     -0.002333      0.003805
      5.57919      1.59880     13.42473        -0.002010     -0.003174     -0.003278
      4.21360      2.39644     10.52009         0.000237      0.010619     -0.002086
      4.21864      2.45828      3.81870         0.002745     -0.002713     -0.001868
      5.57535      3.27685      0.94424        -0.005525      0.000213     -0.001340
      5.65486      3.22760      8.61834         0.001468      0.002501     -0.002181
      4.18448      4.06786      5.74926         0.006540     -0.005574      0.000561
      4.21488      4.13541     13.40447         0.000512     -0.002163     -0.002469
      2.89160      4.89938     10.55678        -0.000783      0.000040      0.004266
      2.88539      4.82720      3.81065         0.001454      0.000978     -0.000006
      4.22505      5.63760      0.96732         0.000739      0.003118     -0.002130
      4.15859      5.69318      8.57723        -0.020175     -0.017707     -0.006711
      2.86384      6.45126      5.77858        -0.000514     -0.001424      0.001870
      2.84815      6.47626     13.42604         0.001162      0.000325     -0.001902
 -----------------------------------------------------------------------------------
    total drift:                                0.002313     -0.005368     -0.001803


--------------------------------------------------------------------------------------------------------



  FREE ENERGIE OF THE ION-ELECTRON SYSTEM (eV)
  ---------------------------------------------------
  free  energy   TOTEN  =      -566.4667871969 eV

  energy  without entropy=     -566.4047125386  energy(sigma->0) =     -566.43574987
 
 d Force = 0.1587448E-03[ 0.150E-03, 0.167E-03]  d Energy = 0.1545634E-03 0.418E-05
 d Force = 0.1117164E+01[ 0.112E+01, 0.112E+01]  d Ewald  = 0.1083532E+01 0.336E-01


--------------------------------------------------------------------------------------------------------


    POTLOK:  cpu time    0.2553: real time    0.2559


--------------------------------------------------------------------------------------------------------


 Quasi-Newton relaxation of ions (Broydens 2nd method)
  g(Force)  = 0.217E-03   g(Stress)= 0.359E-03

 retain information from N=  1 steps
 eigenvalues of (default step * inverse Hessian matrix)
  average eigenvalue of G=   0.0004
 eigenvalue spectrum of G is  0.0004


--------------------------------------------------------------------------------------------------------


     LOOP+:  cpu time   39.7321: real time   39.9271
    4ORBIT:  cpu time    0.0000: real time    0.0000

volume of typ            1:     9.7 %

volume of typ            2:    19.5 %

volume of typ            3:    10.0 %
 
total charge     
 
# of ion       s       p       d       tot
------------------------------------------
    1        2.071   0.232   0.088   2.391
    2        2.071   0.232   0.088   2.391
    3        2.062   0.210   0.080   2.352
    4        2.069   0.228   0.086   2.383
    5        2.069   0.228   0.086   2.383
    6        2.073   0.238   0.090   2.401
    7        2.068   0.227   0.085   2.380
    8        2.064   0.217   0.082   2.363
    9        2.064   0.217   0.082   2.363
   10        2.068   0.227   0.085   2.380
   11        2.073   0.238   0.090   2.401
   12        0.289   0.397   7.837   8.523
   13        0.289   0.397   7.837   8.523
   14        0.294   0.408   7.839   8.540
   15        0.281   0.380   7.837   8.499
   16        0.281   0.380   7.837   8.499
   17        0.292   0.403   7.833   8.528
   18        0.287   0.393   7.832   8.512
   19        0.287   0.393   7.832   8.512
   20        0.285   0.389   7.849   8.523
   21        0.292   0.404   7.835   8.532
   22        0.292   0.403   7.831   8.526
   23        0.287   0.392   7.838   8.517
   24        0.290   0.400   7.837   8.527
   25        0.292   0.403   7.832   8.527
   26        0.278   0.374   7.844   8.496
   27        0.289   0.396   7.836   8.520
   28        0.280   0.377   7.841   8.498
   29        0.285   0.389   7.834   8.508
   30        0.292   0.403   7.832   8.527
   31        0.290   0.400   7.837   8.527
   32        0.278   0.374   7.844   8.496
   33        0.280   0.377   7.841   8.498
   34        0.289   0.396   7.836   8.520
   35        0.285   0.389   7.834   8.508
   36        0.292   0.403   7.831   8.526
   37        0.292   0.404   7.835   8.532
   38        0.287   0.392   7.838   8.517
   39        1.267   2.771   0.007   4.044
   40        1.274   2.751   0.007   4.033
   41        1.274   2.751   0.007   4.033
   42        1.267   2.771   0.007   4.044
   43        1.272   2.759   0.006   4.037
   44        1.272   2.759   0.006   4.037
   45        1.278   2.744   0.007   4.028
   46        1.277   2.746   0.007   4.030
   47        1.277   2.746   0.007   4.030
   48        1.278   2.744   0.007   4.028
   49        1.271   2.763   0.007   4.042
   50        1.271   2.763   0.007   4.042
   51        1.273   2.757   0.007   4.037
   52        1.274   2.754   0.007   4.035
   53        1.274   2.754   0.007   4.035
   54        1.273   2.757   0.007   4.037
   55        1.267   2.770   0.007   4.044
   56        1.267   2.770   0.007   4.044
   57        1.272   2.760   0.006   4.037
   58        1.278   2.742   0.007   4.027
   59        1.279   2.742   0.007   4.028
   60        1.275   2.755   0.007   4.037
   61        1.274   2.754   0.007   4.035
   62        1.266   2.773   0.007   4.046
   63        1.266   2.774   0.007   4.046
   64        1.273   2.756   0.007   4.036
   65        1.273   2.757   0.007   4.038
   66        1.270   2.766   0.007   4.044
   67        1.270   2.766   0.007   4.043
   68        1.274   2.753   0.007   4.034
   69        1.270   2.765   0.007   4.043
   70        1.276   2.749   0.007   4.032
   71        1.274   2.754   0.007   4.035
   72        1.275   2.749   0.007   4.032
   73        1.276   2.752   0.007   4.035
   74        1.278   2.741   0.007   4.026
   75        1.270   2.766   0.007   4.044
   76        1.273   2.757   0.007   4.038
   77        1.273   2.756   0.007   4.036
   78        1.266   2.774   0.007   4.046
   79        1.274   2.753   0.007   4.034
   80        1.270   2.766   0.007   4.043
   81        1.275   2.749   0.007   4.032
   82        1.274   2.754   0.007   4.035
   83        1.276   2.749   0.007   4.032
   84        1.270   2.765   0.007   4.043
   85        1.278   2.741   0.007   4.026
   86        1.276   2.752   0.007   4.035
   87        1.275   2.755   0.007   4.037
   88        1.279   2.742   0.007   4.028
   89        1.278   2.742   0.007   4.027
   90        1.272   2.760   0.006   4.037
   91        1.266   2.773   0.007   4.046
   92        1.274   2.754   0.007   4.035
--------------------------------------------------
tot          99.25  161.96  212.91  474.12
 
magnetization (x)
 
# of ion       s       p       d       tot
------------------------------------------
    1        0.005   0.009   0.000   0.015
    2        0.005   0.009   0.000   0.015
    3        0.004   0.008   0.000   0.013
    4        0.005   0.009   0.000   0.014
    5        0.005   0.009   0.000   0.014
    6        0.006   0.012   0.001   0.019
    7        0.005   0.010   0.000   0.016
    8        0.005   0.010   0.000   0.016
    9        0.005   0.010   0.000   0.016
   10        0.005   0.010   0.000   0.016
   11        0.006   0.012   0.001   0.019
   12       -0.000  -0.000   0.284   0.284
   13       -0.000  -0.000   0.284   0.284
   14       -0.001  -0.001   0.182   0.181
   15       -0.000  -0.001   0.381   0.380
   16       -0.000  -0.001   0.381   0.380
   17       -0.001  -0.001   0.167   0.166
   18       -0.001  -0.001   0.252   0.251
   19       -0.001  -0.001   0.252   0.251
   20        0.000  -0.000   0.411   0.411
   21       -0.000  -0.000   0.201   0.200
   22       -0.000  -0.000   0.186   0.185
   23       -0.001  -0.001   0.277   0.275
   24       -0.000  -0.000   0.230   0.229
   25       -0.000  -0.000   0.177   0.176
   26        0.000  -0.001   0.504   0.504
   27       -0.000  -0.000   0.266   0.265
   28        0.000  -0.001   0.469   0.468
   29       -0.001  -0.001   0.270   0.269
   30       -0.000  -0.000   0.177   0.176
   31       -0.000  -0.000   0.230   0.229
   32        0.000  -0.001   0.504   0.504
   33        0.000  -0.001   0.469   0.468
   34       -0.000  -0.000   0.266   0.265
   35       -0.001  -0.001   0.270   0.269
   36       -0.000  -0.000   0.186   0.185
   37       -0.000  -0.000   0.201   0.200
   38       -0.001  -0.001   0.277   0.275
   39        0.004   0.008   0.000   0.013
   40        0.004   0.013   0.000   0.017
   41        0.004   0.013   0.000   0.017
   42        0.004   0.008   0.000   0.013
   43        0.010   0.067   0.000   0.077
   44        0.010   0.067   0.000   0.077
   45        0.009   0.073   0.000   0.082
   46        0.009   0.074   0.000   0.084
   47        0.009   0.074   0.000   0.084
   48        0.009   0.073   0.000   0.082
   49        0.005   0.020   0.000   0.025
   50        0.005   0.020   0.000   0.025
   51        0.004   0.010   0.000   0.014
   52        0.003   0.006   0.000   0.010
   53        0.003   0.006   0.000   0.010
   54        0.004   0.010   0.000   0.014
   55        0.004   0.005   0.000   0.009
   56        0.004   0.005   0.000   0.009
   57        0.011   0.069   0.000   0.080
   58        0.008   0.050   0.000   0.058
   59        0.010   0.077   0.000   0.087
   60        0.011   0.088   0.000   0.099
   61        0.004   0.012   0.000   0.016
   62        0.005   0.016   0.000   0.021
   63        0.005   0.015   0.000   0.021
   64        0.004   0.013   0.000   0.017
   65        0.004   0.008   0.000   0.012
   66        0.004   0.013   0.000   0.017
   67        0.004   0.016   0.000   0.021
   68        0.004   0.012   0.000   0.016
   69        0.004   0.007   0.000   0.011
   70        0.008   0.062   0.000   0.071
   71        0.003   0.005   0.000   0.008
   72        0.008   0.056   0.000   0.064
   73        0.010   0.084   0.000   0.094
   74        0.007   0.049   0.000   0.056
   75        0.004   0.013   0.000   0.017
   76        0.004   0.008   0.000   0.012
   77        0.004   0.013   0.000   0.017
   78        0.005   0.015   0.000   0.021
   79        0.004   0.012   0.000   0.016
   80        0.004   0.016   0.000   0.021
   81        0.008   0.056   0.000   0.064
   82        0.003   0.005   0.000   0.008
   83        0.008   0.062   0.000   0.071
   84        0.004   0.007   0.000   0.011
   85        0.007   0.049   0.000   0.056
   86        0.010   0.084   0.000   0.094
   87        0.011   0.088   0.000   0.099
   88        0.010   0.077   0.000   0.087
   89        0.008   0.050   0.000   0.058
   90        0.011   0.069   0.000   0.080
   91        0.005   0.016   0.000   0.021
   92        0.004   0.012   0.000   0.016
--------------------------------------------------
tot           0.38    1.95    7.77   10.10
 

 total amount of memory used by VASP MPI-rank0   145561. kBytes
=======================================================================

   base      :      30000. kBytes
   nonlr-proj:      39806. kBytes
   fftplans  :       9349. kBytes
   grid      :      55332. kBytes
   one-center:       1430. kBytes
   wavefun   :       9644. kBytes
 
  
  
 General timing and accounting informations for this job:
 ========================================================
  
                  Total CPU time used (sec):     1433.422
                            User time (sec):     1424.702
                          System time (sec):        8.719
                         Elapsed time (sec):     1444.268
  
                   Maximum memory used (kb):      206172.
                   Average memory used (kb):           0.
  
                          Minor page faults:        34070
                          Major page faults:           53
                 Voluntary context switches:         1053
