 vasp.5.4.4.18Apr17-6-g9f103f2a35 (build May 12 2020 04:58:55) complex          
  
 MD_VERSION_INFO: Compiled 2020-05-12T11:58:55-UTC in devlin.sd.materialsdesign.
 com:/home/medea2/data/build/wwolf/vasp-gpu5.4.4/13047/x86_64/src/src/build/std 
 from svn 13047
 
 This VASP executable licensed from Materials Design, Inc.
 
 executed on                        Lin64 date 2023.03.23  16:42:57
 running on   16 total cores
 distrk:  each k-point on   16 cores,    1 groups
 distr:  one band on NCORES_PER_BAND=   1 cores,   16 groups


--------------------------------------------------------------------------------------------------------


 INCAR:
 POTCAR:    PAW_PBE Ni 02Aug2007                  
 POTCAR:    PAW_PBE O 08Apr2002                   

 ----------------------------------------------------------------------------- 
|                                                                             |
|           W    W    AA    RRRRR   N    N  II  N    N   GGGG   !!!           |
|           W    W   A  A   R    R  NN   N  II  NN   N  G    G  !!!           |
|           W    W  A    A  R    R  N N  N  II  N N  N  G       !!!           |
|           W WW W  AAAAAA  RRRRR   N  N N  II  N  N N  G  GGG   !            |
|           WW  WW  A    A  R   R   N   NN  II  N   NN  G    G                |
|           W    W  A    A  R    R  N    N  II  N    N   GGGG   !!!           |
|                                                                             |
|      For optimal performance we recommend to set                            |
|        NCORE= 4 - approx SQRT( number of cores)                             |
|      NCORE specifies how many cores store one orbital (NPAR=cpu/NCORE).     |
|      This setting can  greatly improve the performance of VASP for DFT.     |
|      The default,   NCORE=1            might be grossly inefficient         |
|      on modern multi-core architectures or massively parallel machines.     |
|      Do your own testing !!!!                                               |
|      Unfortunately you need to use the default for GW and RPA calculations. |
|      (for HF NCORE is supported but not extensively tested yet)             |
|                                                                             |
 ----------------------------------------------------------------------------- 

 POTCAR:    PAW_PBE Ni 02Aug2007                  
  local pseudopotential read in
  partial core-charges read in
  partial kinetic energy density read in
  atomic valenz-charges read in
  non local Contribution for L=           2  read in
    real space projection operators read in
  non local Contribution for L=           2  read in
    real space projection operators read in
  non local Contribution for L=           0  read in
    real space projection operators read in
  non local Contribution for L=           0  read in
    real space projection operators read in
  non local Contribution for L=           1  read in
    real space projection operators read in
  non local Contribution for L=           1  read in
    real space projection operators read in
    PAW grid and wavefunctions read in
 
   number of l-projection  operators is LMAX  =           6
   number of lm-projection operators is LMMAX =          18
 
 POTCAR:    PAW_PBE O 08Apr2002                   
  local pseudopotential read in
  partial core-charges read in
  partial kinetic energy density read in
  kinetic energy density of atom read in
  atomic valenz-charges read in
  non local Contribution for L=           0  read in
    real space projection operators read in
  non local Contribution for L=           0  read in
    real space projection operators read in
  non local Contribution for L=           1  read in
    real space projection operators read in
  non local Contribution for L=           1  read in
    real space projection operators read in
    PAW grid and wavefunctions read in
 
   number of l-projection  operators is LMAX  =           4
   number of lm-projection operators is LMMAX =           8
 
 Optimization of the real space projectors (new method)

 maximal supplied QI-value         = 16.25
 optimisation between [QCUT,QGAM] = [ 11.38, 22.75] = [ 36.24,144.96] Ry 
 Optimized for a Real-space Cutoff    1.47 Angstroem

   l    n(q)    QCUT    max X(q) W(low)/X(q) W(high)/X(q)  e(spline) 
   2      9    11.376    60.317    0.17E-03    0.16E-04    0.16E-06
   2      9    11.376    55.921    0.17E-03    0.16E-04    0.17E-06
   0     10    11.376    51.690    0.45E-04    0.60E-04    0.21E-06
   0     10    11.376    30.015    0.37E-04    0.55E-04    0.19E-06
   1     10    11.376    18.849    0.83E-04    0.11E-03    0.92E-07
   1     10    11.376    14.624    0.69E-04    0.92E-04    0.82E-07
 Optimization of the real space projectors (new method)

 maximal supplied QI-value         = 24.76
 optimisation between [QCUT,QGAM] = [ 11.39, 22.77] = [ 36.31,145.25] Ry 
 Optimized for a Real-space Cutoff    1.10 Angstroem

   l    n(q)    QCUT    max X(q) W(low)/X(q) W(high)/X(q)  e(spline) 
   0      7    11.387    20.381    0.22E-03    0.48E-03    0.18E-06
   0      7    11.387    15.268    0.22E-03    0.52E-03    0.19E-06
   1      7    11.387     5.964    0.22E-03    0.73E-03    0.24E-06
   1      7    11.387     5.382    0.19E-03    0.60E-03    0.21E-06

 ----------------------------------------------------------------------------- 
|                                                                             |
|  ADVICE TO THIS USER RUNNING 'VASP/VAMP'   (HEAR YOUR MASTER'S VOICE ...):  |
|                                                                             |
|      You enforced a specific xc-type in the INCAR file,                     |
|      a different type was found on the POTCAR file                          |
|          I HOPE YOU KNOW, WHAT YOU ARE  DOING                               |
|                                                                             |
 ----------------------------------------------------------------------------- 

  PAW_PBE Ni 02Aug2007                  :
 energy of atom  1       EATOM=-1077.6739
 kinetic energy error for atom=    0.0030 (will be added to EATOM!!)
  PAW_PBE O 08Apr2002                   :
 energy of atom  2       EATOM= -432.3788
 kinetic energy error for atom=    0.0224 (will be added to EATOM!!)
 
 
 POSCAR: NiO_Fm-3m_scale_1_050_disp_0_10_round_1 
  positions in direct lattice
  No initial velocities read in
 exchange correlation table for  LEXCH =       14
   RHO(1)=    0.500       N(1)  =     2000
   RHO(2)=  100.500       N(2)  =     4000
 


--------------------------------------------------------------------------------------------------------


 ion  position               nearest neighbor table
   1  0.996  0.981  0.982-  34 1.88  36 2.24  35 2.27  43 2.32  40 2.33  50 2.50   7 2.89  12 3.02
                             3 3.04   4 3.06
   2  0.993  0.236  0.241-  39 1.91  35 1.93  33 2.12  36 2.24  44 2.26  49 2.49   3 2.78   5 2.80
                            13 2.97   8 2.97  11 2.98   4 3.04  24 3.07
   3  0.236  0.023  0.237-  33 1.96  34 1.99  36 2.01  52 2.17  38 2.22  17 2.76   2 2.78   8 2.79
                             4 2.79  18 2.86   5 2.87  21 2.89   1 3.04
   4  0.243  0.235  0.993-  33 2.01  42 2.04  51 2.06  34 2.15  35 2.21  37 2.52  25 2.71   3 2.79
                            17 2.87  18 2.99  22 3.02   2 3.04   1 3.06  11 3.06
   5  0.993  0.997  0.462-  36 1.91  39 2.02  40 2.17  38 2.17  47 2.36  54 2.38   2 2.80   3 2.87
                             8 2.91   6 3.03  24 3.06   7 3.07
   6  0.002  0.248  0.709-  37 1.96  48 2.00  39 2.13  40 2.22   8 2.79  13 2.82  15 2.88   7 2.96
                             5 3.03
   7  0.222  0.986  0.734-  40 1.88  38 2.10  56 2.11  37 2.16  34 2.38  45 2.48   1 2.89   6 2.96
                            22 2.97   8 3.01   5 3.07
   8  0.236  0.230  0.485-  37 1.86  38 1.98  55 1.99  39 2.06  46 2.19  33 2.25   3 2.79   6 2.79
                            22 2.88   5 2.91  29 2.94  21 2.95   2 2.97  13 2.98   7 3.01  11 3.02
   9  0.992  0.493  0.987-  42 1.86  43 1.90  44 1.98  35 2.19  58 2.28  48 2.34  10 2.86  12 3.01
                            14 3.04  11 3.04  15 3.08
  10  0.981  0.714  0.234-  44 1.91  47 2.01  43 2.15  57 2.27  36 2.28  41 2.33   9 2.86  13 2.93
                            11 2.94  16 2.95
  11  0.232  0.485  0.245-  41 1.93  44 1.93  33 2.03  42 2.08  46 2.09  60 2.12  29 2.64  26 2.80
                            13 2.85  16 2.85  25 2.91  10 2.94   2 2.98   8 3.02   9 3.04  18 3.05
  12  0.244  0.735  0.992-  59 2.00  43 2.02  41 2.18  34 2.21  45 2.27  42 2.33  26 2.89   9 3.01
                             1 3.02  11 3.07
  13  0.001  0.482  0.481-  46 1.94  48 2.04  47 2.09  39 2.17  44 2.29  62 2.47   6 2.82  11 2.85
                            14 2.88  15 2.92  10 2.93  16 2.96   2 2.97   8 2.98
  14  0.982  0.718  0.715-  48 2.06  47 2.16  61 2.32  43 2.36  40 2.36  45 2.42  13 2.88  31 2.88
                            15 2.96  32 2.97   9 3.04  16 3.07
  15  0.235  0.486  0.725-  45 1.88  64 1.91  46 2.06  48 2.08  37 2.19  42 2.44   6 2.88  30 2.90
                            13 2.92  29 2.92  14 2.96  22 3.01   8 3.03   9 3.08
  16  0.233  0.733  0.464-  41 1.92  47 2.08  46 2.16  63 2.18  38 2.32  45 2.34  29 2.76  26 2.78
                            11 2.85  10 2.95  13 2.96  30 2.99  14 3.07
  17  0.482  0.008  0.033-  52 1.73  50 1.98  51 2.00  34 2.34  59 2.45  19 2.64  18 2.68   3 2.76
                             4 2.87  20 2.99
  18  0.487  0.240  0.238-  49 1.89  55 2.00  60 2.05  33 2.15  51 2.22  52 2.33  27 2.61  17 2.68
                            21 2.71  25 2.75  19 2.83  24 2.85   3 2.86  29 2.95   4 2.99  20 3.03
  19  0.714  0.004  0.231-  52 2.03  50 2.09  49 2.11  54 2.22  17 2.64  21 2.68  24 2.81  18 2.83
                            20 2.93
  20  0.735  0.242  0.990-  58 2.08  50 2.19  51 2.19  49 2.20  35 2.20  53 2.26  19 2.93  25 2.96
                            27 2.98  17 2.99  23 3.03  18 3.03
  21  0.494  0.009  0.450-  52 1.93  54 1.98  55 2.07  56 2.14  38 2.21  19 2.68  18 2.71  24 2.71
                             3 2.89   8 2.95  22 3.04  23 3.04
  22  0.467  0.227  0.725-  64 2.05  37 2.07  53 2.08  56 2.10  51 2.21  55 2.22  23 2.83   8 2.88
                             7 2.97  15 3.01   4 3.02  21 3.04
  23  0.718  0.016  0.722-  53 1.78  54 2.06  56 2.23  50 2.32  40 2.49  22 2.83  24 2.83  20 3.03
                            21 3.04
  24  0.721  0.225  0.470-  49 1.98  54 2.14  55 2.22  53 2.25  62 2.27  39 2.39  27 2.71  21 2.71
                            19 2.81  23 2.83  18 2.85   5 3.06   2 3.07
  25  0.467  0.455  0.005-  51 1.92  60 2.10  42 2.26  58 2.27  59 2.33  64 2.41   4 2.71  18 2.75
                            28 2.89  11 2.91  20 2.96  27 2.96  26 3.01
  26  0.465  0.710  0.241-  41 1.86  59 1.96  63 2.00  60 2.02  57 2.19  52 2.25  29 2.66  16 2.78
                            11 2.80  28 2.83  12 2.89  27 2.98  25 3.01
  27  0.698  0.456  0.258-  49 1.80  62 1.80  60 1.92  57 2.22  58 2.26  18 2.61  24 2.71  29 2.81
                            25 2.96  20 2.98  26 2.98  28 3.05  32 3.06
  28  0.692  0.703  0.004-  59 1.89  57 1.90  58 1.93  50 2.48  26 2.83  25 2.89  27 3.05  31 3.07

  29  0.448  0.496  0.462-  60 1.88  63 1.90  46 1.93  55 2.16  64 2.30  62 2.31  11 2.64  26 2.66
                            16 2.76  27 2.81  30 2.92  15 2.92   8 2.94  18 2.95  32 3.08
  30  0.474  0.721  0.712-  45 1.84  61 2.08  63 2.08  64 2.22  56 2.29  32 2.88  15 2.90  31 2.91
                            29 2.92  16 2.99
  31  0.729  0.500  0.715-  61 1.84  62 2.18  48 2.30  64 2.39  53 2.42  58 2.45  32 2.72  14 2.88
                            30 2.91  28 3.07
  32  0.723  0.721  0.490-  61 1.91  62 2.03  63 2.06  54 2.21  57 2.32  47 2.34  31 2.72  30 2.88
                            14 2.97  27 3.06  29 3.08
  33  0.238  0.250  0.226-   3 1.96   4 2.01  11 2.03   2 2.12  18 2.15   8 2.25
  34  0.213  0.989  0.010-   1 1.88   3 1.99   4 2.15  12 2.21  17 2.34   7 2.38
  35  0.988  0.242  0.018-   2 1.93   9 2.19  20 2.20   4 2.21   1 2.27
  36  0.008  0.976  0.242-   5 1.91   3 2.01   2 2.24   1 2.24  10 2.28
  37  0.229  0.233  0.701-   8 1.86   6 1.96  22 2.07   7 2.16  15 2.19   4 2.52
  38  0.242  0.000  0.493-   8 1.98   7 2.10   5 2.17  21 2.21   3 2.22  16 2.32
  39  0.998  0.231  0.462-   2 1.91   5 2.02   8 2.06   6 2.13  13 2.17  24 2.39
  40  0.005  0.990  0.713-   7 1.88   5 2.17   6 2.22   1 2.33  14 2.36  23 2.49
  41  0.250  0.707  0.243-  26 1.86  16 1.92  11 1.93  12 2.18  10 2.33
  42  0.206  0.469  0.006-   9 1.86   4 2.04  11 2.08  25 2.26  12 2.33  15 2.44
  43  0.011  0.713  0.987-   9 1.90  12 2.02  10 2.15   1 2.32  14 2.36
  44  0.011  0.495  0.216-  10 1.91  11 1.93   9 1.98   2 2.26  13 2.29
  45  0.262  0.702  0.731-  30 1.84  15 1.88  12 2.27  16 2.34  14 2.42   7 2.48
  46  0.225  0.483  0.487-  29 1.93  13 1.94  15 2.06  11 2.09  16 2.16   8 2.19
  47  0.993  0.724  0.466-  10 2.01  16 2.08  13 2.09  14 2.16  32 2.34   5 2.36
  48  0.994  0.479  0.717-   6 2.00  13 2.04  14 2.06  15 2.08  31 2.30   9 2.34
  49  0.705  0.248  0.242-  27 1.80  18 1.89  24 1.98  19 2.11  20 2.20   2 2.49
  50  0.707  0.989  0.990-  17 1.98  19 2.09  20 2.19  23 2.32  28 2.48   1 2.50
  51  0.481  0.234  0.981-  25 1.92  17 2.00   4 2.06  20 2.19  22 2.21  18 2.22
  52  0.481  0.970  0.229-  17 1.73  21 1.93  19 2.03   3 2.17  26 2.25  18 2.33
  53  0.708  0.221  0.730-  23 1.78  22 2.08  24 2.25  20 2.26  31 2.42
  54  0.718  0.978  0.487-  21 1.98  23 2.06  24 2.14  32 2.21  19 2.22   5 2.38
  55  0.465  0.246  0.468-   8 1.99  18 2.00  21 2.07  29 2.16  24 2.22  22 2.22
  56  0.463  0.986  0.695-  22 2.10   7 2.11  21 2.14  23 2.23  30 2.29
  57  0.718  0.709  0.222-  28 1.90  26 2.19  27 2.22  10 2.27  32 2.32
  58  0.728  0.483  0.999-  28 1.93  20 2.08  27 2.26  25 2.27   9 2.28  31 2.45
  59  0.474  0.725  0.015-  28 1.89  26 1.96  12 2.00  25 2.33  17 2.45
  60  0.477  0.477  0.246-  29 1.88  27 1.92  26 2.02  18 2.05  25 2.10  11 2.12
  61  0.714  0.713  0.711-  31 1.84  32 1.91  30 2.08  14 2.32
  62  0.716  0.488  0.463-  27 1.80  32 2.03  31 2.18  24 2.27  29 2.31  13 2.47
  63  0.485  0.712  0.472-  29 1.90  26 2.00  32 2.06  30 2.08  16 2.18
  64  0.454  0.465  0.726-  15 1.91  22 2.05  30 2.22  29 2.30  31 2.39  25 2.41
 
  LATTYP: Found a simple cubic cell.
 ALAT       =     8.6308845000
  
  Lattice vectors:
  
 A1 = (   8.6308845000,   0.0000000000,   0.0000000000)
 A2 = (   0.0000000000,   8.6308845000,   0.0000000000)
 A3 = (   0.0000000000,   0.0000000000,   8.6308845000)


Analysis of symmetry for initial positions (statically):
=====================================================================
 Subroutine PRICEL returns:
 Original cell was already a primitive cell.
 

 Routine SETGRP: Setting up the symmetry group for a 
 simple cubic supercell.


 Subroutine GETGRP returns: Found  1 space group operations
 (whereof  1 operations were pure point group operations)
 out of a pool of 48 trial point group operations.


The static configuration has the point symmetry C_1 .


Analysis of symmetry for dynamics (positions and initial velocities):
=====================================================================
 Subroutine PRICEL returns:
 Original cell was already a primitive cell.
 

 Routine SETGRP: Setting up the symmetry group for a 
 simple cubic supercell.


 Subroutine GETGRP returns: Found  1 space group operations
 (whereof  1 operations were pure point group operations)
 out of a pool of 48 trial point group operations.


The dynamic configuration has the point symmetry C_1 .


Analysis of structural, dynamic, and magnetic symmetry:
=====================================================================
 Subroutine PRICEL returns:
 Original cell was already a primitive cell.
 

 Routine SETGRP: Setting up the symmetry group for a 
 simple cubic supercell.


 Subroutine GETGRP returns: Found  1 space group operations
 (whereof  1 operations were pure point group operations)
 out of a pool of 48 trial point group operations.


The magnetic configuration has the point symmetry C_1 .


 Subroutine INISYM returns: Found  1 space group operations
 (whereof  1 operations are pure point group operations),
 and found     1 'primitive' translations

 
 
 KPOINTS: Automatic mesh                          

Automatic generation of k-mesh.
Space group operators:
 irot       det(A)        alpha          n_x          n_y          n_z        tau_x        tau_y        tau_z
    1     1.000000     0.000000     1.000000     0.000000     0.000000     0.000000     0.000000     0.000000
 
 Subroutine IBZKPT returns following result:
 ===========================================
 
 Found     14 irreducible k-points:
 
 Following reciprocal coordinates:
            Coordinates               Weight
  0.000000  0.000000  0.000000      1.000000
  0.333333  0.000000  0.000000      2.000000
  0.000000  0.333333  0.000000      2.000000
  0.333333  0.333333  0.000000      2.000000
 -0.333333  0.333333  0.000000      2.000000
  0.000000  0.000000  0.333333      2.000000
  0.333333  0.000000  0.333333      2.000000
 -0.333333  0.000000  0.333333      2.000000
  0.000000  0.333333  0.333333      2.000000
  0.333333  0.333333  0.333333      2.000000
 -0.333333  0.333333  0.333333      2.000000
  0.000000 -0.333333  0.333333      2.000000
  0.333333 -0.333333  0.333333      2.000000
 -0.333333 -0.333333  0.333333      2.000000
 
 Following cartesian coordinates:
            Coordinates               Weight
  0.000000  0.000000  0.000000      1.000000
  0.038621  0.000000  0.000000      2.000000
  0.000000  0.038621  0.000000      2.000000
  0.038621  0.038621  0.000000      2.000000
 -0.038621  0.038621  0.000000      2.000000
  0.000000  0.000000  0.038621      2.000000
  0.038621  0.000000  0.038621      2.000000
 -0.038621  0.000000  0.038621      2.000000
  0.000000  0.038621  0.038621      2.000000
  0.038621  0.038621  0.038621      2.000000
 -0.038621  0.038621  0.038621      2.000000
  0.000000 -0.038621  0.038621      2.000000
  0.038621 -0.038621  0.038621      2.000000
 -0.038621 -0.038621  0.038621      2.000000
 


--------------------------------------------------------------------------------------------------------




 Dimension of arrays:
   k-points           NKPTS =     14   k-points in BZ     NKDIM =     14   number of bands    NBANDS=    352
   number of dos      NEDOS =    301   number of ions     NIONS =     64
   non local maximal  LDIM  =      6   non local SUM 2l+1 LMDIM =     18
   total plane-waves  NPLWV = 262144
   max r-space proj   IRMAX =   5524   max aug-charges    IRDMAX=  13415
   dimension x,y,z NGX =    64 NGY =   64 NGZ =   64
   dimension x,y,z NGXF=   128 NGYF=  128 NGZF=  128
   support grid    NGXF=   128 NGYF=  128 NGZF=  128
   ions per type =              32  32
   NGX,Y,Z   is equivalent  to a cutoff of  12.33, 12.33, 12.33 a.u.
   NGXF,Y,Z  is equivalent  to a cutoff of  24.66, 24.66, 24.66 a.u.

 SYSTEM =  unknown system                          
 POSCAR =  NiO_Fm-3m_scale_1_050_disp_0_10_round_1 

 Startparameter for this run:
   NWRITE =      1    write-flag & timer
   PREC   = accura    normal or accurate (medium, high low for compatibility)
   ISTART =      0    job   : 0-new  1-cont  2-samecut
   ICHARG =      2    charge: 1-file 2-atom 10-const
   ISPIN  =      2    spin polarized calculation?
   LNONCOLLINEAR =      F non collinear calculations
   LSORBIT =      F    spin-orbit coupling
   INIWAV =      1    electr: 0-lowe 1-rand  2-diag
   LASPH  =      F    aspherical Exc in radial PAW
   METAGGA=      F    non-selfconsistent MetaGGA calc.

 Electronic Relaxation 1
   ENCUT  =  500.0 eV  36.75 Ry    6.06 a.u.  15.74 15.74 15.74*2*pi/ulx,y,z
   ENINI  =  500.0     initial cutoff
   ENAUG  =  605.4 eV  augmentation charge cutoff
   NELM   =     80;   NELMIN=  2; NELMDL= -5     # of ELM steps 
   EDIFF  = 0.1E-04   stopping-criterion for ELM
   LREAL  =      T    real-space projection
   NLSPLINE    = F    spline interpolate recip. space projectors
   LCOMPAT=      F    compatible to vasp.4.4
   GGA_COMPAT  = T    GGA compatible to vasp.4.4-vasp.4.6
   LMAXPAW     = -100 max onsite density
   LMAXMIX     =    2 max onsite mixed and CHGCAR
   VOSKOWN=      1    Vosko Wilk Nusair interpolation
   ROPT   =   -0.00025  -0.00025
 Ionic relaxation
   EDIFFG = 0.1E-03   stopping-criterion for IOM
   NSW    =      0    number of steps for IOM
   NBLOCK =      1;   KBLOCK =      1    inner block; outer block 
   IBRION =     -1    ionic relax: 0-MD 1-quasi-New 2-CG
   NFREE  =      0    steps in history (QN), initial steepest desc. (CG)
   ISIF   =      2    stress and relaxation
   IWAVPR =     10    prediction:  0-non 1-charg 2-wave 3-comb
   ISYM   =      2    0-nonsym 1-usesym 2-fastsym
   LCORR  =      T    Harris-Foulkes like correction to forces

   POTIM  = 0.5000    time-step for ionic-motion
   TEIN   =    0.0    initial temperature
   TEBEG  =    0.0;   TEEND  =   0.0 temperature during run
   SMASS  =  -3.00    Nose mass-parameter (am)
   estimated Nose-frequenzy (Omega)   =  0.10E-29 period in steps =****** mass=  -0.170E-26a.u.
   SCALEE = 1.0000    scale energy and forces
   NPACO  =    256;   APACO  = 16.0  distance and # of slots for P.C.
   PSTRESS=    0.0 pullay stress

  Mass of Ions in am
   POMASS =  58.69 16.00
  Ionic Valenz
   ZVAL   =  10.00  6.00
  Atomic Wigner-Seitz radii
   RWIGS  =   1.15  0.73
  virtual crystal weights 
   VCA    =   1.00  1.00
   NELECT =     512.0000    total number of electrons
   NUPDOWN=      -1.0000    fix difference up-down

 DOS related values:
   EMIN   =  10.00;   EMAX   =-10.00  energy-range for DOS
   EFERMI =   0.00
   ISMEAR =     0;   SIGMA  =   0.05  broadening in eV -4-tet -1-fermi 0-gaus

 Electronic relaxation 2 (details)
   IALGO  =     38    algorithm
   LDIAG  =      T    sub-space diagonalisation (order eigenvalues)
   LSUBROT=      F    optimize rotation matrix (better conditioning)
   TURBO    =      0    0=normal 1=particle mesh
   IRESTART =      0    0=no restart 2=restart with 2 vectors
   NREBOOT  =      0    no. of reboots
   NMIN     =      0    reboot dimension
   EREF     =   0.00    reference energy to select bands
   IMIX   =      4    mixing-type and parameters
     AMIX     =   0.40;   BMIX     =  1.00
     AMIX_MAG =   1.60;   BMIX_MAG =  1.00
     AMIN     =   0.10
     WC   =   100.;   INIMIX=   1;  MIXPRE=   1;  MAXMIX= -45

 Intra band minimization:
   WEIMIN = 0.0000     energy-eigenvalue tresh-hold
   EBREAK =  0.71E-08  absolut break condition
   DEPER  =   0.30     relativ break condition  

   TIME   =   0.40     timestep for ELM

  volume/ion in A,a.u.               =      10.05        67.79
  Fermi-wavevector in a.u.,A,eV,Ry     =   1.517433  2.867533 31.328813  2.302603
  Thomas-Fermi vector in A             =   2.626689
 
 Write flags
   LWAVE        =      F    write WAVECAR
   LDOWNSAMPLE  =      F    k-point downsampling of WAVECAR
   LCHARG       =      T    write CHGCAR
   LVTOT        =      F    write LOCPOT, total local potential
   LVHAR        =      F    write LOCPOT, Hartree potential only
   LELF         =      F    write electronic localiz. function (ELF)
   LORBIT       =      0    0 simple, 1 ext, 2 COOP (PROOUT), +10 PAW based schemes


 Dipole corrections
   LMONO  =      F    monopole corrections only (constant potential shift)
   LDIPOL =      F    correct potential (dipole corrections)
   IDIPOL =      0    1-x, 2-y, 3-z, 4-all directions 
   EPSILON=  1.0000000 bulk dielectric constant

 Exchange correlation treatment:
   GGA     =    PS    GGA type
   LEXCH   =    14    internal setting for exchange type
   VOSKOWN=      1    Vosko Wilk Nusair interpolation
   LHFCALC =     F    Hartree Fock is set to
   LHFONE  =     F    Hartree Fock one center treatment
   AEXX    =    0.0000 exact exchange contribution

 Linear response parameters
   LEPSILON=     F    determine dielectric tensor
   LRPA    =     F    only Hartree local field effects (RPA)
   LNABLA  =     F    use nabla operator in PAW spheres
   LVEL    =     F    velocity operator in full k-point grid
   LINTERFAST=   F  fast interpolation
   KINTER  =     0    interpolate to denser k-point grid
   CSHIFT  =0.1000    complex shift for real part using Kramers Kronig
   OMEGAMAX=  -1.0    maximum frequency
   DEG_THRESHOLD= 0.2000000E-02 threshold for treating states as degnerate
   RTIME   =   -0.100 relaxation time in fs
  (WPLASMAI=    0.000 imaginary part of plasma frequency in eV, 0.658/RTIME)
   DFIELD  = 0.0000000 0.0000000 0.0000000 field for delta impulse in time
 
 Orbital magnetization related:
   ORBITALMAG=     F  switch on orbital magnetization
   LCHIMAG   =     F  perturbation theory with respect to B field
   DQ        =  0.001000  dq finite difference perturbation B field
   LLRAUG    =     F  two centre corrections for induced B field



--------------------------------------------------------------------------------------------------------


 Static calculation
 charge density and potential will be updated during run
 spin polarized calculation
 Variant of blocked Davidson
 Davidson routine will perform the subspace rotation
 perform sub-space diagonalisation
    after iterative eigenvector-optimisation
 modified Broyden-mixing scheme, WC =      100.0
 initial mixing is a Kerker type mixing with AMIX =  0.4000 and BMIX =      1.0000
 Hartree-type preconditioning will be used
 using additional bands           96
 real space projection scheme for non local part
 use partial core corrections
 calculate Harris-corrections to forces 
   (improved forces if not selfconsistent)
 use gradient corrections 
 use of overlap-Matrix (Vanderbilt PP)
 Gauss-broadening in eV      SIGMA  =   0.05


--------------------------------------------------------------------------------------------------------


  energy-cutoff  :      500.00
  volume of cell :      642.93
      direct lattice vectors                 reciprocal lattice vectors
     8.630884500  0.000000000  0.000000000     0.115862980  0.000000000  0.000000000
     0.000000000  8.630884500  0.000000000     0.000000000  0.115862980  0.000000000
     0.000000000  0.000000000  8.630884500     0.000000000  0.000000000  0.115862980

  length of vectors
     8.630884500  8.630884500  8.630884500     0.115862980  0.115862980  0.115862980


 
 k-points in units of 2pi/SCALE and weight: Automatic mesh                          
   0.00000000  0.00000000  0.00000000       0.037
   0.03862099  0.00000000  0.00000000       0.074
   0.00000000  0.03862099  0.00000000       0.074
   0.03862099  0.03862099  0.00000000       0.074
  -0.03862099  0.03862099  0.00000000       0.074
   0.00000000  0.00000000  0.03862099       0.074
   0.03862099  0.00000000  0.03862099       0.074
  -0.03862099  0.00000000  0.03862099       0.074
   0.00000000  0.03862099  0.03862099       0.074
   0.03862099  0.03862099  0.03862099       0.074
  -0.03862099  0.03862099  0.03862099       0.074
   0.00000000 -0.03862099  0.03862099       0.074
   0.03862099 -0.03862099  0.03862099       0.074
  -0.03862099 -0.03862099  0.03862099       0.074
 
 k-points in reciprocal lattice and weights: Automatic mesh                          
   0.00000000  0.00000000  0.00000000       0.037
   0.33333333  0.00000000  0.00000000       0.074
   0.00000000  0.33333333  0.00000000       0.074
   0.33333333  0.33333333  0.00000000       0.074
  -0.33333333  0.33333333  0.00000000       0.074
   0.00000000  0.00000000  0.33333333       0.074
   0.33333333  0.00000000  0.33333333       0.074
  -0.33333333  0.00000000  0.33333333       0.074
   0.00000000  0.33333333  0.33333333       0.074
   0.33333333  0.33333333  0.33333333       0.074
  -0.33333333  0.33333333  0.33333333       0.074
   0.00000000 -0.33333333  0.33333333       0.074
   0.33333333 -0.33333333  0.33333333       0.074
  -0.33333333 -0.33333333  0.33333333       0.074
 
 position of ions in fractional coordinates (direct lattice) 
   0.99630567  0.98142739  0.98221251
   0.99339117  0.23558416  0.24104829
   0.23636367  0.02329753  0.23697387
   0.24298699  0.23548297  0.99260860
   0.99256787  0.99742209  0.46193499
   0.00238502  0.24761189  0.70856463
   0.22177254  0.98590731  0.73437982
   0.23569931  0.22960030  0.48516016
   0.99209409  0.49342706  0.98731636
   0.98082807  0.71400947  0.23388087
   0.23249972  0.48475944  0.24517738
   0.24379341  0.73505906  0.99207802
   0.00072201  0.48175187  0.48058874
   0.98247868  0.71763438  0.71539249
   0.23470253  0.48611510  0.72510121
   0.23321688  0.73271290  0.46386497
   0.48239886  0.00792850  0.03268818
   0.48680936  0.23984155  0.23830086
   0.71436549  0.00381229  0.23128972
   0.73457995  0.24166699  0.98963857
   0.49379043  0.00868851  0.44990016
   0.46737794  0.22702451  0.72499089
   0.71793722  0.01553618  0.72215272
   0.72117096  0.22513131  0.46985641
   0.46670693  0.45475095  0.00460141
   0.46522723  0.71020239  0.24127599
   0.69822653  0.45562277  0.25760500
   0.69187534  0.70294345  0.00447684
   0.44763375  0.49581362  0.46175060
   0.47395789  0.72117156  0.71235888
   0.72903058  0.50024381  0.71489382
   0.72286764  0.72131404  0.49031506
   0.23790654  0.25019384  0.22552549
   0.21253674  0.98897889  0.00965108
   0.98841129  0.24207470  0.01791277
   0.00799548  0.97629613  0.24197047
   0.22908833  0.23329115  0.70101197
   0.24186125  0.00000689  0.49262666
   0.99827566  0.23107081  0.46245143
   0.00527761  0.99029480  0.71258298
   0.25030851  0.70715362  0.24316358
   0.20554475  0.46861813  0.00611509
   0.01080679  0.71299510  0.98701504
   0.01148360  0.49508537  0.21608023
   0.26248306  0.70165092  0.73148582
   0.22547511  0.48319361  0.48710267
   0.99281484  0.72372699  0.46576234
   0.99443383  0.47885831  0.71654777
   0.70537404  0.24816601  0.24239817
   0.70700533  0.98931190  0.98953304
   0.48089624  0.23416864  0.98081715
   0.48140155  0.96994585  0.22948267
   0.70801696  0.22109964  0.72962425
   0.71827658  0.97759003  0.48668375
   0.46528634  0.24628960  0.46841805
   0.46262925  0.98564219  0.69459658
   0.71829730  0.70907626  0.22238633
   0.72809707  0.48289145  0.99879815
   0.47432457  0.72465013  0.01495498
   0.47744325  0.47682016  0.24633217
   0.71429562  0.71259242  0.71125038
   0.71554686  0.48798396  0.46292943
   0.48524965  0.71226993  0.47223346
   0.45441335  0.46467437  0.72612522
 
 position of ions in cartesian coordinates  (Angst):
   8.59899916  8.47058645  8.47736273
   8.57384445  2.03329967  2.08045995
   2.04002754  0.20107829  2.04529410
   2.09719265  2.03242632  8.56709018
   8.56673864  8.60863486  3.98690755
   0.02058483  2.13710962  6.11553948
   1.91409318  8.50925212  6.33834741
   2.03429352  1.98165367  4.18736130
   8.56264950  4.25871196  8.52141347
   8.46541379  6.16253327  2.01859878
   2.00667823  4.18390274  2.11609765
   2.10415276  6.34420985  8.56251081
   0.00623158  4.15794475  4.14790591
   8.47966001  6.19381945  6.17446995
   2.02569043  4.19560328  6.25826479
   2.01286795  6.32396041  4.00356498
   4.16352884  0.06842997  0.28212791
   4.20159536  2.07004472  2.05674720
   6.16560603  0.03290343  1.99623486
   6.34007470  2.08579988  8.54145619
   4.26184817  0.07498953  3.88303632
   4.03388502  1.95942232  6.25731264
   6.19643322  0.13409098  6.23281672
   6.22434326  1.94308233  4.05527641
   4.02809361  3.92490293  0.03971424
   4.01532249  6.12967480  2.08242520
   6.02631254  3.93242750  2.22335900
   5.97149615  6.06702373  0.03863909
   3.86347519  4.27931009  3.98531610
   4.09067581  6.22434844  6.14828722
   6.29217873  4.31754655  6.17016599
   6.23898711  6.22557817  4.23185265
   2.05334387  2.15939414  1.94648446
   1.83438005  8.53576257  0.08329736
   8.53086368  2.08931878  0.15460305
   0.06900806  8.42629914  2.08841918
   1.97723492  2.01350897  6.05035335
   2.08747651  0.00005947  4.25180380
   8.61600192  1.99434547  3.99136488
   0.04555044  8.54712004  6.15022140
   2.16038384  6.10336122  2.09871677
   1.77403300  4.04458895  0.05277864
   0.09327216  6.15377836  8.51881281
   0.09911363  4.27302465  1.86496351
   2.26546097  6.05586805  6.31336963
   1.94604963  4.17038824  4.20412688
   8.56887021  6.24640406  4.01994096
   8.58284353  4.13297077  6.18444104
   6.08800187  2.14189217  2.09211061
   6.10208134  8.53863674  8.54054538
   4.15055990  2.02108249  8.46531954
   4.15492118  8.37149060  1.98063842
   6.11081261  1.90828546  6.29730263
   6.19936220  8.43746664  4.20051123
   4.01583266  2.12569709  4.04286209
   3.99289962  8.50696390  5.99498286
   6.19954103  6.11995530  1.91939073
   6.28412172  4.16778033  8.62051147
   4.09384058  6.25437157  0.12907471
   4.12075755  4.11537973  2.12606451
   6.16500300  6.15030287  6.13871988
   6.17580230  4.21173320  3.99549044
   4.18813368  6.14751950  4.07579245
   3.92198914  4.01055082  6.26710291
 


--------------------------------------------------------------------------------------------------------


 k-point  1 :   0.0000 0.0000 0.0000  plane waves:   16279
 k-point  2 :   0.3333 0.0000 0.0000  plane waves:   16320
 k-point  3 :   0.0000 0.3333 0.0000  plane waves:   16320
 k-point  4 :   0.3333 0.3333 0.0000  plane waves:   16368
 k-point  5 :  -0.3333 0.3333 0.0000  plane waves:   16368
 k-point  6 :   0.0000 0.0000 0.3333  plane waves:   16320
 k-point  7 :   0.3333 0.0000 0.3333  plane waves:   16368
 k-point  8 :  -0.3333 0.0000 0.3333  plane waves:   16368
 k-point  9 :   0.0000 0.3333 0.3333  plane waves:   16368
 k-point 10 :   0.3333 0.3333 0.3333  plane waves:   16278
 k-point 11 :  -0.3333 0.3333 0.3333  plane waves:   16278
 k-point 12 :   0.0000-0.3333 0.3333  plane waves:   16368
 k-point 13 :   0.3333-0.3333 0.3333  plane waves:   16278
 k-point 14 :  -0.3333-0.3333 0.3333  plane waves:   16278

 maximum and minimum number of plane-waves per node :     16368    16278

 maximum number of plane-waves:     16368
 maximum index in each direction: 
   IXMAX=   16   IYMAX=   16   IZMAX=   15
   IXMIN=  -16   IYMIN=  -16   IZMIN=  -16

 The following grids will avoid any aliasing or wrap around errors in the Hartre
 e energy
  - symmetry arguments have not been applied
  - exchange correlation energies might require even more grid points
  - we recommend to set PREC=Normal or Accurate and rely on VASP defaults
 WARNING: aliasing errors must be expected set NGX to    70 to avoid them
 WARNING: aliasing errors must be expected set NGY to    70 to avoid them
 NGZ is ok and might be reduce to    64

 serial   3D FFT for wavefunctions
 parallel 3D FFT for charge:
    minimum data exchange during FFTs selected (reduces bandwidth)


 total amount of memory used by VASP MPI-rank0   276607. kBytes
=======================================================================

   base      :      30000. kBytes
   nonlr-proj:      37837. kBytes
   fftplans  :       5538. kBytes
   grid      :      31719. kBytes
   one-center:       1990. kBytes
   wavefun   :     169523. kBytes
 
     INWAV:  cpu time    0.0000: real time    0.0000
 Broyden mixing: mesh for mixing (old mesh)
   NGX = 31   NGY = 31   NGZ = 31
  (NGX  =128   NGY  =128   NGZ  =128)
  gives a total of  29791 points

 initial charge density was supplied:
 charge density of overlapping atoms calculated
 number of electron     512.0000000 magnetization      80.0000000
 keeping initial charge density in first step


--------------------------------------------------------------------------------------------------------


 Maximum index for non-local projection operator         5319
 Maximum index for augmentation-charges          920 (set IRDMAX)


--------------------------------------------------------------------------------------------------------


 First call to EWALD:  gamma=   0.205
 Maximum number of real-space cells 3x 3x 3
 Maximum number of reciprocal cells 3x 3x 3

    FEWALD:  cpu time    0.0028: real time    0.0028


--------------------------------------- Iteration      1(   1)  ---------------------------------------


    POTLOK:  cpu time    0.1472: real time    0.1863
    SETDIJ:  cpu time    0.0210: real time    0.0210
     EDDAV:  cpu time   47.8222: real time   47.9981
    --------------------------------------------
      LOOP:  cpu time   47.9922: real time   48.2073

 eigenvalue-minimisations  : 19712
 total energy-change (2. order) : 0.6070448E+04  (-0.2099599E+05)
 number of electron     512.0000000 magnetization      80.0000000
 augmentation part      512.0000000 magnetization      80.0000000

 Free energy of the ion-electron system (eV)
  ---------------------------------------------------
  alpha Z        PSCENC =      1889.79557107
  Ewald energy   TEWEN  =    -38814.25562937
  -Hartree energ DENC   =    -12472.08517853
  -exchange      EXHF   =         0.00000000
  -V(xc)+E(xc)   XCENC  =      1941.11075626
  PAW double counting   =     41846.49563633   -44035.77946198
  entropy T*S    EENTRO =        -0.01082922
  eigenvalues    EBANDS =      7468.09510035
  atomic energy  EATOM  =     48247.08154143
  Solvation  Ediel_sol  =         0.00000000
  ---------------------------------------------------
  free energy    TOTEN  =      6070.44750634 eV

  energy without entropy =     6070.45833557  energy(sigma->0) =     6070.45292096


--------------------------------------------------------------------------------------------------------




--------------------------------------- Iteration      1(   2)  ---------------------------------------


     EDDAV:  cpu time   48.0169: real time   48.1303
    --------------------------------------------
      LOOP:  cpu time   48.0168: real time   48.1302

 eigenvalue-minimisations  : 19712
 total energy-change (2. order) :-0.5174940E+04  (-0.4701466E+04)
 number of electron     512.0000000 magnetization      80.0000000
 augmentation part      512.0000000 magnetization      80.0000000

 Free energy of the ion-electron system (eV)
  ---------------------------------------------------
  alpha Z        PSCENC =      1889.79557107
  Ewald energy   TEWEN  =    -38814.25562937
  -Hartree energ DENC   =    -12472.08517853
  -exchange      EXHF   =         0.00000000
  -V(xc)+E(xc)   XCENC  =      1941.11075626
  PAW double counting   =     41846.49563633   -44035.77946198
  entropy T*S    EENTRO =        -0.03078962
  eigenvalues    EBANDS =      2293.17519923
  atomic energy  EATOM  =     48247.08154143
  Solvation  Ediel_sol  =         0.00000000
  ---------------------------------------------------
  free energy    TOTEN  =       895.50764483 eV

  energy without entropy =      895.53843444  energy(sigma->0) =      895.52303964


--------------------------------------------------------------------------------------------------------




--------------------------------------- Iteration      1(   3)  ---------------------------------------


     EDDAV:  cpu time   48.7382: real time   48.8532
    --------------------------------------------
      LOOP:  cpu time   48.7383: real time   48.8533

 eigenvalue-minimisations  : 20096
 total energy-change (2. order) :-0.1210821E+04  (-0.1077254E+04)
 number of electron     512.0000000 magnetization      80.0000000
 augmentation part      512.0000000 magnetization      80.0000000

 Free energy of the ion-electron system (eV)
  ---------------------------------------------------
  alpha Z        PSCENC =      1889.79557107
  Ewald energy   TEWEN  =    -38814.25562937
  -Hartree energ DENC   =    -12472.08517853
  -exchange      EXHF   =         0.00000000
  -V(xc)+E(xc)   XCENC  =      1941.11075626
  PAW double counting   =     41846.49563633   -44035.77946198
  entropy T*S    EENTRO =        -0.13206218
  eigenvalues    EBANDS =      1082.45564776
  atomic energy  EATOM  =     48247.08154143
  Solvation  Ediel_sol  =         0.00000000
  ---------------------------------------------------
  free energy    TOTEN  =      -315.31317920 eV

  energy without entropy =     -315.18111702  energy(sigma->0) =     -315.24714811


--------------------------------------------------------------------------------------------------------




--------------------------------------- Iteration      1(   4)  ---------------------------------------


     EDDAV:  cpu time   53.6708: real time   53.7976
    --------------------------------------------
      LOOP:  cpu time   53.6708: real time   53.7976

 eigenvalue-minimisations  : 22752
 total energy-change (2. order) :-0.1503210E+03  (-0.1414796E+03)
 number of electron     512.0000000 magnetization      80.0000000
 augmentation part      512.0000000 magnetization      80.0000000

 Free energy of the ion-electron system (eV)
  ---------------------------------------------------
  alpha Z        PSCENC =      1889.79557107
  Ewald energy   TEWEN  =    -38814.25562937
  -Hartree energ DENC   =    -12472.08517853
  -exchange      EXHF   =         0.00000000
  -V(xc)+E(xc)   XCENC  =      1941.11075626
  PAW double counting   =     41846.49563633   -44035.77946198
  entropy T*S    EENTRO =        -0.15455626
  eigenvalues    EBANDS =       932.15710450
  atomic energy  EATOM  =     48247.08154143
  Solvation  Ediel_sol  =         0.00000000
  ---------------------------------------------------
  free energy    TOTEN  =      -465.63421655 eV

  energy without entropy =     -465.47966029  energy(sigma->0) =     -465.55693842


--------------------------------------------------------------------------------------------------------




--------------------------------------- Iteration      1(   5)  ---------------------------------------


     EDDAV:  cpu time   52.7621: real time   52.8867
    CHARGE:  cpu time    1.8144: real time    1.8187
    MIXING:  cpu time    0.0029: real time    0.0029
    --------------------------------------------
      LOOP:  cpu time   54.5776: real time   54.7065

 eigenvalue-minimisations  : 22320
 total energy-change (2. order) :-0.4634171E+01  (-0.4572873E+01)
 number of electron     512.0000009 magnetization      72.6393515
 augmentation part      203.0927901 magnetization      57.6684154

 Broyden mixing:
  rms(total) = 0.86904E+01    rms(broyden)= 0.86859E+01
  rms(prec ) = 0.11337E+02
  weight for this iteration     100.00

 Free energy of the ion-electron system (eV)
  ---------------------------------------------------
  alpha Z        PSCENC =      1889.79557107
  Ewald energy   TEWEN  =    -38814.25562937
  -Hartree energ DENC   =    -12472.08517853
  -exchange      EXHF   =         0.00000000
  -V(xc)+E(xc)   XCENC  =      1941.11075626
  PAW double counting   =     41846.49563633   -44035.77946198
  entropy T*S    EENTRO =        -0.15578184
  eigenvalues    EBANDS =       927.52415928
  atomic energy  EATOM  =     48247.08154143
  Solvation  Ediel_sol  =         0.00000000
  ---------------------------------------------------
  free energy    TOTEN  =      -470.26838734 eV

  energy without entropy =     -470.11260550  energy(sigma->0) =     -470.19049642


--------------------------------------------------------------------------------------------------------




--------------------------------------- Iteration      1(   6)  ---------------------------------------


    POTLOK:  cpu time    0.1198: real time    0.1201
    SETDIJ:  cpu time    0.0210: real time    0.0211
     EDDAV:  cpu time   64.2140: real time   64.3658
    CHARGE:  cpu time    1.7058: real time    1.7098
    MIXING:  cpu time    0.0029: real time    0.0029
    --------------------------------------------
      LOOP:  cpu time   66.0635: real time   66.2197

 eigenvalue-minimisations  : 28688
 total energy-change (2. order) :-0.1574389E+00  (-0.6289393E+02)
 number of electron     512.0000012 magnetization      62.3383935
 augmentation part      238.9743666 magnetization      55.9285687

 Broyden mixing:
  rms(total) = 0.14529E+02    rms(broyden)= 0.14527E+02
  rms(prec ) = 0.17170E+02
  weight for this iteration     100.00

 eigenvalues of (default mixing * dielectric matrix)
  average eigenvalue GAMMA=   0.2197
  0.2197

 Free energy of the ion-electron system (eV)
  ---------------------------------------------------
  alpha Z        PSCENC =      1889.79557107
  Ewald energy   TEWEN  =    -38814.25562937
  -Hartree energ DENC   =    -11989.97839162
  -exchange      EXHF   =         0.00000000
  -V(xc)+E(xc)   XCENC  =      1933.51819280
  PAW double counting   =     44140.17292916   -46126.85540559
  entropy T*S    EENTRO =        -0.05066837
  eigenvalues    EBANDS =       250.14603428
  atomic energy  EATOM  =     48247.08154143
  Solvation  Ediel_sol  =         0.00000000
  ---------------------------------------------------
  free energy    TOTEN  =      -470.42582621 eV

  energy without entropy =     -470.37515784  energy(sigma->0) =     -470.40049202


--------------------------------------------------------------------------------------------------------




--------------------------------------- Iteration      1(   7)  ---------------------------------------


    POTLOK:  cpu time    0.1225: real time    0.1228
    SETDIJ:  cpu time    0.0214: real time    0.0215
     EDDAV:  cpu time   56.9875: real time   57.1221
    CHARGE:  cpu time    1.7528: real time    1.7569
    MIXING:  cpu time    0.0029: real time    0.0029
    --------------------------------------------
      LOOP:  cpu time   58.8871: real time   59.0263

 eigenvalue-minimisations  : 24736
 total energy-change (2. order) : 0.7718442E+02  (-0.2371335E+02)
 number of electron     512.0000007 magnetization      58.1611268
 augmentation part      221.6195988 magnetization      45.9198648

 Broyden mixing:
  rms(total) = 0.74702E+01    rms(broyden)= 0.74672E+01
  rms(prec ) = 0.10092E+02
  weight for this iteration     100.00

 eigenvalues of (default mixing * dielectric matrix)
  average eigenvalue GAMMA=   0.3804
  0.3804  0.3804

 Free energy of the ion-electron system (eV)
  ---------------------------------------------------
  alpha Z        PSCENC =      1889.79557107
  Ewald energy   TEWEN  =    -38814.25562937
  -Hartree energ DENC   =    -12160.62083050
  -exchange      EXHF   =         0.00000000
  -V(xc)+E(xc)   XCENC  =      1924.93110980
  PAW double counting   =     45473.33560906   -47604.95094517
  entropy T*S    EENTRO =        -0.10347086
  eigenvalues    EBANDS =       651.54564131
  atomic energy  EATOM  =     48247.08154143
  Solvation  Ediel_sol  =         0.00000000
  ---------------------------------------------------
  free energy    TOTEN  =      -393.24140324 eV

  energy without entropy =     -393.13793237  energy(sigma->0) =     -393.18966780


--------------------------------------------------------------------------------------------------------




--------------------------------------- Iteration      1(   8)  ---------------------------------------


    POTLOK:  cpu time    0.1230: real time    0.1233
    SETDIJ:  cpu time    0.0214: real time    0.0215
     EDDAV:  cpu time   58.4914: real time   58.6296
    CHARGE:  cpu time    1.7817: real time    1.7859
    MIXING:  cpu time    0.0030: real time    0.0030
    --------------------------------------------
      LOOP:  cpu time   60.4205: real time   60.5633

 eigenvalue-minimisations  : 25584
 total energy-change (2. order) :-0.2394982E+02  (-0.1382907E+02)
 number of electron     512.0000011 magnetization      50.1371686
 augmentation part      218.6439642 magnetization      40.9677430

 Broyden mixing:
  rms(total) = 0.10185E+02    rms(broyden)= 0.10183E+02
  rms(prec ) = 0.16039E+02
  weight for this iteration     100.00

 eigenvalues of (default mixing * dielectric matrix)
  average eigenvalue GAMMA=   0.4658
  0.7522  0.5135  0.1318

 Free energy of the ion-electron system (eV)
  ---------------------------------------------------
  alpha Z        PSCENC =      1889.79557107
  Ewald energy   TEWEN  =    -38814.25562937
  -Hartree energ DENC   =    -12202.60333340
  -exchange      EXHF   =         0.00000000
  -V(xc)+E(xc)   XCENC  =      1923.20861813
  PAW double counting   =     46229.72084356   -48402.10229428
  entropy T*S    EENTRO =        -0.07783585
  eigenvalues    EBANDS =       712.04129212
  atomic energy  EATOM  =     48247.08154143
  Solvation  Ediel_sol  =         0.00000000
  ---------------------------------------------------
  free energy    TOTEN  =      -417.19122659 eV

  energy without entropy =     -417.11339074  energy(sigma->0) =     -417.15230866


--------------------------------------------------------------------------------------------------------




--------------------------------------- Iteration      1(   9)  ---------------------------------------


    POTLOK:  cpu time    0.1248: real time    0.1251
    SETDIJ:  cpu time    0.0219: real time    0.0219
     EDDAV:  cpu time   59.8570: real time   59.9984
    CHARGE:  cpu time    1.7388: real time    1.7429
    MIXING:  cpu time    0.0034: real time    0.0034
    --------------------------------------------
      LOOP:  cpu time   61.7458: real time   61.8917

 eigenvalue-minimisations  : 26384
 total energy-change (2. order) :-0.7848698E+01  (-0.7537148E+01)
 number of electron     512.0000014 magnetization      47.3616984
 augmentation part      218.6853161 magnetization      36.6851847

 Broyden mixing:
  rms(total) = 0.96814E+01    rms(broyden)= 0.96789E+01
  rms(prec ) = 0.13835E+02
  weight for this iteration     100.00

 eigenvalues of (default mixing * dielectric matrix)
  average eigenvalue GAMMA=   0.4056
  0.8886  0.4763  0.1697  0.0879

 Free energy of the ion-electron system (eV)
  ---------------------------------------------------
  alpha Z        PSCENC =      1889.79557107
  Ewald energy   TEWEN  =    -38814.25562937
  -Hartree energ DENC   =    -12147.99185189
  -exchange      EXHF   =         0.00000000
  -V(xc)+E(xc)   XCENC  =      1920.63418552
  PAW double counting   =     47480.97972972   -49684.26061149
  entropy T*S    EENTRO =        -0.10058894
  eigenvalues    EBANDS =       683.07772911
  atomic energy  EATOM  =     48247.08154143
  Solvation  Ediel_sol  =         0.00000000
  ---------------------------------------------------
  free energy    TOTEN  =      -425.03992485 eV

  energy without entropy =     -424.93933591  energy(sigma->0) =     -424.98963038


--------------------------------------------------------------------------------------------------------




--------------------------------------- Iteration      1(  10)  ---------------------------------------


    POTLOK:  cpu time    0.1213: real time    0.1216
    SETDIJ:  cpu time    0.0205: real time    0.0205
     EDDAV:  cpu time   54.9275: real time   55.0572
    CHARGE:  cpu time    1.7009: real time    1.7050
    MIXING:  cpu time    0.0033: real time    0.0033
    --------------------------------------------
      LOOP:  cpu time   56.7733: real time   56.9075

 eigenvalue-minimisations  : 23680
 total energy-change (2. order) : 0.1955338E+02  (-0.6517156E+01)
 number of electron     512.0000017 magnetization      44.8861170
 augmentation part      219.0690942 magnetization      34.4781618

 Broyden mixing:
  rms(total) = 0.78412E+01    rms(broyden)= 0.78396E+01
  rms(prec ) = 0.11390E+02
  weight for this iteration     100.00

 eigenvalues of (default mixing * dielectric matrix)
  average eigenvalue GAMMA=   0.3861
  0.9942  0.4868  0.2302  0.1095  0.1095

 Free energy of the ion-electron system (eV)
  ---------------------------------------------------
  alpha Z        PSCENC =      1889.79557107
  Ewald energy   TEWEN  =    -38814.25562937
  -Hartree energ DENC   =    -12146.19743851
  -exchange      EXHF   =         0.00000000
  -V(xc)+E(xc)   XCENC  =      1919.92997050
  PAW double counting   =     47932.14271549   -50149.87750908
  entropy T*S    EENTRO =        -0.10101382
  eigenvalues    EBANDS =       715.99524599
  atomic energy  EATOM  =     48247.08154143
  Solvation  Ediel_sol  =         0.00000000
  ---------------------------------------------------
  free energy    TOTEN  =      -405.48654631 eV

  energy without entropy =     -405.38553248  energy(sigma->0) =     -405.43603940


--------------------------------------------------------------------------------------------------------




--------------------------------------- Iteration      1(  11)  ---------------------------------------


    POTLOK:  cpu time    0.1207: real time    0.1210
    SETDIJ:  cpu time    0.0207: real time    0.0207
     EDDAV:  cpu time   56.7349: real time   56.8689
    CHARGE:  cpu time    1.7888: real time    1.7931
    MIXING:  cpu time    0.0035: real time    0.0035
    --------------------------------------------
      LOOP:  cpu time   58.6686: real time   58.8072

 eigenvalue-minimisations  : 24528
 total energy-change (2. order) : 0.6304921E+01  (-0.4862720E+01)
 number of electron     512.0000007 magnetization      42.0943040
 augmentation part      219.4576239 magnetization      32.0097037

 Broyden mixing:
  rms(total) = 0.75432E+01    rms(broyden)= 0.75414E+01
  rms(prec ) = 0.12045E+02
  weight for this iteration     100.00

 eigenvalues of (default mixing * dielectric matrix)
  average eigenvalue GAMMA=   0.4031
  1.2108  0.5175  0.3239  0.1578  0.1269  0.0817

 Free energy of the ion-electron system (eV)
  ---------------------------------------------------
  alpha Z        PSCENC =      1889.79557107
  Ewald energy   TEWEN  =    -38814.25562937
  -Hartree energ DENC   =    -12138.85114111
  -exchange      EXHF   =         0.00000000
  -V(xc)+E(xc)   XCENC  =      1919.43382717
  PAW double counting   =     48319.96460679   -50547.62680894
  entropy T*S    EENTRO =        -0.09413061
  eigenvalues    EBANDS =       725.37053861
  atomic energy  EATOM  =     48247.08154143
  Solvation  Ediel_sol  =         0.00000000
  ---------------------------------------------------
  free energy    TOTEN  =      -399.18162496 eV

  energy without entropy =     -399.08749435  energy(sigma->0) =     -399.13455966


--------------------------------------------------------------------------------------------------------




--------------------------------------- Iteration      1(  12)  ---------------------------------------


    POTLOK:  cpu time    0.1237: real time    0.1240
    SETDIJ:  cpu time    0.0215: real time    0.0215
     EDDAV:  cpu time   59.3474: real time   59.4878
    CHARGE:  cpu time    1.7493: real time    1.7534
    MIXING:  cpu time    0.0036: real time    0.0036
    --------------------------------------------
      LOOP:  cpu time   61.2455: real time   61.3903

 eigenvalue-minimisations  : 26016
 total energy-change (2. order) :-0.9199172E+01  (-0.9073504E+01)
 number of electron     512.0000011 magnetization      37.3829046
 augmentation part      219.0864549 magnetization      28.4405347

 Broyden mixing:
  rms(total) = 0.94375E+01    rms(broyden)= 0.94364E+01
  rms(prec ) = 0.15304E+02
  weight for this iteration     100.00

 eigenvalues of (default mixing * dielectric matrix)
  average eigenvalue GAMMA=   0.4116
  1.4792  0.5574  0.3544  0.2208  0.1142  0.0776  0.0776

 Free energy of the ion-electron system (eV)
  ---------------------------------------------------
  alpha Z        PSCENC =      1889.79557107
  Ewald energy   TEWEN  =    -38814.25562937
  -Hartree energ DENC   =    -12138.37506836
  -exchange      EXHF   =         0.00000000
  -V(xc)+E(xc)   XCENC  =      1918.86245989
  PAW double counting   =     48718.50953874   -50956.67434463
  entropy T*S    EENTRO =        -0.07760609
  eigenvalues    EBANDS =       726.75274021
  atomic energy  EATOM  =     48247.08154143
  Solvation  Ediel_sol  =         0.00000000
  ---------------------------------------------------
  free energy    TOTEN  =      -408.38079711 eV

  energy without entropy =     -408.30319102  energy(sigma->0) =     -408.34199407


--------------------------------------------------------------------------------------------------------




--------------------------------------- Iteration      1(  13)  ---------------------------------------


    POTLOK:  cpu time    0.1249: real time    0.1252
    SETDIJ:  cpu time    0.0213: real time    0.0213
     EDDAV:  cpu time   58.2183: real time   58.3559
    CHARGE:  cpu time    1.7358: real time    1.7399
    MIXING:  cpu time    0.0037: real time    0.0037
    --------------------------------------------
      LOOP:  cpu time   60.1040: real time   60.2461

 eigenvalue-minimisations  : 25360
 total energy-change (2. order) : 0.4781269E+01  (-0.4786289E+01)
 number of electron     512.0000012 magnetization      35.6487073
 augmentation part      219.5585759 magnetization      27.3298889

 Broyden mixing:
  rms(total) = 0.80401E+01    rms(broyden)= 0.80387E+01
  rms(prec ) = 0.12518E+02
  weight for this iteration     100.00

 eigenvalues of (default mixing * dielectric matrix)
  average eigenvalue GAMMA=   0.4008
  1.6052  0.5624  0.3404  0.3404  0.1019  0.1019  0.0771  0.0771

 Free energy of the ion-electron system (eV)
  ---------------------------------------------------
  alpha Z        PSCENC =      1889.79557107
  Ewald energy   TEWEN  =    -38814.25562937
  -Hartree energ DENC   =    -12132.71939882
  -exchange      EXHF   =         0.00000000
  -V(xc)+E(xc)   XCENC  =      1918.12729218
  PAW double counting   =     49334.42543424   -51587.49916318
  entropy T*S    EENTRO =        -0.07955472
  eigenvalues    EBANDS =       741.52437884
  atomic energy  EATOM  =     48247.08154143
  Solvation  Ediel_sol  =         0.00000000
  ---------------------------------------------------
  free energy    TOTEN  =      -403.59952833 eV

  energy without entropy =     -403.51997361  energy(sigma->0) =     -403.55975097


--------------------------------------------------------------------------------------------------------




--------------------------------------- Iteration      1(  14)  ---------------------------------------


    POTLOK:  cpu time    0.1192: real time    0.1194
    SETDIJ:  cpu time    0.0205: real time    0.0205
     EDDAV:  cpu time   58.0011: real time   58.1381
    CHARGE:  cpu time    1.7097: real time    1.7138
    MIXING:  cpu time    0.0039: real time    0.0039
    --------------------------------------------
      LOOP:  cpu time   59.8543: real time   59.9958

 eigenvalue-minimisations  : 25312
 total energy-change (2. order) : 0.8585092E+01  (-0.3732646E+01)
 number of electron     512.0000014 magnetization      34.3282553
 augmentation part      220.2404177 magnetization      26.4709841

 Broyden mixing:
  rms(total) = 0.51991E+01    rms(broyden)= 0.51976E+01
  rms(prec ) = 0.77339E+01
  weight for this iteration     100.00

 eigenvalues of (default mixing * dielectric matrix)
  average eigenvalue GAMMA=   0.4032
  1.7015  0.6098  0.4232  0.4232  0.1224  0.1224  0.0816  0.0816  0.0626

 Free energy of the ion-electron system (eV)
  ---------------------------------------------------
  alpha Z        PSCENC =      1889.79557107
  Ewald energy   TEWEN  =    -38814.25562937
  -Hartree energ DENC   =    -12132.25512759
  -exchange      EXHF   =         0.00000000
  -V(xc)+E(xc)   XCENC  =      1917.81171916
  PAW double counting   =     49528.31890625   -51787.37589657
  entropy T*S    EENTRO =        -0.09247377
  eigenvalues    EBANDS =       755.95695294
  atomic energy  EATOM  =     48247.08154143
  Solvation  Ediel_sol  =         0.00000000
  ---------------------------------------------------
  free energy    TOTEN  =      -395.01443644 eV

  energy without entropy =     -394.92196268  energy(sigma->0) =     -394.96819956


--------------------------------------------------------------------------------------------------------




--------------------------------------- Iteration      1(  15)  ---------------------------------------


    POTLOK:  cpu time    0.1181: real time    0.1184
    SETDIJ:  cpu time    0.0211: real time    0.0211
     EDDAV:  cpu time   56.8303: real time   56.9649
    CHARGE:  cpu time    1.7588: real time    1.7630
    MIXING:  cpu time    0.0040: real time    0.0040
    --------------------------------------------
      LOOP:  cpu time   58.7324: real time   58.8714

 eigenvalue-minimisations  : 24608
 total energy-change (2. order) : 0.3507984E+01  (-0.3168264E+01)
 number of electron     512.0000015 magnetization      33.0179030
 augmentation part      220.2021413 magnetization      25.5918277

 Broyden mixing:
  rms(total) = 0.38640E+01    rms(broyden)= 0.38619E+01
  rms(prec ) = 0.56959E+01
  weight for this iteration     100.00

 eigenvalues of (default mixing * dielectric matrix)
  average eigenvalue GAMMA=   0.4015
  1.7818  0.7174  0.4449  0.4449  0.1616  0.1134  0.1134  0.0831  0.0831  0.0717

 Free energy of the ion-electron system (eV)
  ---------------------------------------------------
  alpha Z        PSCENC =      1889.79557107
  Ewald energy   TEWEN  =    -38814.25562937
  -Hartree energ DENC   =    -12132.60043878
  -exchange      EXHF   =         0.00000000
  -V(xc)+E(xc)   XCENC  =      1917.38998894
  PAW double counting   =     49617.69318595   -51880.14435716
  entropy T*S    EENTRO =        -0.08913371
  eigenvalues    EBANDS =       763.62281900
  atomic energy  EATOM  =     48247.08154143
  Solvation  Ediel_sol  =         0.00000000
  ---------------------------------------------------
  free energy    TOTEN  =      -391.50645263 eV

  energy without entropy =     -391.41731892  energy(sigma->0) =     -391.46188578


--------------------------------------------------------------------------------------------------------




--------------------------------------- Iteration      1(  16)  ---------------------------------------


    POTLOK:  cpu time    0.1228: real time    0.1231
    SETDIJ:  cpu time    0.0214: real time    0.0214
     EDDAV:  cpu time   55.2785: real time   55.4091
    CHARGE:  cpu time    1.7619: real time    1.7661
    MIXING:  cpu time    0.0045: real time    0.0133
    --------------------------------------------
      LOOP:  cpu time   57.1891: real time   57.3329

 eigenvalue-minimisations  : 23920
 total energy-change (2. order) : 0.4496842E+01  (-0.1389014E+01)
 number of electron     512.0000013 magnetization      32.7920936
 augmentation part      219.9869426 magnetization      25.4897568

 Broyden mixing:
  rms(total) = 0.31723E+01    rms(broyden)= 0.31703E+01
  rms(prec ) = 0.47513E+01
  weight for this iteration     100.00

 eigenvalues of (default mixing * dielectric matrix)
  average eigenvalue GAMMA=   0.3823
  1.7593  0.7651  0.4335  0.4335  0.2406  0.1218  0.1218  0.1040  0.0782  0.0782
  0.0694

 Free energy of the ion-electron system (eV)
  ---------------------------------------------------
  alpha Z        PSCENC =      1889.79557107
  Ewald energy   TEWEN  =    -38814.25562937
  -Hartree energ DENC   =    -12133.17126588
  -exchange      EXHF   =         0.00000000
  -V(xc)+E(xc)   XCENC  =      1916.81859388
  PAW double counting   =     49656.18583038   -51919.71636108
  entropy T*S    EENTRO =        -0.08451345
  eigenvalues    EBANDS =       770.33662276
  atomic energy  EATOM  =     48247.08154143
  Solvation  Ediel_sol  =         0.00000000
  ---------------------------------------------------
  free energy    TOTEN  =      -387.00961027 eV

  energy without entropy =     -386.92509682  energy(sigma->0) =     -386.96735354


--------------------------------------------------------------------------------------------------------




--------------------------------------- Iteration      1(  17)  ---------------------------------------


    POTLOK:  cpu time    0.1242: real time    0.1245
    SETDIJ:  cpu time    0.0215: real time    0.0216
     EDDAV:  cpu time   59.4380: real time   59.5785
    CHARGE:  cpu time    1.7338: real time    1.7379
    MIXING:  cpu time    0.0043: real time    0.0043
    --------------------------------------------
      LOOP:  cpu time   61.3218: real time   61.4668

 eigenvalue-minimisations  : 26256
 total energy-change (2. order) : 0.2279896E+01  (-0.6580771E+00)
 number of electron     512.0000013 magnetization      32.3662374
 augmentation part      220.0613608 magnetization      25.1826459

 Broyden mixing:
  rms(total) = 0.21159E+01    rms(broyden)= 0.21144E+01
  rms(prec ) = 0.30977E+01
  weight for this iteration     100.00

 eigenvalues of (default mixing * dielectric matrix)
  average eigenvalue GAMMA=   0.3729
  1.7004  0.7924  0.4758  0.4758  0.3142  0.1431  0.1431  0.0998  0.0998  0.0799
  0.0799  0.0704

 Free energy of the ion-electron system (eV)
  ---------------------------------------------------
  alpha Z        PSCENC =      1889.79557107
  Ewald energy   TEWEN  =    -38814.25562937
  -Hartree energ DENC   =    -12133.98908660
  -exchange      EXHF   =         0.00000000
  -V(xc)+E(xc)   XCENC  =      1916.73169556
  PAW double counting   =     49644.47021586   -51907.30761088
  entropy T*S    EENTRO =        -0.07351802
  eigenvalues    EBANDS =       772.81710694
  atomic energy  EATOM  =     48247.08154143
  Solvation  Ediel_sol  =         0.00000000
  ---------------------------------------------------
  free energy    TOTEN  =      -384.72971401 eV

  energy without entropy =     -384.65619599  energy(sigma->0) =     -384.69295500


--------------------------------------------------------------------------------------------------------




--------------------------------------- Iteration      1(  18)  ---------------------------------------


    POTLOK:  cpu time    0.1192: real time    0.1195
    SETDIJ:  cpu time    0.0207: real time    0.0208
     EDDAV:  cpu time   60.3503: real time   60.4929
    CHARGE:  cpu time    1.6949: real time    1.6989
    MIXING:  cpu time    0.0046: real time    0.0046
    --------------------------------------------
      LOOP:  cpu time   62.1897: real time   62.3366

 eigenvalue-minimisations  : 26720
 total energy-change (2. order) : 0.4063756E+00  (-0.3831109E+00)
 number of electron     512.0000012 magnetization      32.1070895
 augmentation part      219.7555538 magnetization      24.8583186

 Broyden mixing:
  rms(total) = 0.21010E+01    rms(broyden)= 0.21001E+01
  rms(prec ) = 0.30814E+01
  weight for this iteration     100.00

 eigenvalues of (default mixing * dielectric matrix)
  average eigenvalue GAMMA=   0.3542
  1.6674  0.8045  0.4852  0.4852  0.2417  0.2417  0.1509  0.1131  0.1131  0.0781
  0.0781  0.0725  0.0725

 Free energy of the ion-electron system (eV)
  ---------------------------------------------------
  alpha Z        PSCENC =      1889.79557107
  Ewald energy   TEWEN  =    -38814.25562937
  -Hartree energ DENC   =    -12135.19777206
  -exchange      EXHF   =         0.00000000
  -V(xc)+E(xc)   XCENC  =      1916.64017833
  PAW double counting   =     49611.81283934   -51872.32376686
  entropy T*S    EENTRO =        -0.08914684
  eigenvalues    EBANDS =       772.21284653
  atomic energy  EATOM  =     48247.08154143
  Solvation  Ediel_sol  =         0.00000000
  ---------------------------------------------------
  free energy    TOTEN  =      -384.32333842 eV

  energy without entropy =     -384.23419158  energy(sigma->0) =     -384.27876500


--------------------------------------------------------------------------------------------------------




--------------------------------------- Iteration      1(  19)  ---------------------------------------


    POTLOK:  cpu time    0.1178: real time    0.1181
    SETDIJ:  cpu time    0.0207: real time    0.0208
     EDDAV:  cpu time   57.4428: real time   57.5786
    CHARGE:  cpu time    1.7153: real time    1.7194
    MIXING:  cpu time    0.0047: real time    0.0047
    --------------------------------------------
      LOOP:  cpu time   59.3014: real time   59.4416

 eigenvalue-minimisations  : 25184
 total energy-change (2. order) : 0.5291487E+00  (-0.2480872E+00)
 number of electron     512.0000012 magnetization      31.6935089
 augmentation part      219.7311839 magnetization      24.4413133

 Broyden mixing:
  rms(total) = 0.15877E+01    rms(broyden)= 0.15869E+01
  rms(prec ) = 0.22658E+01
  weight for this iteration     100.00

 eigenvalues of (default mixing * dielectric matrix)
  average eigenvalue GAMMA=   0.3536
  1.6496  0.7964  0.4731  0.4731  0.3877  0.3877  0.1462  0.1231  0.1231  0.0792
  0.0792  0.0810  0.0810  0.0694

 Free energy of the ion-electron system (eV)
  ---------------------------------------------------
  alpha Z        PSCENC =      1889.79557107
  Ewald energy   TEWEN  =    -38814.25562937
  -Hartree energ DENC   =    -12136.02501473
  -exchange      EXHF   =         0.00000000
  -V(xc)+E(xc)   XCENC  =      1916.63461928
  PAW double counting   =     49605.23367912   -51864.36110242
  entropy T*S    EENTRO =        -0.07980409
  eigenvalues    EBANDS =       772.18195002
  atomic energy  EATOM  =     48247.08154143
  Solvation  Ediel_sol  =         0.00000000
  ---------------------------------------------------
  free energy    TOTEN  =      -383.79418968 eV

  energy without entropy =     -383.71438560  energy(sigma->0) =     -383.75428764


--------------------------------------------------------------------------------------------------------




--------------------------------------- Iteration      1(  20)  ---------------------------------------


    POTLOK:  cpu time    0.1220: real time    0.1223
    SETDIJ:  cpu time    0.0214: real time    0.0214
     EDDAV:  cpu time   57.5823: real time   57.7184
    CHARGE:  cpu time    1.7534: real time    1.7575
    MIXING:  cpu time    0.0048: real time    0.0048
    --------------------------------------------
      LOOP:  cpu time   59.4839: real time   59.6245

 eigenvalue-minimisations  : 25200
 total energy-change (2. order) : 0.6679988E-01  (-0.9963939E-01)
 number of electron     512.0000012 magnetization      31.1841991
 augmentation part      219.6392065 magnetization      24.0244790

 Broyden mixing:
  rms(total) = 0.15367E+01    rms(broyden)= 0.15364E+01
  rms(prec ) = 0.21700E+01
  weight for this iteration     100.00

 eigenvalues of (default mixing * dielectric matrix)
  average eigenvalue GAMMA=   0.3419
  1.6442  0.7914  0.5019  0.5019  0.4041  0.4041  0.1507  0.1283  0.1283  0.0898
  0.0898  0.0798  0.0798  0.0675  0.0675

 Free energy of the ion-electron system (eV)
  ---------------------------------------------------
  alpha Z        PSCENC =      1889.79557107
  Ewald energy   TEWEN  =    -38814.25562937
  -Hartree energ DENC   =    -12137.54141532
  -exchange      EXHF   =         0.00000000
  -V(xc)+E(xc)   XCENC  =      1916.65671187
  PAW double counting   =     49610.87517616   -51868.69753494
  entropy T*S    EENTRO =        -0.08500860
  eigenvalues    EBANDS =       772.44319790
  atomic energy  EATOM  =     48247.08154143
  Solvation  Ediel_sol  =         0.00000000
  ---------------------------------------------------
  free energy    TOTEN  =      -383.72738981 eV

  energy without entropy =     -383.64238120  energy(sigma->0) =     -383.68488550


--------------------------------------------------------------------------------------------------------




--------------------------------------- Iteration      1(  21)  ---------------------------------------


    POTLOK:  cpu time    0.1243: real time    0.1246
    SETDIJ:  cpu time    0.0214: real time    0.0214
     EDDAV:  cpu time   58.6609: real time   58.7996
    CHARGE:  cpu time    1.7404: real time    1.7445
    MIXING:  cpu time    0.0049: real time    0.0049
    --------------------------------------------
      LOOP:  cpu time   60.5519: real time   60.6951

 eigenvalue-minimisations  : 25744
 total energy-change (2. order) : 0.2009265E+00  (-0.8013043E-01)
 number of electron     512.0000012 magnetization      30.6898096
 augmentation part      219.6127890 magnetization      23.6254862

 Broyden mixing:
  rms(total) = 0.12654E+01    rms(broyden)= 0.12651E+01
  rms(prec ) = 0.16651E+01
  weight for this iteration     100.00

 eigenvalues of (default mixing * dielectric matrix)
  average eigenvalue GAMMA=   0.3419
  1.6601  0.7854  0.5325  0.5325  0.4265  0.4265  0.2137  0.1499  0.1499  0.1080
  0.1080  0.0788  0.0788  0.0758  0.0758  0.0685

 Free energy of the ion-electron system (eV)
  ---------------------------------------------------
  alpha Z        PSCENC =      1889.79557107
  Ewald energy   TEWEN  =    -38814.25562937
  -Hartree energ DENC   =    -12138.66777095
  -exchange      EXHF   =         0.00000000
  -V(xc)+E(xc)   XCENC  =      1916.72690405
  PAW double counting   =     49624.84363298   -51880.97301275
  entropy T*S    EENTRO =        -0.07880001
  eigenvalues    EBANDS =       772.00110022
  atomic energy  EATOM  =     48247.08154143
  Solvation  Ediel_sol  =         0.00000000
  ---------------------------------------------------
  free energy    TOTEN  =      -383.52646332 eV

  energy without entropy =     -383.44766331  energy(sigma->0) =     -383.48706331


--------------------------------------------------------------------------------------------------------




--------------------------------------- Iteration      1(  22)  ---------------------------------------


    POTLOK:  cpu time    0.1227: real time    0.1230
    SETDIJ:  cpu time    0.0213: real time    0.0213
     EDDAV:  cpu time   58.2205: real time   58.3581
    CHARGE:  cpu time    1.7252: real time    1.7293
    MIXING:  cpu time    0.0051: real time    0.0051
    --------------------------------------------
      LOOP:  cpu time   60.0947: real time   60.2368

 eigenvalue-minimisations  : 25600
 total energy-change (2. order) :-0.1537725E+00  (-0.5099668E-01)
 number of electron     512.0000012 magnetization      29.8602196
 augmentation part      219.5589538 magnetization      22.8708521

 Broyden mixing:
  rms(total) = 0.13446E+01    rms(broyden)= 0.13443E+01
  rms(prec ) = 0.18097E+01
  weight for this iteration     100.00

 eigenvalues of (default mixing * dielectric matrix)
  average eigenvalue GAMMA=   0.3376
  1.6691  0.7910  0.5834  0.5834  0.4377  0.4377  0.2382  0.1604  0.1604  0.1136
  0.1136  0.0790  0.0790  0.0798  0.0798  0.0697  0.0631

 Free energy of the ion-electron system (eV)
  ---------------------------------------------------
  alpha Z        PSCENC =      1889.79557107
  Ewald energy   TEWEN  =    -38814.25562937
  -Hartree energ DENC   =    -12139.43475670
  -exchange      EXHF   =         0.00000000
  -V(xc)+E(xc)   XCENC  =      1916.80151342
  PAW double counting   =     49648.35921461   -51903.60030471
  entropy T*S    EENTRO =        -0.07412114
  eigenvalues    EBANDS =       771.64673562
  atomic energy  EATOM  =     48247.08154143
  Solvation  Ediel_sol  =         0.00000000
  ---------------------------------------------------
  free energy    TOTEN  =      -383.68023577 eV

  energy without entropy =     -383.60611463  energy(sigma->0) =     -383.64317520


--------------------------------------------------------------------------------------------------------




--------------------------------------- Iteration      1(  23)  ---------------------------------------


    POTLOK:  cpu time    0.1196: real time    0.1199
    SETDIJ:  cpu time    0.0211: real time    0.0211
     EDDAV:  cpu time   58.2811: real time   58.4188
    CHARGE:  cpu time    1.6818: real time    1.6858
    MIXING:  cpu time    0.0057: real time    0.0057
    --------------------------------------------
      LOOP:  cpu time   60.1093: real time   60.2514

 eigenvalue-minimisations  : 25632
 total energy-change (2. order) :-0.1208703E+00  (-0.4296779E-01)
 number of electron     512.0000012 magnetization      29.1232115
 augmentation part      219.5442816 magnetization      22.1989151

 Broyden mixing:
  rms(total) = 0.11665E+01    rms(broyden)= 0.11663E+01
  rms(prec ) = 0.15870E+01
  weight for this iteration     100.00

 eigenvalues of (default mixing * dielectric matrix)
  average eigenvalue GAMMA=   0.4100
  1.7292  1.0054  1.0054  0.8079  0.5216  0.5216  0.4091  0.4091  0.1395  0.1252
  0.1252  0.1092  0.0791  0.0791  0.0964  0.0783  0.0718  0.0674

 Free energy of the ion-electron system (eV)
  ---------------------------------------------------
  alpha Z        PSCENC =      1889.79557107
  Ewald energy   TEWEN  =    -38814.25562937
  -Hartree energ DENC   =    -12140.40532947
  -exchange      EXHF   =         0.00000000
  -V(xc)+E(xc)   XCENC  =      1917.00874963
  PAW double counting   =     49689.65248642   -51943.63019134
  entropy T*S    EENTRO =        -0.07963763
  eigenvalues    EBANDS =       771.03133319
  atomic energy  EATOM  =     48247.08154143
  Solvation  Ediel_sol  =         0.00000000
  ---------------------------------------------------
  free energy    TOTEN  =      -383.80110606 eV

  energy without entropy =     -383.72146843  energy(sigma->0) =     -383.76128725


--------------------------------------------------------------------------------------------------------




--------------------------------------- Iteration      1(  24)  ---------------------------------------


    POTLOK:  cpu time    0.1221: real time    0.1224
    SETDIJ:  cpu time    0.0209: real time    0.0209
     EDDAV:  cpu time   57.9674: real time   58.1044
    CHARGE:  cpu time    1.7036: real time    1.7077
    MIXING:  cpu time    0.0055: real time    0.0055
    --------------------------------------------
      LOOP:  cpu time   59.8196: real time   59.9609

 eigenvalue-minimisations  : 25408
 total energy-change (2. order) :-0.4662762E+00  (-0.1318868E+00)
 number of electron     512.0000012 magnetization      27.3753234
 augmentation part      219.5109588 magnetization      20.4614713

 Broyden mixing:
  rms(total) = 0.14504E+01    rms(broyden)= 0.14499E+01
  rms(prec ) = 0.20824E+01
  weight for this iteration     100.00

 eigenvalues of (default mixing * dielectric matrix)
  average eigenvalue GAMMA=   0.4447
  1.7835  1.3626  1.3626  0.7944  0.5796  0.5796  0.4578  0.4578  0.1414  0.1247
  0.1247  0.1198  0.0791  0.0791  0.0995  0.0905  0.0741  0.0726  0.0669

 Free energy of the ion-electron system (eV)
  ---------------------------------------------------
  alpha Z        PSCENC =      1889.79557107
  Ewald energy   TEWEN  =    -38814.25562937
  -Hartree energ DENC   =    -12140.82006259
  -exchange      EXHF   =         0.00000000
  -V(xc)+E(xc)   XCENC  =      1917.22975153
  PAW double counting   =     49729.30907325   -51982.47753465
  entropy T*S    EENTRO =        -0.06594020
  eigenvalues    EBANDS =       769.93584724
  atomic energy  EATOM  =     48247.08154143
  Solvation  Ediel_sol  =         0.00000000
  ---------------------------------------------------
  free energy    TOTEN  =      -384.26738230 eV

  energy without entropy =     -384.20144209  energy(sigma->0) =     -384.23441219


--------------------------------------------------------------------------------------------------------




--------------------------------------- Iteration      1(  25)  ---------------------------------------


    POTLOK:  cpu time    0.1249: real time    0.1252
    SETDIJ:  cpu time    0.0220: real time    0.0220
     EDDAV:  cpu time   59.0852: real time   59.2249
    CHARGE:  cpu time    1.7235: real time    1.7276
    MIXING:  cpu time    0.0057: real time    0.0057
    --------------------------------------------
      LOOP:  cpu time   60.9613: real time   61.1054

 eigenvalue-minimisations  : 26032
 total energy-change (2. order) :-0.2247966E+00  (-0.1853516E+00)
 number of electron     512.0000012 magnetization      26.6343332
 augmentation part      219.3139029 magnetization      19.8663929

 Broyden mixing:
  rms(total) = 0.12459E+01    rms(broyden)= 0.12447E+01
  rms(prec ) = 0.17229E+01
  weight for this iteration     100.00

[...]
   -.888E+01 0.167E+03 0.361E+03   0.123E+02 -.167E+03 -.362E+03   -.331E+01 0.954E-01 -.216E+01   -.305E-02 -.345E-01 -.244E-02
   0.564E+00 0.100E+03 0.931E+02   -.942E+00 -.991E+02 -.915E+02   -.899E+00 -.150E+01 -.190E+01   0.458E-02 -.317E-01 0.315E-02
   -.272E+03 0.180E+03 0.660E+02   0.272E+03 -.181E+03 -.680E+02   0.771E+00 0.601E+00 0.187E+01   -.688E-02 -.280E-01 0.166E-01
   -.157E+03 0.595E+02 0.184E+03   0.159E+03 -.594E+02 -.185E+03   -.118E+01 -.600E+00 0.902E+00   -.128E-01 -.219E-01 0.523E-02
   -.236E+02 0.173E+03 -.144E+03   0.234E+02 -.174E+03 0.147E+03   -.758E+00 -.383E+00 -.185E+01   -.370E-02 -.334E-01 0.980E-02
   -.107E+03 0.565E+02 -.122E+03   0.108E+03 -.557E+02 0.122E+03   -.817E+00 -.742E+00 0.523E-01   -.274E-02 -.260E-01 -.403E-02
   -.140E+03 0.234E+03 -.178E+03   0.139E+03 -.232E+03 0.177E+03   0.155E+01 -.503E+01 0.110E+01   -.251E-01 -.123E-01 -.173E-01
   -.172E+03 0.875E+01 -.201E+03   0.172E+03 -.868E+01 0.202E+03   0.723E+00 0.306E+00 0.428E+00   -.208E-02 -.449E-01 -.157E-02
   -.740E+02 -.133E+03 0.244E+03   0.746E+02 0.132E+03 -.245E+03   -.432E+00 0.198E+01 0.586E+00   -.143E-01 0.268E-01 -.152E-01
   -.137E+03 -.199E+03 0.694E+02   0.138E+03 0.201E+03 -.712E+02   0.164E+01 -.555E-01 0.137E+01   -.936E-02 0.328E-01 0.319E-02
   -.284E+03 -.133E+03 0.121E+03   0.285E+03 0.136E+03 -.122E+03   0.717E+00 0.423E-02 -.213E+01   0.923E-02 0.243E-01 -.254E-02
   -.209E+03 -.201E+03 0.257E+03   0.206E+03 0.199E+03 -.253E+03   0.319E+01 0.290E+01 -.443E+01   -.143E-01 0.231E-01 0.194E-01
   -.136E+03 0.205E+02 -.229E+03   0.137E+03 -.203E+02 0.231E+03   0.664E+00 -.177E+01 0.312E+00   -.151E-01 0.315E-01 0.122E-01
   -.131E+03 -.165E+03 -.209E+03   0.130E+03 0.165E+03 0.208E+03   0.255E+01 -.188E+00 0.136E+01   -.344E-01 0.275E-01 -.294E-02
   -.510E+02 0.112E+03 -.154E+03   0.504E+02 -.109E+03 0.154E+03   0.541E+00 -.427E+01 0.702E+00   -.206E-01 0.115E-01 -.560E-04
   -.160E+03 -.166E+03 -.244E+01   0.158E+03 0.166E+03 0.329E+01   0.170E+01 0.114E+01 -.211E+01   -.121E-01 0.436E-01 -.228E-01
   0.413E+02 0.198E+02 0.212E+02   -.413E+02 -.157E+02 -.204E+02   0.334E+00 -.402E+01 -.861E-01   -.136E-01 -.224E-01 0.486E-02
   -.143E+02 0.738E+02 0.125E+03   0.192E+02 -.762E+02 -.128E+03   -.392E+01 0.240E+01 0.193E+01   0.188E-01 -.169E-01 0.209E-01
   0.917E+02 0.593E+02 0.155E+03   -.907E+02 -.591E+02 -.161E+03   -.147E+01 -.343E+00 0.576E+01   0.320E-02 0.114E-02 0.260E-02
   0.133E+03 0.929E+02 0.903E+02   -.137E+03 -.975E+02 -.970E+02   0.337E+01 0.457E+01 0.621E+01   0.645E-02 -.155E-01 0.249E-01
   0.161E+02 0.402E+02 -.166E+03   -.139E+02 -.404E+02 0.173E+03   -.207E+01 0.369E+00 -.555E+01   0.287E-01 0.891E-02 -.106E-01
   0.142E+02 0.138E+03 -.469E+02   -.118E+02 -.143E+03 0.497E+02   -.258E+01 0.508E+01 -.365E+01   0.536E-02 -.150E-01 -.232E-01
   0.139E+03 0.889E+01 -.689E+02   -.143E+03 -.726E+01 0.724E+02   0.305E+01 -.117E+01 -.312E+01   0.206E-02 -.295E-01 -.653E-02
   0.162E+03 0.717E+02 -.832E+02   -.170E+03 -.731E+02 0.831E+02   0.745E+01 0.151E+01 0.389E+00   -.126E-01 -.201E-01 -.242E-01
   0.109E+03 -.168E+03 0.817E+02   -.117E+03 0.175E+03 -.880E+02   0.685E+01 -.643E+01 0.606E+01   -.145E-02 0.245E-01 0.643E-02
   -.205E+02 -.432E+02 0.133E+03   0.237E+02 0.460E+02 -.134E+03   -.120E+01 -.268E+01 0.615E+00   0.230E-02 0.190E-01 -.926E-02
   0.141E+03 -.143E+03 0.966E+02   -.145E+03 0.149E+03 -.987E+02   0.472E+01 -.505E+01 0.185E+01   0.107E-01 -.208E-02 0.826E-02
   0.173E+03 0.170E+02 0.167E+01   -.179E+03 -.228E+02 -.131E+01   0.542E+01 0.519E+01 0.784E+00   -.556E-02 0.225E-01 -.695E-02
   0.823E+02 -.149E+03 -.745E+02   -.894E+02 0.156E+03 0.756E+02   0.602E+01 -.530E+01 -.941E+00   0.243E-01 -.185E-02 -.617E-02
   0.551E+02 -.186E+02 -.685E+02   -.565E+02 0.178E+02 0.708E+02   0.131E+01 0.683E+00 -.258E+01   0.211E-02 0.174E-01 0.978E-02
   0.982E+02 -.106E+03 -.603E+02   -.101E+03 0.111E+03 0.615E+02   0.292E+01 -.487E+01 -.729E+00   0.173E-01 0.234E-01 -.894E-02
   0.120E+03 -.154E+02 -.109E+03   -.123E+03 0.162E+02 0.114E+03   0.234E+01 -.528E+00 -.420E+01   0.340E-01 0.237E-01 0.497E-02
   -.181E+03 0.854E+02 0.755E+02   0.189E+03 -.911E+02 -.808E+02   -.740E+01 0.361E+01 0.520E+01   0.251E-01 -.835E-02 0.116E-01
   -.139E+03 0.115E+03 0.138E+03   0.145E+03 -.121E+03 -.143E+03   -.498E+01 0.605E+01 0.539E+01   -.217E-01 -.902E-02 0.782E-02
   -.640E+02 0.547E+02 0.136E+03   0.685E+02 -.569E+02 -.141E+03   -.475E+01 0.201E+01 0.451E+01   -.481E-02 -.142E-01 -.245E-01
   -.667E+01 0.115E+03 -.132E+02   0.443E+01 -.124E+03 0.189E+02   0.182E+01 0.811E+01 -.297E+01   -.298E-02 -.202E-01 0.272E-02
   -.104E+03 -.827E+02 -.615E+02   0.106E+03 0.943E+02 0.633E+02   -.238E+01 -.918E+01 -.195E+01   -.233E-01 -.369E-01 -.840E-02
   -.124E+03 0.926E+02 -.523E+02   0.130E+03 -.985E+02 0.527E+02   -.537E+01 0.579E+01 -.624E+00   -.106E-01 0.501E-02 -.783E-02
   -.731E+02 0.645E+01 -.119E+03   0.757E+02 -.247E+01 0.124E+03   -.237E+01 -.384E+01 -.436E+01   -.270E-02 -.292E-01 0.351E-01
   -.488E+02 0.102E+03 -.131E+03   0.487E+02 -.106E+03 0.132E+03   0.183E+00 0.428E+01 -.131E+01   0.120E-01 -.129E-01 -.137E-01
   -.121E+03 -.110E+03 -.583E+01   0.124E+03 0.112E+03 0.121E+02   -.247E+01 -.223E+01 -.500E+01   0.948E-03 0.114E-01 0.382E-02
   -.765E+02 -.844E+01 0.117E+03   0.795E+02 0.567E+01 -.118E+03   -.263E+01 0.222E+01 0.283E+00   -.434E-02 0.698E-02 0.244E-01
   -.256E+02 -.823E+02 0.187E+03   0.230E+02 0.856E+02 -.193E+03   0.179E+01 -.375E+01 0.572E+01   -.147E-01 0.127E-01 -.303E-02
   -.281E+02 -.277E+02 0.928E+02   0.264E+02 0.278E+02 -.976E+02   0.670E+00 0.106E+00 0.332E+01   0.778E-02 0.357E-01 -.979E-02
   -.672E+02 -.163E+03 -.171E+03   0.695E+02 0.175E+03 0.180E+03   -.264E+01 -.107E+02 -.831E+01   -.242E-01 0.520E-01 0.160E-02
   -.103E+03 0.748E+01 -.132E+03   0.104E+03 -.864E+01 0.140E+03   -.386E+00 0.950E+00 -.528E+01   -.321E-02 -.147E-02 -.349E-01
   -.552E+02 -.160E+03 -.856E+02   0.565E+02 0.170E+03 0.879E+02   -.172E+01 -.873E+01 -.240E+01   -.189E-01 0.270E-01 0.940E-02
   -.140E+03 -.247E+02 -.902E+02   0.147E+03 0.254E+02 0.912E+02   -.637E+01 -.654E+00 -.903E+00   -.283E-01 0.119E-01 0.794E-02
 -----------------------------------------------------------------------------------------------
   0.574E+01 0.327E+02 0.795E+01   -.369E-12 -.647E-12 0.540E-12   -.576E+01 -.327E+02 -.795E+01   0.178E-01 0.332E-01 -.119E-01
 
 
 POSITION                                       TOTAL-FORCE (eV/Angst)
 -----------------------------------------------------------------------------------
      8.59900      8.47059      8.47736        -0.978510      0.133964      0.128811
      8.57384      2.03330      2.08046        -0.214820      0.094325     -0.776220
      2.04003      0.20108      2.04529        -0.209798     -1.138491      0.231924
      2.09719      2.03243      8.56709        -0.715765      0.008169     -0.288485
      8.56674      8.60863      3.98691        -0.110867     -0.840730      0.995137
      0.02058      2.13711      6.11554        -0.785261     -0.550765      0.456873
      1.91409      8.50925      6.33835         1.509639     -0.006480     -0.558766
      2.03429      1.98165      4.18736        -0.101184      0.300085     -1.115320
      8.56265      4.25871      8.52141        -1.224670     -1.257039      0.030367
      8.46541      6.16253      2.01860        -0.396404      1.075234     -0.495670
      2.00668      4.18390      2.11610        -0.308844     -0.721780     -1.125889
      2.10415      6.34421      8.56251        -0.495231      0.110015     -0.579809
      0.00623      4.15794      4.14791        -1.160204      0.141297     -0.490119
      8.47966      6.19382      6.17447        -0.061352      0.635161      0.238809
      2.02569      4.19560      6.25826        -0.562723     -1.008770      0.433508
      2.01287      6.32396      4.00356        -0.350481      0.760146      1.201100
      4.16353      0.06843      0.28213         0.057675      0.181510     -3.324062
      4.20160      2.07004      2.05675        -1.272198     -0.316595     -0.244697
      6.16561      0.03290      1.99623         0.768489     -0.523441     -0.142727
      6.34007      2.08580      8.54146         0.264773     -0.505050     -0.563232
      4.26185      0.07499      3.88304        -0.951169     -0.613411      1.822585
      4.03389      1.95942      6.25731         0.621558      0.072074      0.219566
      6.19643      0.13409      6.23282        -0.050750     -2.372259      0.268369
      6.22434      1.94308      4.05528         0.354248      0.333907      1.008433
      4.02809      3.92490      0.03971         0.228186      1.280992     -0.732150
      4.01532      6.12967      2.08243         2.137371      1.323720     -0.402161
      6.02631      3.93243      2.22336         1.701660      2.843790     -2.343518
      5.97150      6.06702      0.03864         0.630342      0.615550     -0.669551
      3.86348      4.27931      3.98532         1.699428     -1.542263      2.495587
      4.09068      6.22435      6.14829         1.192577      0.480153      0.322601
      6.29218      4.31755      6.17017        -0.075439     -1.711084      0.421733
      6.23899      6.22558      4.23185         0.215641      0.639113     -1.293107
      2.05334      2.15939      1.94648         0.242285      0.071366      0.671627
      1.83438      8.53576      0.08330         1.057675     -0.018697     -0.883661
      8.53086      2.08932      0.15460        -0.497956     -0.140138     -0.471815
      0.06901      8.42630      2.08842        -0.376335     -0.009832     -0.393246
      1.97723      2.01351      6.05035         0.176879      0.214661      1.438921
      2.08748      0.00006      4.25180        -0.228941     -0.644355     -0.838866
      8.61600      1.99435      3.99136        -0.378780      0.430113      0.375538
      0.04555      8.54712      6.15022        -1.001014      0.027275      0.200646
      2.16038      6.10336      2.09872        -0.933880      0.225806     -0.259769
      1.77403      4.04459      0.05278         2.032911      0.091825     -0.775440
      0.09327      6.15378      8.51881         0.187567      1.131961     -0.177410
      0.09911      4.27302      1.86496        -0.747699     -0.552911      1.134573
      2.26546      6.05587      6.31337        -1.062189      1.200553      0.125106
      1.94605      4.17039      4.20413        -0.037663     -0.159552     -0.323409
      8.56887      6.24640      4.01994        -0.083301     -0.159927      0.549436
      8.58284      4.13297      6.18444        -0.197977      0.257055      0.338384
      6.08800      2.14189      2.09211         0.853960     -2.109848     -0.179453
      6.10208      8.53864      8.54055         0.620384      0.275209     -0.000147
      4.15056      2.02108      8.46532        -0.246075     -0.192733     -0.330787
      4.15492      8.37149      1.98064        -0.421023     -1.146642      2.706849
      6.11081      1.90829      6.29730        -0.030269      2.445713     -0.232567
      6.19936      8.43747      4.20051         0.400287     -0.079313     -0.243811
      4.01583      2.12570      4.04286         0.201132      0.110959      0.339746
      3.99290      8.50696      5.99498         0.162693      0.029022      0.116582
      6.19954      6.11996      1.91939         0.071924      0.125318      1.279426
      6.28412      4.16778      8.62051         0.306551     -0.541310     -0.361232
      4.09384      6.25437      0.12907        -0.868040     -0.420250     -0.245497
      4.12076      4.11538      2.12606        -1.076376      0.171434     -1.482542
      6.16500      6.15030      6.13872        -0.373177      0.898295      0.509598
      6.17580      4.21173      3.99549         0.440853     -0.214260      2.273529
      4.18813      6.14752      4.07579        -0.443601      0.715960     -0.086694
      3.92199      4.01055      6.26710         0.893279      0.046197      0.096469
 -----------------------------------------------------------------------------------
    total drift:                                0.003665     -0.028871     -0.010619


--------------------------------------------------------------------------------------------------------



  FREE ENERGIE OF THE ION-ELECTRON SYSTEM (eV)
  ---------------------------------------------------
  free  energy   TOTEN  =      -385.6362512326 eV

  energy  without entropy=     -385.5920246073  energy(sigma->0) =     -385.61413792
 


--------------------------------------------------------------------------------------------------------


    POTLOK:  cpu time    0.1457: real time    0.1461


--------------------------------------------------------------------------------------------------------


     LOOP+:  cpu time 4135.3230: real time 4145.2887
    4ORBIT:  cpu time    0.0000: real time    0.0000

volume of typ            1:    31.7 %

volume of typ            2:     8.1 %
 
total charge     
 
# of ion       s       p       d       tot
------------------------------------------
    1        0.175   0.150   7.928   8.253
    2        0.202   0.205   7.941   8.348
    3        0.202   0.206   7.944   8.352
    4        0.192   0.188   7.927   8.307
    5        0.194   0.187   7.917   8.299
    6        0.179   0.166   7.960   8.305
    7        0.196   0.187   7.920   8.303
    8        0.221   0.245   7.930   8.395
    9        0.214   0.229   7.910   8.354
   10        0.194   0.185   7.909   8.288
   11        0.222   0.253   7.932   8.407
   12        0.186   0.174   7.897   8.257
   13        0.190   0.187   7.944   8.321
   14        0.157   0.130   7.948   8.235
   15        0.219   0.233   7.923   8.375
   16        0.190   0.182   7.931   8.304
   17        0.224   0.239   7.959   8.422
   18        0.209   0.224   7.992   8.425
   19        0.171   0.159   7.969   8.299
   20        0.172   0.156   7.912   8.240
   21        0.204   0.212   7.927   8.343
   22        0.190   0.187   7.917   8.293
   23        0.201   0.188   7.920   8.309
   24        0.178   0.164   7.956   8.298
   25        0.181   0.169   7.958   8.308
   26        0.224   0.252   7.934   8.410
   27        0.243   0.277   7.952   8.473
   28        0.212   0.211   7.903   8.326
   29        0.222   0.247   7.949   8.419
   30        0.198   0.193   7.936   8.327
   31        0.182   0.162   7.954   8.299
   32        0.193   0.194   7.922   8.309
   33        1.265   2.759   0.007   4.031
   34        1.260   2.748   0.006   4.014
   35        1.266   2.721   0.004   3.991
   36        1.264   2.731   0.005   4.000
   37        1.264   2.761   0.007   4.032
   38        1.275   2.716   0.005   3.996
   39        1.257   2.765   0.007   4.029
   40        1.263   2.721   0.005   3.989
   41        1.261   2.780   0.008   4.050
   42        1.272   2.738   0.006   4.017
   43        1.263   2.732   0.005   4.000
   44        1.270   2.749   0.007   4.026
   45        1.264   2.749   0.007   4.020
   46        1.264   2.771   0.008   4.044
   47        1.260   2.737   0.005   4.001
   48        1.259   2.748   0.006   4.013
   49        1.252   2.803   0.010   4.065
   50        1.264   2.713   0.004   3.981
   51        1.256   2.763   0.007   4.026
   52        1.261   2.789   0.011   4.061
   53        1.262   2.745   0.006   4.014
   54        1.264   2.729   0.005   3.998
   55        1.267   2.748   0.006   4.021
   56        1.271   2.698   0.004   3.972
   57        1.270   2.718   0.004   3.993
   58        1.262   2.732   0.004   3.998
   59        1.259   2.759   0.006   4.023
   60        1.265   2.789   0.010   4.065
   61        1.260   2.754   0.007   4.020
   62        1.267   2.749   0.007   4.023
   63        1.265   2.759   0.007   4.031
   64        1.271   2.721   0.005   3.996
--------------------------------------------------
tot          46.78   94.24  254.12  395.14
 
magnetization (x)
 
# of ion       s       p       d       tot
------------------------------------------
    1        0.007   0.007   1.294   1.308
    2        0.011   0.001   1.092   1.104
    3       -0.002   0.005   1.283   1.286
    4        0.005   0.006   1.304   1.315
    5        0.009   0.010   1.226   1.244
    6        0.001  -0.002  -1.215  -1.216
    7       -0.004   0.001  -1.163  -1.166
    8        0.000  -0.001  -1.120  -1.121
    9       -0.001  -0.000  -1.045  -1.046
   10        0.006   0.006   1.184   1.197
   11        0.001   0.002  -1.053  -1.050
   12        0.013   0.008   1.369   1.390
   13        0.001   0.003   1.263   1.267
   14        0.007   0.003   1.264   1.274
   15        0.001   0.000   1.125   1.126
   16        0.003   0.002   1.299   1.304
   17        0.008   0.017   1.250   1.275
   18        0.005   0.004   1.065   1.074
   19        0.008   0.006   1.311   1.325
   20        0.009   0.007   1.394   1.409
   21        0.006   0.006   1.148   1.160
   22        0.003   0.003   1.073   1.079
   23        0.005   0.013   1.385   1.404
   24        0.003  -0.001   1.296   1.299
   25        0.003   0.001   1.267   1.270
   26       -0.001   0.002  -0.928  -0.927
   27        0.004   0.011   1.143   1.158
   28        0.005   0.019   1.378   1.403
   29        0.002  -0.002  -1.115  -1.115
   30        0.008   0.008   0.787   0.803
   31       -0.002  -0.002  -1.238  -1.242
   32        0.000  -0.000  -1.225  -1.225
   33        0.011   0.162   0.000   0.172
   34        0.018   0.176   0.000   0.194
   35        0.009   0.112   0.000   0.122
   36        0.019   0.208   0.000   0.227
   37       -0.006  -0.110  -0.000  -0.116
   38        0.001   0.046  -0.000   0.047
   39        0.005   0.054   0.000   0.060
   40        0.004   0.032   0.000   0.036
   41        0.005   0.049   0.000   0.054
   42        0.000   0.064  -0.000   0.064
   43        0.009   0.109   0.000   0.118
   44       -0.001   0.002  -0.000   0.001
   45        0.014   0.150   0.000   0.164
   46        0.003   0.038   0.000   0.041
   47        0.016   0.158   0.000   0.175
   48        0.003   0.019   0.000   0.022
   49        0.022   0.217   0.001   0.239
   50        0.017   0.226   0.000   0.244
   51        0.022   0.225   0.000   0.248
   52        0.014   0.190   0.000   0.204
   53        0.012   0.179   0.000   0.192
   54        0.013   0.179   0.000   0.192
   55        0.007   0.111   0.000   0.118
   56        0.008   0.131   0.000   0.140
   57        0.007   0.169   0.000   0.177
   58        0.011   0.112   0.000   0.123
   59        0.013   0.145   0.000   0.158
   60        0.003   0.051  -0.000   0.054
   61       -0.001  -0.086  -0.000  -0.087
   62        0.001   0.010   0.000   0.010
   63       -0.002  -0.022  -0.000  -0.025
   64        0.007   0.048   0.000   0.055
--------------------------------------------------
tot           0.39    3.30   18.10   21.79
 

 total amount of memory used by VASP MPI-rank0   276607. kBytes
=======================================================================

   base      :      30000. kBytes
   nonlr-proj:      37837. kBytes
   fftplans  :       5538. kBytes
   grid      :      31719. kBytes
   one-center:       1990. kBytes
   wavefun   :     169523. kBytes
 
  
  
 General timing and accounting informations for this job:
 ========================================================
  
                  Total CPU time used (sec):     4176.097
                            User time (sec):     4169.687
                          System time (sec):        6.410
                         Elapsed time (sec):     4190.066
  
                   Maximum memory used (kb):      350044.
                   Average memory used (kb):           0.
  
                          Minor page faults:        42953
                          Major page faults:           53
                 Voluntary context switches:         1223
