 vasp.5.4.4.18Apr17-6-g9f103f2a35 (build May 12 2020 04:58:55) complex          
  
 MD_VERSION_INFO: Compiled 2020-05-12T11:58:55-UTC in devlin.sd.materialsdesign.
 com:/home/medea2/data/build/wwolf/vasp-gpu5.4.4/13047/x86_64/src/src/build/std 
 from svn 13047
 
 This VASP executable licensed from Materials Design, Inc.
 
 executed on                        Lin64 date 2023.03.23  18:12:23
 running on   16 total cores
 distrk:  each k-point on   16 cores,    1 groups
 distr:  one band on NCORES_PER_BAND=   1 cores,   16 groups


--------------------------------------------------------------------------------------------------------


 INCAR:
 POTCAR:    PAW_PBE Ni 02Aug2007                  
 POTCAR:    PAW_PBE O 08Apr2002                   

 ----------------------------------------------------------------------------- 
|                                                                             |
|           W    W    AA    RRRRR   N    N  II  N    N   GGGG   !!!           |
|           W    W   A  A   R    R  NN   N  II  NN   N  G    G  !!!           |
|           W    W  A    A  R    R  N N  N  II  N N  N  G       !!!           |
|           W WW W  AAAAAA  RRRRR   N  N N  II  N  N N  G  GGG   !            |
|           WW  WW  A    A  R   R   N   NN  II  N   NN  G    G                |
|           W    W  A    A  R    R  N    N  II  N    N   GGGG   !!!           |
|                                                                             |
|      For optimal performance we recommend to set                            |
|        NCORE= 4 - approx SQRT( number of cores)                             |
|      NCORE specifies how many cores store one orbital (NPAR=cpu/NCORE).     |
|      This setting can  greatly improve the performance of VASP for DFT.     |
|      The default,   NCORE=1            might be grossly inefficient         |
|      on modern multi-core architectures or massively parallel machines.     |
|      Do your own testing !!!!                                               |
|      Unfortunately you need to use the default for GW and RPA calculations. |
|      (for HF NCORE is supported but not extensively tested yet)             |
|                                                                             |
 ----------------------------------------------------------------------------- 

 POTCAR:    PAW_PBE Ni 02Aug2007                  
  local pseudopotential read in
  partial core-charges read in
  partial kinetic energy density read in
  atomic valenz-charges read in
  non local Contribution for L=           2  read in
    real space projection operators read in
  non local Contribution for L=           2  read in
    real space projection operators read in
  non local Contribution for L=           0  read in
    real space projection operators read in
  non local Contribution for L=           0  read in
    real space projection operators read in
  non local Contribution for L=           1  read in
    real space projection operators read in
  non local Contribution for L=           1  read in
    real space projection operators read in
    PAW grid and wavefunctions read in
 
   number of l-projection  operators is LMAX  =           6
   number of lm-projection operators is LMMAX =          18
 
 POTCAR:    PAW_PBE O 08Apr2002                   
  local pseudopotential read in
  partial core-charges read in
  partial kinetic energy density read in
  kinetic energy density of atom read in
  atomic valenz-charges read in
  non local Contribution for L=           0  read in
    real space projection operators read in
  non local Contribution for L=           0  read in
    real space projection operators read in
  non local Contribution for L=           1  read in
    real space projection operators read in
  non local Contribution for L=           1  read in
    real space projection operators read in
    PAW grid and wavefunctions read in
 
   number of l-projection  operators is LMAX  =           4
   number of lm-projection operators is LMMAX =           8
 
 Optimization of the real space projectors (new method)

 maximal supplied QI-value         = 16.25
 optimisation between [QCUT,QGAM] = [ 11.38, 22.75] = [ 36.24,144.96] Ry 
 Optimized for a Real-space Cutoff    1.47 Angstroem

   l    n(q)    QCUT    max X(q) W(low)/X(q) W(high)/X(q)  e(spline) 
   2      9    11.376    60.317    0.17E-03    0.16E-04    0.16E-06
   2      9    11.376    55.921    0.17E-03    0.16E-04    0.17E-06
   0     10    11.376    51.690    0.45E-04    0.60E-04    0.21E-06
   0     10    11.376    30.015    0.37E-04    0.55E-04    0.19E-06
   1     10    11.376    18.849    0.83E-04    0.11E-03    0.92E-07
   1     10    11.376    14.624    0.69E-04    0.92E-04    0.82E-07
 Optimization of the real space projectors (new method)

 maximal supplied QI-value         = 24.76
 optimisation between [QCUT,QGAM] = [ 11.39, 22.77] = [ 36.31,145.25] Ry 
 Optimized for a Real-space Cutoff    1.10 Angstroem

   l    n(q)    QCUT    max X(q) W(low)/X(q) W(high)/X(q)  e(spline) 
   0      7    11.387    20.381    0.22E-03    0.48E-03    0.18E-06
   0      7    11.387    15.268    0.22E-03    0.52E-03    0.19E-06
   1      7    11.387     5.964    0.22E-03    0.73E-03    0.24E-06
   1      7    11.387     5.382    0.19E-03    0.60E-03    0.21E-06

 ----------------------------------------------------------------------------- 
|                                                                             |
|  ADVICE TO THIS USER RUNNING 'VASP/VAMP'   (HEAR YOUR MASTER'S VOICE ...):  |
|                                                                             |
|      You enforced a specific xc-type in the INCAR file,                     |
|      a different type was found on the POTCAR file                          |
|          I HOPE YOU KNOW, WHAT YOU ARE  DOING                               |
|                                                                             |
 ----------------------------------------------------------------------------- 

  PAW_PBE Ni 02Aug2007                  :
 energy of atom  1       EATOM=-1077.6739
 kinetic energy error for atom=    0.0030 (will be added to EATOM!!)
  PAW_PBE O 08Apr2002                   :
 energy of atom  2       EATOM= -432.3788
 kinetic energy error for atom=    0.0224 (will be added to EATOM!!)
 
 
 POSCAR: NiO_Fm-3m_scale_1_025_disp_0_05_round_1 
  positions in direct lattice
  No initial velocities read in
 exchange correlation table for  LEXCH =       14
   RHO(1)=    0.500       N(1)  =     2000
   RHO(2)=  100.500       N(2)  =     4000
 


--------------------------------------------------------------------------------------------------------


 ion  position               nearest neighbor table
   1  0.008  0.995  0.998-  34 2.04  36 2.07  35 2.12  40 2.24  50 2.28  43 2.29   3 2.83   2 2.86
                             4 2.92   7 2.92  10 3.00  12 3.00   6 3.04  19 3.08
   2  0.994  0.238  0.235-  36 1.93  35 2.05  33 2.15  44 2.17  39 2.18  49 2.19   9 2.82   4 2.84
                             1 2.86   8 2.87   5 2.88   3 2.91  19 2.93  13 2.98  27 2.98  11 2.99
   3  0.247  0.002  0.234-  34 1.92  33 2.05  52 2.05  36 2.06  38 2.15  41 2.29   4 2.80   1 2.83
                             2 2.91  18 2.92  21 2.92  17 2.93   8 2.93   5 2.98  12 3.02  10 3.02
   4  0.245  0.248  0.011-  33 1.94  51 1.96  34 2.02  42 2.05  35 2.06  37 2.38   3 2.80   2 2.84
                            11 2.84  25 2.89  18 2.91   1 2.92  17 2.93   9 2.94   6 3.04   7 3.07
   5  0.001  0.007  0.488-  39 2.04  36 2.06  40 2.06  38 2.06  54 2.23  47 2.28   8 2.87   2 2.88
                             6 2.91   7 2.95   3 2.98  19 3.01  23 3.06  14 3.08
   6  0.010  0.246  0.738-  37 1.97  39 2.06  40 2.08  48 2.14  35 2.14  53 2.31   7 2.83  15 2.88
                             5 2.91   8 2.92  13 2.93   4 3.04   1 3.04   9 3.06  31 3.07
   7  0.242  0.003  0.742-  40 2.03  56 2.06  37 2.06  38 2.13  45 2.22  34 2.23   6 2.83  22 2.86
                             1 2.92   5 2.95  21 2.95  17 2.97  14 2.99   4 3.07   8 3.07
   8  0.236  0.252  0.475-  46 1.95  33 1.98  55 2.04  38 2.07  39 2.09  37 2.13  11 2.80  13 2.81
                             5 2.87   2 2.87  29 2.89  18 2.90   6 2.92   3 2.93  15 2.94  21 2.98
   9  0.990  0.485  0.010-  35 2.02  43 2.02  42 2.05  44 2.09  58 2.16  48 2.34   2 2.82  27 2.84
                            10 2.87  11 2.90   4 2.94  12 2.96  28 2.98  20 3.00   6 3.06
  10  0.006  0.736  0.241-  41 1.97  47 2.03  44 2.04  43 2.10  36 2.30  57 2.37  12 2.84  11 2.86
                             9 2.87  16 2.90  13 2.95   1 3.00   3 3.02  28 3.04  27 3.06  32 3.08
  11  0.242  0.491  0.245-  44 1.99  41 2.01  46 2.05  60 2.08  33 2.08  42 2.12   8 2.80   4 2.84
                            12 2.85  10 2.86   9 2.90  16 2.90  13 2.90  25 2.90  29 2.91  26 2.93
  12  0.244  0.729  0.003-  42 2.01  59 2.03  41 2.07  43 2.19  45 2.29  34 2.36  25 2.82  10 2.84
                            11 2.85  26 2.88   9 2.96   1 3.00   3 3.02  14 3.02  15 3.05  30 3.08
  13  0.998  0.486  0.487-  44 1.94  39 2.00  46 2.03  48 2.08  47 2.12  62 2.24   8 2.81  15 2.84
                            11 2.90  16 2.92   6 2.93  14 2.95  10 2.95   2 2.98  27 2.99  32 3.03
  14  0.009  0.736  0.732-  45 1.91  48 1.99  47 2.11  43 2.21  40 2.23  61 2.37  15 2.78  16 2.82
                            13 2.95   7 2.99  12 3.02  31 3.06   5 3.08
  15  0.239  0.500  0.722-  46 1.98  48 1.99  45 2.03  64 2.11  37 2.12  42 2.29  16 2.75  14 2.78
                            13 2.84   6 2.88  29 2.89   8 2.94  30 2.95  22 3.03  12 3.05
  16  0.243  0.731  0.492-  63 1.92  45 2.02  41 2.05  47 2.07  46 2.08  38 2.33  15 2.75  14 2.82
                            11 2.90  10 2.90  13 2.92  29 2.93  26 3.00  30 3.01  21 3.05
  17  0.494  0.005  0.989-  50 2.06  34 2.07  52 2.12  51 2.12  56 2.19  59 2.26  20 2.83  22 2.92
                             3 2.93   4 2.93  18 2.97  23 2.97   7 2.97  19 2.98  28 3.08
  18  0.495  0.243  0.249-  49 2.02  52 2.05  60 2.07  33 2.07  51 2.07  55 2.08  24 2.75  20 2.85
                            29 2.86  21 2.87  19 2.88   8 2.90   4 2.91   3 2.92  27 2.93  17 2.97
  19  0.738  0.003  0.245-  54 2.02  49 2.08  50 2.08  52 2.09  36 2.23  57 2.36  24 2.88  18 2.88
                            20 2.92   2 2.93  21 2.96  17 2.98   5 3.01  32 3.06  28 3.07  26 3.07
  20  0.724  0.249  0.001-  58 1.97  49 2.00  50 2.03  51 2.08  53 2.18  35 2.33  17 2.83  27 2.84
                            18 2.85  25 2.90  19 2.92   9 3.00  31 3.01   2 3.02  22 3.02
  21  0.484  0.001  0.488-  38 2.01  56 2.03  55 2.08  52 2.09  54 2.12  63 2.25  23 2.84  18 2.87
                            22 2.87  24 2.89   3 2.92   7 2.95  19 2.96   8 2.98  16 3.05  26 3.08
  22  0.486  0.239  0.733-  55 2.01  56 2.04  37 2.05  64 2.07  53 2.11  51 2.29   7 2.86  21 2.87
                            24 2.90  23 2.91  17 2.92  29 2.93  31 3.02   8 3.02  20 3.02  15 3.03
  23  0.725  0.990  0.723-  54 2.02  56 2.02  53 2.16  61 2.23  50 2.32  40 2.33  21 2.84  30 2.89
                            22 2.91  32 2.95  24 2.96  17 2.97   5 3.06
  24  0.722  0.247  0.483-  62 2.03  54 2.05  55 2.06  49 2.07  53 2.18  39 2.25  18 2.75  29 2.81
                            19 2.88  27 2.88  21 2.89  22 2.90  23 2.96  31 2.98  13 3.07
  25  0.483  0.495  0.999-  51 2.01  59 2.04  60 2.06  42 2.11  58 2.12  64 2.27  12 2.82  26 2.85
                             4 2.89  20 2.90  11 2.90  28 2.97  30 2.97  27 2.98  18 2.99  31 3.08
  26  0.492  0.734  0.239-  57 1.97  59 2.05  60 2.07  63 2.12  41 2.13  52 2.25  25 2.85  12 2.88
                            28 2.91  32 2.92  11 2.93  29 2.96  27 2.97  16 3.00   3 3.06  19 3.07
  27  0.743  0.486  0.239-  58 1.97  49 2.00  57 2.00  60 2.14  62 2.14  44 2.22   9 2.84  20 2.84
                            24 2.88  28 2.92  18 2.93  32 2.94  26 2.97  25 2.98   2 2.98  13 2.99
  28  0.740  0.736  0.998-  57 2.03  43 2.06  58 2.13  59 2.15  61 2.15  50 2.30  26 2.91  27 2.92
                            25 2.97  30 2.98   9 2.98  31 3.00  10 3.04  19 3.07  17 3.08
  29  0.488  0.485  0.487-  55 2.00  64 2.04  60 2.05  62 2.06  63 2.10  46 2.10  24 2.81  18 2.86
                            15 2.89   8 2.89  11 2.91  16 2.93  22 2.93  32 2.94  26 2.96  30 2.99
  30  0.499  0.733  0.740-  61 1.93  64 2.10  63 2.12  59 2.15  45 2.21  56 2.23  31 2.88  23 2.89
                            32 2.92  15 2.95  25 2.97  28 2.98  29 2.99  16 3.01  12 3.08
  31  0.740  0.491  0.739-  61 1.99  53 2.07  62 2.07  64 2.12  48 2.21  58 2.25  30 2.88  32 2.94
                            24 2.98  28 3.00  29 3.01  20 3.01  22 3.02  13 3.04  14 3.06   6 3.07
  32  0.735  0.732  0.486-  62 2.05  57 2.10  61 2.17  47 2.21  63 2.22  54 2.30  30 2.92  26 2.92
                            27 2.94  31 2.94  29 2.94  23 2.95  13 3.03  19 3.06  10 3.08
  33  0.250  0.245  0.241-   4 1.94   8 1.98   3 2.05  18 2.07  11 2.08   2 2.15
  34  0.249  0.009  0.006-   3 1.92   4 2.02   1 2.04  17 2.07   7 2.23  12 2.36
  35  0.001  0.247  0.992-   9 2.02   2 2.05   4 2.06   1 2.12   6 2.14  20 2.33
  36  0.003  0.008  0.244-   2 1.93   3 2.06   5 2.06   1 2.07  19 2.23  10 2.30
  37  0.243  0.248  0.728-   6 1.97  22 2.05   7 2.06  15 2.12   8 2.13   4 2.38
  38  0.246  0.008  0.490-  21 2.01   5 2.06   8 2.07   7 2.13   3 2.15  16 2.33
  39  0.988  0.249  0.494-  13 2.00   5 2.04   6 2.06   8 2.09   2 2.18  24 2.25
  40  0.001  1.000  0.732-   7 2.03   5 2.06   6 2.08  14 2.23   1 2.24  23 2.33
  41  0.240  0.730  0.249-  10 1.97  11 2.01  16 2.05  12 2.07  26 2.13   3 2.29
  42  0.233  0.490  0.994-  12 2.01   9 2.05   4 2.05  25 2.11  11 2.12  15 2.29
  43  0.985  0.724  0.993-   9 2.02  28 2.06  10 2.10  12 2.19  14 2.21   1 2.29
  44  0.006  0.494  0.257-  13 1.94  11 1.99  10 2.04   9 2.09   2 2.17  27 2.22
  45  0.236  0.740  0.731-  14 1.91  16 2.02  15 2.03  30 2.21   7 2.22  12 2.29
  46  0.238  0.484  0.488-   8 1.95  15 1.98  13 2.03  11 2.05  16 2.08  29 2.10
  47  0.997  0.737  0.482-  10 2.03  16 2.07  14 2.11  13 2.12  32 2.21   5 2.28
  48  0.003  0.500  0.734-  14 1.99  15 1.99  13 2.08   6 2.14  31 2.21   9 2.34
  49  0.735  0.250  0.237-  27 2.00  20 2.00  18 2.02  24 2.07  19 2.08   2 2.19
  50  0.738  0.008  0.998-  20 2.03  17 2.06  19 2.08   1 2.28  28 2.30  23 2.32
  51  0.477  0.256  0.004-   4 1.96  25 2.01  18 2.07  20 2.08  17 2.12  22 2.29
  52  0.491  0.000  0.240-  18 2.05   3 2.05  19 2.09  21 2.09  17 2.12  26 2.25
  53  0.736  0.246  0.742-  31 2.07  22 2.11  23 2.16  20 2.18  24 2.18   6 2.31
  54  0.736  0.004  0.484-  19 2.02  23 2.02  24 2.05  21 2.12   5 2.23  32 2.30
  55  0.477  0.247  0.495-  29 2.00  22 2.01   8 2.04  24 2.06  18 2.08  21 2.08
  56  0.485  0.997  0.729-  23 2.02  21 2.03  22 2.04   7 2.06  17 2.19  30 2.23
  57  0.726  0.723  0.238-  26 1.97  27 2.00  28 2.03  32 2.10  19 2.36  10 2.37
  58  0.734  0.482  0.006-  27 1.97  20 1.97  25 2.12  28 2.13   9 2.16  31 2.25
  59  0.485  0.737  0.995-  12 2.03  25 2.04  26 2.05  28 2.15  30 2.15  17 2.26
  60  0.489  0.488  0.243-  29 2.05  25 2.06  18 2.07  26 2.07  11 2.08  27 2.14
  61  0.728  0.727  0.743-  30 1.93  31 1.99  28 2.15  32 2.17  23 2.23  14 2.37
  62  0.732  0.488  0.493-  24 2.03  32 2.05  29 2.06  31 2.07  27 2.14  13 2.24
  63  0.471  0.734  0.489-  16 1.92  29 2.10  26 2.12  30 2.12  32 2.22  21 2.25
  64  0.488  0.484  0.729-  29 2.04  22 2.07  30 2.10  15 2.11  31 2.12  25 2.27
 
  LATTYP: Found a simple cubic cell.
 ALAT       =     8.4253872500
  
  Lattice vectors:
  
 A1 = (   8.4253872500,   0.0000000000,   0.0000000000)
 A2 = (   0.0000000000,   8.4253872500,   0.0000000000)
 A3 = (   0.0000000000,   0.0000000000,   8.4253872500)


Analysis of symmetry for initial positions (statically):
=====================================================================
 Subroutine PRICEL returns:
 Original cell was already a primitive cell.
 

 Routine SETGRP: Setting up the symmetry group for a 
 simple cubic supercell.


 Subroutine GETGRP returns: Found  1 space group operations
 (whereof  1 operations were pure point group operations)
 out of a pool of 48 trial point group operations.


The static configuration has the point symmetry C_1 .


Analysis of symmetry for dynamics (positions and initial velocities):
=====================================================================
 Subroutine PRICEL returns:
 Original cell was already a primitive cell.
 

 Routine SETGRP: Setting up the symmetry group for a 
 simple cubic supercell.


 Subroutine GETGRP returns: Found  1 space group operations
 (whereof  1 operations were pure point group operations)
 out of a pool of 48 trial point group operations.


The dynamic configuration has the point symmetry C_1 .


Analysis of structural, dynamic, and magnetic symmetry:
=====================================================================
 Subroutine PRICEL returns:
 Original cell was already a primitive cell.
 

 Routine SETGRP: Setting up the symmetry group for a 
 simple cubic supercell.


 Subroutine GETGRP returns: Found  1 space group operations
 (whereof  1 operations were pure point group operations)
 out of a pool of 48 trial point group operations.


The magnetic configuration has the point symmetry C_1 .


 Subroutine INISYM returns: Found  1 space group operations
 (whereof  1 operations are pure point group operations),
 and found     1 'primitive' translations

 
 
 KPOINTS: Automatic mesh                          

Automatic generation of k-mesh.
Space group operators:
 irot       det(A)        alpha          n_x          n_y          n_z        tau_x        tau_y        tau_z
    1     1.000000     0.000000     1.000000     0.000000     0.000000     0.000000     0.000000     0.000000
 
 Subroutine IBZKPT returns following result:
 ===========================================
 
 Found     14 irreducible k-points:
 
 Following reciprocal coordinates:
            Coordinates               Weight
  0.000000  0.000000  0.000000      1.000000
  0.333333  0.000000  0.000000      2.000000
  0.000000  0.333333  0.000000      2.000000
  0.333333  0.333333  0.000000      2.000000
 -0.333333  0.333333  0.000000      2.000000
  0.000000  0.000000  0.333333      2.000000
  0.333333  0.000000  0.333333      2.000000
 -0.333333  0.000000  0.333333      2.000000
  0.000000  0.333333  0.333333      2.000000
  0.333333  0.333333  0.333333      2.000000
 -0.333333  0.333333  0.333333      2.000000
  0.000000 -0.333333  0.333333      2.000000
  0.333333 -0.333333  0.333333      2.000000
 -0.333333 -0.333333  0.333333      2.000000
 
 Following cartesian coordinates:
            Coordinates               Weight
  0.000000  0.000000  0.000000      1.000000
  0.039563  0.000000  0.000000      2.000000
  0.000000  0.039563  0.000000      2.000000
  0.039563  0.039563  0.000000      2.000000
 -0.039563  0.039563  0.000000      2.000000
  0.000000  0.000000  0.039563      2.000000
  0.039563  0.000000  0.039563      2.000000
 -0.039563  0.000000  0.039563      2.000000
  0.000000  0.039563  0.039563      2.000000
  0.039563  0.039563  0.039563      2.000000
 -0.039563  0.039563  0.039563      2.000000
  0.000000 -0.039563  0.039563      2.000000
  0.039563 -0.039563  0.039563      2.000000
 -0.039563 -0.039563  0.039563      2.000000
 


--------------------------------------------------------------------------------------------------------




 Dimension of arrays:
   k-points           NKPTS =     14   k-points in BZ     NKDIM =     14   number of bands    NBANDS=    352
   number of dos      NEDOS =    301   number of ions     NIONS =     64
   non local maximal  LDIM  =      6   non local SUM 2l+1 LMDIM =     18
   total plane-waves  NPLWV = 262144
   max r-space proj   IRMAX =   5934   max aug-charges    IRDMAX=  14405
   dimension x,y,z NGX =    64 NGY =   64 NGZ =   64
   dimension x,y,z NGXF=   128 NGYF=  128 NGZF=  128
   support grid    NGXF=   128 NGYF=  128 NGZF=  128
   ions per type =              32  32
   NGX,Y,Z   is equivalent  to a cutoff of  12.63, 12.63, 12.63 a.u.
   NGXF,Y,Z  is equivalent  to a cutoff of  25.26, 25.26, 25.26 a.u.

 SYSTEM =  unknown system                          
 POSCAR =  NiO_Fm-3m_scale_1_025_disp_0_05_round_1 

 Startparameter for this run:
   NWRITE =      1    write-flag & timer
   PREC   = accura    normal or accurate (medium, high low for compatibility)
   ISTART =      0    job   : 0-new  1-cont  2-samecut
   ICHARG =      2    charge: 1-file 2-atom 10-const
   ISPIN  =      2    spin polarized calculation?
   LNONCOLLINEAR =      F non collinear calculations
   LSORBIT =      F    spin-orbit coupling
   INIWAV =      1    electr: 0-lowe 1-rand  2-diag
   LASPH  =      F    aspherical Exc in radial PAW
   METAGGA=      F    non-selfconsistent MetaGGA calc.

 Electronic Relaxation 1
   ENCUT  =  500.0 eV  36.75 Ry    6.06 a.u.  15.36 15.36 15.36*2*pi/ulx,y,z
   ENINI  =  500.0     initial cutoff
   ENAUG  =  605.4 eV  augmentation charge cutoff
   NELM   =     80;   NELMIN=  2; NELMDL= -5     # of ELM steps 
   EDIFF  = 0.1E-04   stopping-criterion for ELM
   LREAL  =      T    real-space projection
   NLSPLINE    = F    spline interpolate recip. space projectors
   LCOMPAT=      F    compatible to vasp.4.4
   GGA_COMPAT  = T    GGA compatible to vasp.4.4-vasp.4.6
   LMAXPAW     = -100 max onsite density
   LMAXMIX     =    2 max onsite mixed and CHGCAR
   VOSKOWN=      1    Vosko Wilk Nusair interpolation
   ROPT   =   -0.00025  -0.00025
 Ionic relaxation
   EDIFFG = 0.1E-03   stopping-criterion for IOM
   NSW    =      0    number of steps for IOM
   NBLOCK =      1;   KBLOCK =      1    inner block; outer block 
   IBRION =     -1    ionic relax: 0-MD 1-quasi-New 2-CG
   NFREE  =      0    steps in history (QN), initial steepest desc. (CG)
   ISIF   =      2    stress and relaxation
   IWAVPR =     10    prediction:  0-non 1-charg 2-wave 3-comb
   ISYM   =      2    0-nonsym 1-usesym 2-fastsym
   LCORR  =      T    Harris-Foulkes like correction to forces

   POTIM  = 0.5000    time-step for ionic-motion
   TEIN   =    0.0    initial temperature
   TEBEG  =    0.0;   TEEND  =   0.0 temperature during run
   SMASS  =  -3.00    Nose mass-parameter (am)
   estimated Nose-frequenzy (Omega)   =  0.10E-29 period in steps =****** mass=  -0.162E-26a.u.
   SCALEE = 1.0000    scale energy and forces
   NPACO  =    256;   APACO  = 16.0  distance and # of slots for P.C.
   PSTRESS=    0.0 pullay stress

  Mass of Ions in am
   POMASS =  58.69 16.00
  Ionic Valenz
   ZVAL   =  10.00  6.00
  Atomic Wigner-Seitz radii
   RWIGS  =   1.15  0.73
  virtual crystal weights 
   VCA    =   1.00  1.00
   NELECT =     512.0000    total number of electrons
   NUPDOWN=      -1.0000    fix difference up-down

 DOS related values:
   EMIN   =  10.00;   EMAX   =-10.00  energy-range for DOS
   EFERMI =   0.00
   ISMEAR =     0;   SIGMA  =   0.05  broadening in eV -4-tet -1-fermi 0-gaus

 Electronic relaxation 2 (details)
   IALGO  =     38    algorithm
   LDIAG  =      T    sub-space diagonalisation (order eigenvalues)
   LSUBROT=      F    optimize rotation matrix (better conditioning)
   TURBO    =      0    0=normal 1=particle mesh
   IRESTART =      0    0=no restart 2=restart with 2 vectors
   NREBOOT  =      0    no. of reboots
   NMIN     =      0    reboot dimension
   EREF     =   0.00    reference energy to select bands
   IMIX   =      4    mixing-type and parameters
     AMIX     =   0.40;   BMIX     =  1.00
     AMIX_MAG =   1.60;   BMIX_MAG =  1.00
     AMIN     =   0.10
     WC   =   100.;   INIMIX=   1;  MIXPRE=   1;  MAXMIX= -45

 Intra band minimization:
   WEIMIN = 0.0000     energy-eigenvalue tresh-hold
   EBREAK =  0.71E-08  absolut break condition
   DEPER  =   0.30     relativ break condition  

   TIME   =   0.40     timestep for ELM

  volume/ion in A,a.u.               =       9.35        63.06
  Fermi-wavevector in a.u.,A,eV,Ry     =   1.554444  2.937472 32.875685  2.416295
  Thomas-Fermi vector in A             =   2.658529
 
 Write flags
   LWAVE        =      F    write WAVECAR
   LDOWNSAMPLE  =      F    k-point downsampling of WAVECAR
   LCHARG       =      T    write CHGCAR
   LVTOT        =      F    write LOCPOT, total local potential
   LVHAR        =      F    write LOCPOT, Hartree potential only
   LELF         =      F    write electronic localiz. function (ELF)
   LORBIT       =      0    0 simple, 1 ext, 2 COOP (PROOUT), +10 PAW based schemes


 Dipole corrections
   LMONO  =      F    monopole corrections only (constant potential shift)
   LDIPOL =      F    correct potential (dipole corrections)
   IDIPOL =      0    1-x, 2-y, 3-z, 4-all directions 
   EPSILON=  1.0000000 bulk dielectric constant

 Exchange correlation treatment:
   GGA     =    PS    GGA type
   LEXCH   =    14    internal setting for exchange type
   VOSKOWN=      1    Vosko Wilk Nusair interpolation
   LHFCALC =     F    Hartree Fock is set to
   LHFONE  =     F    Hartree Fock one center treatment
   AEXX    =    0.0000 exact exchange contribution

 Linear response parameters
   LEPSILON=     F    determine dielectric tensor
   LRPA    =     F    only Hartree local field effects (RPA)
   LNABLA  =     F    use nabla operator in PAW spheres
   LVEL    =     F    velocity operator in full k-point grid
   LINTERFAST=   F  fast interpolation
   KINTER  =     0    interpolate to denser k-point grid
   CSHIFT  =0.1000    complex shift for real part using Kramers Kronig
   OMEGAMAX=  -1.0    maximum frequency
   DEG_THRESHOLD= 0.2000000E-02 threshold for treating states as degnerate
   RTIME   =   -0.100 relaxation time in fs
  (WPLASMAI=    0.000 imaginary part of plasma frequency in eV, 0.658/RTIME)
   DFIELD  = 0.0000000 0.0000000 0.0000000 field for delta impulse in time
 
 Orbital magnetization related:
   ORBITALMAG=     F  switch on orbital magnetization
   LCHIMAG   =     F  perturbation theory with respect to B field
   DQ        =  0.001000  dq finite difference perturbation B field
   LLRAUG    =     F  two centre corrections for induced B field



--------------------------------------------------------------------------------------------------------


 Static calculation
 charge density and potential will be updated during run
 spin polarized calculation
 Variant of blocked Davidson
 Davidson routine will perform the subspace rotation
 perform sub-space diagonalisation
    after iterative eigenvector-optimisation
 modified Broyden-mixing scheme, WC =      100.0
 initial mixing is a Kerker type mixing with AMIX =  0.4000 and BMIX =      1.0000
 Hartree-type preconditioning will be used
 using additional bands           96
 real space projection scheme for non local part
 use partial core corrections
 calculate Harris-corrections to forces 
   (improved forces if not selfconsistent)
 use gradient corrections 
 use of overlap-Matrix (Vanderbilt PP)
 Gauss-broadening in eV      SIGMA  =   0.05


--------------------------------------------------------------------------------------------------------


  energy-cutoff  :      500.00
  volume of cell :      598.09
      direct lattice vectors                 reciprocal lattice vectors
     8.425387250  0.000000000  0.000000000     0.118688907  0.000000000  0.000000000
     0.000000000  8.425387250  0.000000000     0.000000000  0.118688907  0.000000000
     0.000000000  0.000000000  8.425387250     0.000000000  0.000000000  0.118688907

  length of vectors
     8.425387250  8.425387250  8.425387250     0.118688907  0.118688907  0.118688907


 
 k-points in units of 2pi/SCALE and weight: Automatic mesh                          
   0.00000000  0.00000000  0.00000000       0.037
   0.03956297  0.00000000  0.00000000       0.074
   0.00000000  0.03956297  0.00000000       0.074
   0.03956297  0.03956297  0.00000000       0.074
  -0.03956297  0.03956297  0.00000000       0.074
   0.00000000  0.00000000  0.03956297       0.074
   0.03956297  0.00000000  0.03956297       0.074
  -0.03956297  0.00000000  0.03956297       0.074
   0.00000000  0.03956297  0.03956297       0.074
   0.03956297  0.03956297  0.03956297       0.074
  -0.03956297  0.03956297  0.03956297       0.074
   0.00000000 -0.03956297  0.03956297       0.074
   0.03956297 -0.03956297  0.03956297       0.074
  -0.03956297 -0.03956297  0.03956297       0.074
 
 k-points in reciprocal lattice and weights: Automatic mesh                          
   0.00000000  0.00000000  0.00000000       0.037
   0.33333333  0.00000000  0.00000000       0.074
   0.00000000  0.33333333  0.00000000       0.074
   0.33333333  0.33333333  0.00000000       0.074
  -0.33333333  0.33333333  0.00000000       0.074
   0.00000000  0.00000000  0.33333333       0.074
   0.33333333  0.00000000  0.33333333       0.074
  -0.33333333  0.00000000  0.33333333       0.074
   0.00000000  0.33333333  0.33333333       0.074
   0.33333333  0.33333333  0.33333333       0.074
  -0.33333333  0.33333333  0.33333333       0.074
   0.00000000 -0.33333333  0.33333333       0.074
   0.33333333 -0.33333333  0.33333333       0.074
  -0.33333333 -0.33333333  0.33333333       0.074
 
 position of ions in fractional coordinates (direct lattice) 
   0.00788814  0.99543028  0.99812305
   0.99412009  0.23754774  0.23536447
   0.24725194  0.00175495  0.23425063
   0.24520544  0.24793077  0.01121179
   0.00072203  0.00716645  0.48779277
   0.00966006  0.24600616  0.73786447
   0.24161362  0.00308483  0.74171625
   0.23603358  0.25238266  0.47540572
   0.99033426  0.48547644  0.01009433
   0.00629840  0.73583653  0.24131509
   0.24192662  0.49137821  0.24454804
   0.24412063  0.72850887  0.00296234
   0.99751641  0.48582409  0.48692998
   0.00926550  0.73577069  0.73188216
   0.23884347  0.49956349  0.72203299
   0.24250764  0.73073365  0.49171259
   0.49373494  0.00517683  0.98891457
   0.49510866  0.24313978  0.24889750
   0.73826211  0.00277249  0.24512007
   0.72409495  0.24872067  0.00055489
   0.48391656  0.00078803  0.48821413
   0.48570503  0.23856242  0.73259795
   0.72485235  0.99027886  0.72317151
   0.72181910  0.24728696  0.48310999
   0.48343800  0.49460161  0.99896466
   0.49216235  0.73354441  0.23852909
   0.74287234  0.48646138  0.23912370
   0.74005319  0.73555349  0.99783472
   0.48769380  0.48481187  0.48679709
   0.49873975  0.73304485  0.73994517
   0.74013466  0.49114956  0.73899627
   0.73457777  0.73189965  0.48632377
   0.24960864  0.24451969  0.24104699
   0.24894807  0.00862527  0.00627708
   0.00098252  0.24695879  0.99206603
   0.00334027  0.00826582  0.24352662
   0.24313203  0.24765018  0.72822654
   0.24562770  0.00750175  0.48952607
   0.98830743  0.24867317  0.49392062
   0.00070085  0.99987031  0.73198529
   0.23967740  0.73030085  0.24898897
   0.23273172  0.49030153  0.99365504
   0.98470777  0.72443808  0.99313532
   0.00552677  0.49364590  0.25711346
   0.23614082  0.73974128  0.73094461
   0.23812657  0.48368371  0.48751503
   0.99656035  0.73687685  0.48204657
   0.00251240  0.49952092  0.73352575
   0.73452986  0.24978123  0.23726322
   0.73759937  0.00824468  0.99773249
   0.47738454  0.25640480  0.00397305
   0.49072078  0.00004554  0.24023492
   0.73606755  0.24594890  0.74181825
   0.73582114  0.00439595  0.48431087
   0.47701758  0.24747918  0.49453189
   0.48518433  0.99672063  0.72917468
   0.72564565  0.72285865  0.23798722
   0.73412361  0.48237639  0.00595070
   0.48515867  0.73661037  0.99489963
   0.48858947  0.48828247  0.24293952
   0.72775839  0.72663930  0.74320426
   0.73176707  0.48816379  0.49341858
   0.47077245  0.73379452  0.48938041
   0.48843222  0.48437656  0.72930160
 
 position of ions in cartesian coordinates  (Angst):
   0.06646063  8.38688559  8.40957322
   8.37584673  2.00143170  1.98303680
   2.08319334  0.01478613  1.97365227
   2.06595079  2.08891275  0.09446367
   0.00608338  0.06038012  4.10984299
   0.08138975  2.07269716  6.21679390
   2.03568831  0.02599089  6.24924664
   1.98867432  2.12642165  4.00547729
   8.34394965  4.09032701  0.08504864
   0.05306646  6.19970772  2.03317308
   2.03832546  4.14005171  2.06041194
   2.05681084  6.13796934  0.02495886
   8.40446204  4.09325609  4.10257365
   0.07806543  6.19915299  6.16639062
   2.01234873  4.20901586  6.08340755
   2.04322078  6.15671398  4.14286899
   4.15990807  0.04361680  8.33198821
   4.17148219  2.04854680  2.09705782
   6.22014417  0.02335930  2.06523151
   6.10078036  2.09556796  0.00467516
   4.07718441  0.00663946  4.11339311
   4.09225297  2.00998077  6.17242143
   6.10716175  8.34348288  6.09300002
   6.08160544  2.08348840  4.07038875
   4.07315236  4.16721010  8.41666411
   4.14665839  6.18039572  2.00969995
   6.25898714  4.09862551  2.01470977
   6.23523471  6.19732300  8.40714393
   4.10900912  4.08472775  4.10145400
   4.20207553  6.17618673  6.23432460
   6.23592113  4.13812524  6.22632975
   6.18910218  6.16653798  4.09746609
   2.10304945  2.06017308  2.03091424
   2.09748389  0.07267124  0.05288683
   0.00827811  2.08072344  8.35854048
   0.02814307  0.06964273  2.05180608
   2.04848151  2.08654867  6.13559061
   2.06950849  0.06320515  4.12444671
   8.32687282  2.09516776  4.16147249
   0.00590493  8.42429456  6.16725953
   2.01937491  6.15306747  2.09782849
   1.96085487  4.13098026  8.37192850
   8.29654429  6.10367136  8.36754966
   0.04656518  4.15915787  2.16628047
   1.98957785  6.23260675  6.15849140
   2.00630857  4.07522256  4.10750292
   8.39640687  6.20847282  4.06142902
   0.02116794  4.20865719  6.18023850
   6.18869852  2.10450359  1.99903451
   6.21456033  0.06946462  8.40628260
   4.02214962  2.16030973  0.03347448
   4.13451260  0.00038369  2.02407223
   6.20165415  2.07221473  6.25010603
   6.19957805  0.03703758  4.08050663
   4.01905784  2.08510793  4.16662268
   4.08786587  8.39775729  6.14357905
   6.11384561  6.09036405  2.00513449
   6.18527570  4.06420789  0.05013695
   4.08764967  6.20622762  8.38241466
   4.11655549  4.11396890  2.04685953
   6.13164626  6.12221749  6.26178370
   6.16542094  4.11296897  4.15724261
   3.96644020  6.18250299  4.12321947
   4.11523060  4.08106009  6.14464840
 


--------------------------------------------------------------------------------------------------------


 k-point  1 :   0.0000 0.0000 0.0000  plane waves:   15203
 k-point  2 :   0.3333 0.0000 0.0000  plane waves:   15171
 k-point  3 :   0.0000 0.3333 0.0000  plane waves:   15171
 k-point  4 :   0.3333 0.3333 0.0000  plane waves:   15166
 k-point  5 :  -0.3333 0.3333 0.0000  plane waves:   15166
 k-point  6 :   0.0000 0.0000 0.3333  plane waves:   15171
 k-point  7 :   0.3333 0.0000 0.3333  plane waves:   15166
 k-point  8 :  -0.3333 0.0000 0.3333  plane waves:   15166
 k-point  9 :   0.0000 0.3333 0.3333  plane waves:   15166
 k-point 10 :   0.3333 0.3333 0.3333  plane waves:   15177
 k-point 11 :  -0.3333 0.3333 0.3333  plane waves:   15177
 k-point 12 :   0.0000-0.3333 0.3333  plane waves:   15166
 k-point 13 :   0.3333-0.3333 0.3333  plane waves:   15177
 k-point 14 :  -0.3333-0.3333 0.3333  plane waves:   15177

 maximum and minimum number of plane-waves per node :     15203    15166

 maximum number of plane-waves:     15203
 maximum index in each direction: 
   IXMAX=   15   IYMAX=   15   IZMAX=   15
   IXMIN=  -15   IYMIN=  -15   IZMIN=  -15

 The following grids will avoid any aliasing or wrap around errors in the Hartre
 e energy
  - symmetry arguments have not been applied
  - exchange correlation energies might require even more grid points
  - we recommend to set PREC=Normal or Accurate and rely on VASP defaults
 NGX is ok and might be reduce to    64
 NGY is ok and might be reduce to    64
 NGZ is ok and might be reduce to    64

 serial   3D FFT for wavefunctions
 parallel 3D FFT for charge:
    minimum data exchange during FFTs selected (reduces bandwidth)


 total amount of memory used by VASP MPI-rank0   268112. kBytes
=======================================================================

   base      :      30000. kBytes
   nonlr-proj:      40696. kBytes
   fftplans  :       5538. kBytes
   grid      :      31719. kBytes
   one-center:       1990. kBytes
   wavefun   :     158169. kBytes
 
     INWAV:  cpu time    0.0000: real time    0.0000
 Broyden mixing: mesh for mixing (old mesh)
   NGX = 31   NGY = 31   NGZ = 31
  (NGX  =128   NGY  =128   NGZ  =128)
  gives a total of  29791 points

 initial charge density was supplied:
 charge density of overlapping atoms calculated
 number of electron     512.0000000 magnetization      80.0000000
 keeping initial charge density in first step


--------------------------------------------------------------------------------------------------------


 Maximum index for non-local projection operator         5732
 Maximum index for augmentation-charges          866 (set IRDMAX)


--------------------------------------------------------------------------------------------------------


 First call to EWALD:  gamma=   0.210
 Maximum number of real-space cells 3x 3x 3
 Maximum number of reciprocal cells 3x 3x 3

    FEWALD:  cpu time    0.0031: real time    0.0031


--------------------------------------- Iteration      1(   1)  ---------------------------------------


    POTLOK:  cpu time    0.1620: real time    0.1646
    SETDIJ:  cpu time    0.0242: real time    0.0242
     EDDAV:  cpu time   61.0025: real time   61.1467
    --------------------------------------------
      LOOP:  cpu time   61.1908: real time   61.3377

 eigenvalue-minimisations  : 19712
 total energy-change (2. order) : 0.6175806E+04  (-0.2081956E+05)
 number of electron     512.0000000 magnetization      80.0000000
 augmentation part      512.0000000 magnetization      80.0000000

 Free energy of the ion-electron system (eV)
  ---------------------------------------------------
  alpha Z        PSCENC =      2031.47334295
  Ewald energy   TEWEN  =    -40802.37851703
  -Hartree energ DENC   =    -11057.89186845
  -exchange      EXHF   =         0.00000000
  -V(xc)+E(xc)   XCENC  =      1947.99624533
  PAW double counting   =     41846.49563633   -44035.77946198
  entropy T*S    EENTRO =        -0.01276608
  eigenvalues    EBANDS =      7998.82152424
  atomic energy  EATOM  =     48247.08154143
  Solvation  Ediel_sol  =         0.00000000
  ---------------------------------------------------
  free energy    TOTEN  =      6175.80567675 eV

  energy without entropy =     6175.81844283  energy(sigma->0) =     6175.81205979


--------------------------------------------------------------------------------------------------------




--------------------------------------- Iteration      1(   2)  ---------------------------------------


     EDDAV:  cpu time   60.9765: real time   61.1207
    --------------------------------------------
      LOOP:  cpu time   60.9765: real time   61.1206

 eigenvalue-minimisations  : 19712
 total energy-change (2. order) :-0.5268544E+04  (-0.4781823E+04)
 number of electron     512.0000000 magnetization      80.0000000
 augmentation part      512.0000000 magnetization      80.0000000

 Free energy of the ion-electron system (eV)
  ---------------------------------------------------
  alpha Z        PSCENC =      2031.47334295
  Ewald energy   TEWEN  =    -40802.37851703
  -Hartree energ DENC   =    -11057.89186845
  -exchange      EXHF   =         0.00000000
  -V(xc)+E(xc)   XCENC  =      1947.99624533
  PAW double counting   =     41846.49563633   -44035.77946198
  entropy T*S    EENTRO =        -0.02776363
  eigenvalues    EBANDS =      2730.29212314
  atomic energy  EATOM  =     48247.08154143
  Solvation  Ediel_sol  =         0.00000000
  ---------------------------------------------------
  free energy    TOTEN  =       907.26127810 eV

  energy without entropy =      907.28904173  energy(sigma->0) =      907.27515991


--------------------------------------------------------------------------------------------------------




--------------------------------------- Iteration      1(   3)  ---------------------------------------


     EDDAV:  cpu time   62.0448: real time   62.1913
    --------------------------------------------
      LOOP:  cpu time   62.0447: real time   62.1913

 eigenvalue-minimisations  : 20080
 total energy-change (2. order) :-0.1226124E+04  (-0.1093211E+04)
 number of electron     512.0000000 magnetization      80.0000000
 augmentation part      512.0000000 magnetization      80.0000000

 Free energy of the ion-electron system (eV)
  ---------------------------------------------------
  alpha Z        PSCENC =      2031.47334295
  Ewald energy   TEWEN  =    -40802.37851703
  -Hartree energ DENC   =    -11057.89186845
  -exchange      EXHF   =         0.00000000
  -V(xc)+E(xc)   XCENC  =      1947.99624533
  PAW double counting   =     41846.49563633   -44035.77946198
  entropy T*S    EENTRO =        -0.13443976
  eigenvalues    EBANDS =      1504.27448503
  atomic energy  EATOM  =     48247.08154143
  Solvation  Ediel_sol  =         0.00000000
  ---------------------------------------------------
  free energy    TOTEN  =      -318.86303615 eV

  energy without entropy =     -318.72859639  energy(sigma->0) =     -318.79581627


--------------------------------------------------------------------------------------------------------




--------------------------------------- Iteration      1(   4)  ---------------------------------------


     EDDAV:  cpu time   68.6391: real time   68.8013
    --------------------------------------------
      LOOP:  cpu time   68.6392: real time   68.8013

 eigenvalue-minimisations  : 22880
 total energy-change (2. order) :-0.1468676E+03  (-0.1388583E+03)
 number of electron     512.0000000 magnetization      80.0000000
 augmentation part      512.0000000 magnetization      80.0000000

 Free energy of the ion-electron system (eV)
  ---------------------------------------------------
  alpha Z        PSCENC =      2031.47334295
  Ewald energy   TEWEN  =    -40802.37851703
  -Hartree energ DENC   =    -11057.89186845
  -exchange      EXHF   =         0.00000000
  -V(xc)+E(xc)   XCENC  =      1947.99624533
  PAW double counting   =     41846.49563633   -44035.77946198
  entropy T*S    EENTRO =        -0.14241131
  eigenvalues    EBANDS =      1357.41487932
  atomic energy  EATOM  =     48247.08154143
  Solvation  Ediel_sol  =         0.00000000
  ---------------------------------------------------
  free energy    TOTEN  =      -465.73061340 eV

  energy without entropy =     -465.58820210  energy(sigma->0) =     -465.65940775


--------------------------------------------------------------------------------------------------------




--------------------------------------- Iteration      1(   5)  ---------------------------------------


     EDDAV:  cpu time   67.5939: real time   67.7535
    CHARGE:  cpu time    2.2804: real time    2.2858
    MIXING:  cpu time    0.0032: real time    0.0033
    --------------------------------------------
      LOOP:  cpu time   69.8755: real time   70.0406

 eigenvalue-minimisations  : 22416
 total energy-change (2. order) :-0.4466917E+01  (-0.4407849E+01)
 number of electron     512.0000002 magnetization      71.9946406
 augmentation part      205.3530089 magnetization      56.9690624

 Broyden mixing:
  rms(total) = 0.83512E+01    rms(broyden)= 0.83457E+01
  rms(prec ) = 0.10866E+02
  weight for this iteration     100.00

 Free energy of the ion-electron system (eV)
  ---------------------------------------------------
  alpha Z        PSCENC =      2031.47334295
  Ewald energy   TEWEN  =    -40802.37851703
  -Hartree energ DENC   =    -11057.89186845
  -exchange      EXHF   =         0.00000000
  -V(xc)+E(xc)   XCENC  =      1947.99624533
  PAW double counting   =     41846.49563633   -44035.77946198
  entropy T*S    EENTRO =        -0.14181504
  eigenvalues    EBANDS =      1352.94736627
  atomic energy  EATOM  =     48247.08154143
  Solvation  Ediel_sol  =         0.00000000
  ---------------------------------------------------
  free energy    TOTEN  =      -470.19753019 eV

  energy without entropy =     -470.05571515  energy(sigma->0) =     -470.12662267


--------------------------------------------------------------------------------------------------------




--------------------------------------- Iteration      1(   6)  ---------------------------------------


    POTLOK:  cpu time    0.1429: real time    0.1432
    SETDIJ:  cpu time    0.0258: real time    0.0259
     EDDAV:  cpu time   81.3121: real time   81.5039
    CHARGE:  cpu time    2.1938: real time    2.1989
    MIXING:  cpu time    0.0036: real time    0.0036
    --------------------------------------------
      LOOP:  cpu time   83.6782: real time   83.8757

 eigenvalue-minimisations  : 28384
 total energy-change (2. order) : 0.2088015E+02  (-0.5601381E+02)
 number of electron     512.0000008 magnetization      61.2290176
 augmentation part      236.0379679 magnetization      54.3689093

 Broyden mixing:
  rms(total) = 0.12539E+02    rms(broyden)= 0.12537E+02
  rms(prec ) = 0.14694E+02
  weight for this iteration     100.00

 eigenvalues of (default mixing * dielectric matrix)
  average eigenvalue GAMMA=   0.2365
  0.2365

 Free energy of the ion-electron system (eV)
  ---------------------------------------------------
  alpha Z        PSCENC =      2031.47334295
  Ewald energy   TEWEN  =    -40802.37851703
  -Hartree energ DENC   =    -10631.02701145
  -exchange      EXHF   =         0.00000000
  -V(xc)+E(xc)   XCENC  =      1942.28975622
  PAW double counting   =     44303.90322347   -46307.20954513
  entropy T*S    EENTRO =        -0.04818583
  eigenvalues    EBANDS =       766.59801279
  atomic energy  EATOM  =     48247.08154143
  Solvation  Ediel_sol  =         0.00000000
  ---------------------------------------------------
  free energy    TOTEN  =      -449.31738258 eV

  energy without entropy =     -449.26919674  energy(sigma->0) =     -449.29328966


--------------------------------------------------------------------------------------------------------




--------------------------------------- Iteration      1(   7)  ---------------------------------------


    POTLOK:  cpu time    0.1465: real time    0.1468
    SETDIJ:  cpu time    0.0257: real time    0.0258
     EDDAV:  cpu time   72.6175: real time   72.7888
    CHARGE:  cpu time    2.2300: real time    2.2353
    MIXING:  cpu time    0.0034: real time    0.0034
    --------------------------------------------
      LOOP:  cpu time   75.0231: real time   75.2002

 eigenvalue-minimisations  : 24784
 total energy-change (2. order) : 0.4669831E+02  (-0.1853496E+02)
 number of electron     511.9999998 magnetization      58.0122707
 augmentation part      220.4496333 magnetization      46.2856764

 Broyden mixing:
  rms(total) = 0.87345E+01    rms(broyden)= 0.87330E+01
  rms(prec ) = 0.12559E+02
  weight for this iteration     100.00

 eigenvalues of (default mixing * dielectric matrix)
  average eigenvalue GAMMA=   0.3421
  0.3421  0.3421

 Free energy of the ion-electron system (eV)
  ---------------------------------------------------
  alpha Z        PSCENC =      2031.47334295
  Ewald energy   TEWEN  =    -40802.37851703
  -Hartree energ DENC   =    -10785.43099748
  -exchange      EXHF   =         0.00000000
  -V(xc)+E(xc)   XCENC  =      1933.17666012
  PAW double counting   =     45678.50743888   -47821.31961863
  entropy T*S    EENTRO =        -0.09813893
  eigenvalues    EBANDS =      1116.36921296
  atomic energy  EATOM  =     48247.08154143
  Solvation  Ediel_sol  =         0.00000000
  ---------------------------------------------------
  free energy    TOTEN  =      -402.61907572 eV

  energy without entropy =     -402.52093679  energy(sigma->0) =     -402.57000625


--------------------------------------------------------------------------------------------------------




--------------------------------------- Iteration      1(   8)  ---------------------------------------


    POTLOK:  cpu time    0.1384: real time    0.1387
    SETDIJ:  cpu time    0.0256: real time    0.0256
     EDDAV:  cpu time   80.3196: real time   80.5092
    CHARGE:  cpu time    2.4115: real time    2.4172
    MIXING:  cpu time    0.0036: real time    0.0036
    --------------------------------------------
      LOOP:  cpu time   82.8987: real time   83.0944

 eigenvalue-minimisations  : 26096
 total energy-change (2. order) :-0.9948580E+01  (-0.1481781E+02)
 number of electron     512.0000016 magnetization      46.5877343
 augmentation part      219.3539038 magnetization      37.7891302

 Broyden mixing:
  rms(total) = 0.74180E+01    rms(broyden)= 0.74152E+01
  rms(prec ) = 0.11022E+02
  weight for this iteration     100.00

 eigenvalues of (default mixing * dielectric matrix)
  average eigenvalue GAMMA=   0.4700
  0.6827  0.6051  0.1222

 Free energy of the ion-electron system (eV)
  ---------------------------------------------------
  alpha Z        PSCENC =      2031.47334295
  Ewald energy   TEWEN  =    -40802.37851703
  -Hartree energ DENC   =    -10809.42683935
  -exchange      EXHF   =         0.00000000
  -V(xc)+E(xc)   XCENC  =      1931.81004060
  PAW double counting   =     46275.00514986   -48447.50174896
  entropy T*S    EENTRO =        -0.10561144
  eigenvalues    EBANDS =      1161.47498659
  atomic energy  EATOM  =     48247.08154143
  Solvation  Ediel_sol  =         0.00000000
  ---------------------------------------------------
  free energy    TOTEN  =      -412.56765535 eV

  energy without entropy =     -412.46204392  energy(sigma->0) =     -412.51484964


--------------------------------------------------------------------------------------------------------




--------------------------------------- Iteration      1(   9)  ---------------------------------------


    POTLOK:  cpu time    0.1444: real time    0.1448
    SETDIJ:  cpu time    0.0259: real time    0.0260
     EDDAV:  cpu time   76.0041: real time   76.1836
    CHARGE:  cpu time    2.0452: real time    2.0500
    MIXING:  cpu time    0.0035: real time    0.0035
    --------------------------------------------
      LOOP:  cpu time   78.2230: real time   78.4078

 eigenvalue-minimisations  : 25744
 total energy-change (2. order) :-0.1989706E+02  (-0.9723105E+01)
 number of electron     511.9999999 magnetization      42.8407236
 augmentation part      218.8526869 magnetization      33.0797362

 Broyden mixing:
  rms(total) = 0.95351E+01    rms(broyden)= 0.95331E+01
  rms(prec ) = 0.14025E+02
  weight for this iteration     100.00

 eigenvalues of (default mixing * dielectric matrix)
  average eigenvalue GAMMA=   0.4394
  0.9267  0.5336  0.1850  0.1122

 Free energy of the ion-electron system (eV)
  ---------------------------------------------------
  alpha Z        PSCENC =      2031.47334295
  Ewald energy   TEWEN  =    -40802.37851703
  -Hartree energ DENC   =    -10751.17134106
  -exchange      EXHF   =         0.00000000
  -V(xc)+E(xc)   XCENC  =      1928.28742343
  PAW double counting   =     48016.29837513   -50230.16765020
  entropy T*S    EENTRO =        -0.09646956
  eigenvalues    EBANDS =      1128.20857736
  atomic energy  EATOM  =     48247.08154143
  Solvation  Ediel_sol  =         0.00000000
  ---------------------------------------------------
  free energy    TOTEN  =      -432.46471755 eV

  energy without entropy =     -432.36824799  energy(sigma->0) =     -432.41648277


--------------------------------------------------------------------------------------------------------




--------------------------------------- Iteration      1(  10)  ---------------------------------------


    POTLOK:  cpu time    0.1319: real time    0.1322
    SETDIJ:  cpu time    0.0246: real time    0.0247
     EDDAV:  cpu time   59.2915: real time   59.4313
    CHARGE:  cpu time    1.5174: real time    1.5210
    MIXING:  cpu time    0.0035: real time    0.0035
    --------------------------------------------
      LOOP:  cpu time   60.9689: real time   61.1126

 eigenvalue-minimisations  : 24128
 total energy-change (2. order) : 0.2019293E+02  (-0.5842062E+01)
 number of electron     512.0000020 magnetization      40.2878426
 augmentation part      219.9593610 magnetization      32.8557213

 Broyden mixing:
  rms(total) = 0.67597E+01    rms(broyden)= 0.67576E+01
  rms(prec ) = 0.10215E+02
  weight for this iteration     100.00

 eigenvalues of (default mixing * dielectric matrix)
  average eigenvalue GAMMA=   0.4298
  1.0717  0.5704  0.2763  0.1343  0.0965

 Free energy of the ion-electron system (eV)
  ---------------------------------------------------
  alpha Z        PSCENC =      2031.47334295
  Ewald energy   TEWEN  =    -40802.37851703
  -Hartree energ DENC   =    -10735.37040123
  -exchange      EXHF   =         0.00000000
  -V(xc)+E(xc)   XCENC  =      1927.20596725
  PAW double counting   =     48611.49418597   -50838.17850390
  entropy T*S    EENTRO =        -0.08019370
  eigenvalues    EBANDS =      1146.48078701
  atomic energy  EATOM  =     48247.08154143
  Solvation  Ediel_sol  =         0.00000000
  ---------------------------------------------------
  free energy    TOTEN  =      -412.27179124 eV

  energy without entropy =     -412.19159754  energy(sigma->0) =     -412.23169439


--------------------------------------------------------------------------------------------------------




--------------------------------------- Iteration      1(  11)  ---------------------------------------


    POTLOK:  cpu time    0.1212: real time    0.1215
    SETDIJ:  cpu time    0.0207: real time    0.0207
     EDDAV:  cpu time   53.0152: real time   53.1404
    CHARGE:  cpu time    1.4940: real time    1.4975
    MIXING:  cpu time    0.0033: real time    0.0033
    --------------------------------------------
      LOOP:  cpu time   54.6544: real time   54.7834

 eigenvalue-minimisations  : 24096
 total energy-change (2. order) : 0.1300192E+02  (-0.4060145E+01)
 number of electron     512.0000012 magnetization      35.9950115
 augmentation part      220.6650300 magnetization      28.9522652

 Broyden mixing:
  rms(total) = 0.41319E+01    rms(broyden)= 0.41285E+01
  rms(prec ) = 0.58543E+01
  weight for this iteration     100.00

 eigenvalues of (default mixing * dielectric matrix)
  average eigenvalue GAMMA=   0.4748
  1.4513  0.6629  0.3580  0.1405  0.1405  0.0958

 Free energy of the ion-electron system (eV)
  ---------------------------------------------------
  alpha Z        PSCENC =      2031.47334295
  Ewald energy   TEWEN  =    -40802.37851703
  -Hartree energ DENC   =    -10727.40297358
  -exchange      EXHF   =         0.00000000
  -V(xc)+E(xc)   XCENC  =      1926.46248552
  PAW double counting   =     48942.80255348   -51178.57307007
  entropy T*S    EENTRO =        -0.07398661
  eigenvalues    EBANDS =      1161.33875156
  atomic energy  EATOM  =     48247.08154143
  Solvation  Ediel_sol  =         0.00000000
  ---------------------------------------------------
  free energy    TOTEN  =      -399.26987235 eV

  energy without entropy =     -399.19588574  energy(sigma->0) =     -399.23287904


--------------------------------------------------------------------------------------------------------




--------------------------------------- Iteration      1(  12)  ---------------------------------------


    POTLOK:  cpu time    0.1130: real time    0.1133
    SETDIJ:  cpu time    0.0206: real time    0.0207
     EDDAV:  cpu time   55.8380: real time   55.9698
    CHARGE:  cpu time    1.6279: real time    1.6317
    MIXING:  cpu time    0.0034: real time    0.0034
    --------------------------------------------
      LOOP:  cpu time   57.6030: real time   57.7389

 eigenvalue-minimisations  : 23840
 total energy-change (2. order) :-0.8041683E+01  (-0.2915179E+01)
 number of electron     511.9999996 magnetization      32.3928812
 augmentation part      219.6061442 magnetization      25.0146692

 Broyden mixing:
  rms(total) = 0.79642E+01    rms(broyden)= 0.79625E+01
  rms(prec ) = 0.12664E+02
  weight for this iteration     100.00

 eigenvalues of (default mixing * dielectric matrix)
  average eigenvalue GAMMA=   0.4782
  1.7605  0.6952  0.3827  0.1894  0.1106  0.1044  0.1044

 Free energy of the ion-electron system (eV)
  ---------------------------------------------------
  alpha Z        PSCENC =      2031.47334295
  Ewald energy   TEWEN  =    -40802.37851703
  -Hartree energ DENC   =    -10719.44199811
  -exchange      EXHF   =         0.00000000
  -V(xc)+E(xc)   XCENC  =      1925.02412055
  PAW double counting   =     49385.53373071   -51632.11922217
  entropy T*S    EENTRO =        -0.10269662
  eigenvalues    EBANDS =      1157.61814315
  atomic energy  EATOM  =     48247.08154143
  Solvation  Ediel_sol  =         0.00000000
  ---------------------------------------------------
  free energy    TOTEN  =      -407.31155513 eV

  energy without entropy =     -407.20885851  energy(sigma->0) =     -407.26020682


--------------------------------------------------------------------------------------------------------




--------------------------------------- Iteration      1(  13)  ---------------------------------------


    POTLOK:  cpu time    0.1138: real time    0.1141
    SETDIJ:  cpu time    0.0200: real time    0.0201
     EDDAV:  cpu time   57.3142: real time   57.4494
    CHARGE:  cpu time    1.4893: real time    1.4928
    MIXING:  cpu time    0.0035: real time    0.0036
    --------------------------------------------
      LOOP:  cpu time   58.9409: real time   59.0799

 eigenvalue-minimisations  : 25520
 total energy-change (2. order) : 0.8989485E+01  (-0.6059210E+01)
 number of electron     512.0000010 magnetization      30.8104184
 augmentation part      220.2259699 magnetization      23.9683419

 Broyden mixing:
  rms(total) = 0.34371E+01    rms(broyden)= 0.34341E+01
  rms(prec ) = 0.52041E+01
  weight for this iteration     100.00

 eigenvalues of (default mixing * dielectric matrix)
  average eigenvalue GAMMA=   0.4661
  1.8032  0.7128  0.3836  0.3836  0.1473  0.1223  0.0881  0.0881

 Free energy of the ion-electron system (eV)
  ---------------------------------------------------
  alpha Z        PSCENC =      2031.47334295
  Ewald energy   TEWEN  =    -40802.37851703
  -Hartree energ DENC   =    -10716.32715405
  -exchange      EXHF   =         0.00000000
  -V(xc)+E(xc)   XCENC  =      1923.95733278
  PAW double counting   =     49714.57906468   -51968.46040638
  entropy T*S    EENTRO =        -0.07176618
  eigenvalues    EBANDS =      1171.82449125
  atomic energy  EATOM  =     48247.08154143
  Solvation  Ediel_sol  =         0.00000000
  ---------------------------------------------------
  free energy    TOTEN  =      -398.32207055 eV

  energy without entropy =     -398.25030436  energy(sigma->0) =     -398.28618746


--------------------------------------------------------------------------------------------------------




--------------------------------------- Iteration      1(  14)  ---------------------------------------


    POTLOK:  cpu time    0.1167: real time    0.1170
    SETDIJ:  cpu time    0.0317: real time    0.0318
     EDDAV:  cpu time   55.8772: real time   56.0089
    CHARGE:  cpu time    1.4737: real time    1.4771
    MIXING:  cpu time    0.0035: real time    0.0035
    --------------------------------------------
      LOOP:  cpu time   57.5028: real time   57.6383

 eigenvalue-minimisations  : 24576
 total energy-change (2. order) : 0.1688658E+01  (-0.1802836E+01)
 number of electron     512.0000012 magnetization      29.9199549
 augmentation part      220.0309767 magnetization      23.0507087

 Broyden mixing:
  rms(total) = 0.36743E+01    rms(broyden)= 0.36722E+01
  rms(prec ) = 0.57950E+01
  weight for this iteration     100.00

 eigenvalues of (default mixing * dielectric matrix)
  average eigenvalue GAMMA=   0.4527
  1.7892  0.7384  0.4893  0.4893  0.1796  0.1158  0.0924  0.0924  0.0881

 Free energy of the ion-electron system (eV)
  ---------------------------------------------------
  alpha Z        PSCENC =      2031.47334295
  Ewald energy   TEWEN  =    -40802.37851703
  -Hartree energ DENC   =    -10716.88264253
  -exchange      EXHF   =         0.00000000
  -V(xc)+E(xc)   XCENC  =      1923.65021997
  PAW double counting   =     49818.56047442   -52076.31568402
  entropy T*S    EENTRO =        -0.08544862
  eigenvalues    EBANDS =      1178.26330051
  atomic energy  EATOM  =     48247.08154143
  Solvation  Ediel_sol  =         0.00000000
  ---------------------------------------------------
  free energy    TOTEN  =      -396.63341292 eV

  energy without entropy =     -396.54796431  energy(sigma->0) =     -396.59068861


--------------------------------------------------------------------------------------------------------




--------------------------------------- Iteration      1(  15)  ---------------------------------------


    POTLOK:  cpu time    0.1100: real time    0.1102
    SETDIJ:  cpu time    0.0196: real time    0.0197
     EDDAV:  cpu time   56.5781: real time   56.7115
    CHARGE:  cpu time    1.4095: real time    1.4129
    MIXING:  cpu time    0.0036: real time    0.0036
    --------------------------------------------
      LOOP:  cpu time   58.1207: real time   58.2578

 eigenvalue-minimisations  : 26160
 total energy-change (2. order) : 0.1431236E+01  (-0.1846040E+01)
 number of electron     512.0000010 magnetization      28.7277853
 augmentation part      219.9596009 magnetization      22.3683658

 Broyden mixing:
  rms(total) = 0.29611E+01    rms(broyden)= 0.29596E+01
  rms(prec ) = 0.43932E+01
  weight for this iteration     100.00

 eigenvalues of (default mixing * dielectric matrix)
  average eigenvalue GAMMA=   0.4396
  1.7774  0.8410  0.5799  0.4746  0.2266  0.1174  0.1174  0.0961  0.0961  0.0697

 Free energy of the ion-electron system (eV)
  ---------------------------------------------------
  alpha Z        PSCENC =      2031.47334295
  Ewald energy   TEWEN  =    -40802.37851703
  -Hartree energ DENC   =    -10719.31676897
  -exchange      EXHF   =         0.00000000
  -V(xc)+E(xc)   XCENC  =      1923.66429788
  PAW double counting   =     49869.81955939   -52128.45309299
  entropy T*S    EENTRO =        -0.07532966
  eigenvalues    EBANDS =      1182.98279015
  atomic energy  EATOM  =     48247.08154143
  Solvation  Ediel_sol  =         0.00000000
  ---------------------------------------------------
  free energy    TOTEN  =      -395.20217685 eV

  energy without entropy =     -395.12684719  energy(sigma->0) =     -395.16451202


--------------------------------------------------------------------------------------------------------




--------------------------------------- Iteration      1(  16)  ---------------------------------------


    POTLOK:  cpu time    0.1091: real time    0.1093
    SETDIJ:  cpu time    0.0194: real time    0.0195
     EDDAV:  cpu time   57.6458: real time   57.7817
    CHARGE:  cpu time    1.4935: real time    1.4971
    MIXING:  cpu time    0.0040: real time    0.0040
    --------------------------------------------
      LOOP:  cpu time   59.2718: real time   59.4116

 eigenvalue-minimisations  : 25168
 total energy-change (2. order) : 0.1329652E+01  (-0.9190076E+00)
 number of electron     512.0000010 magnetization      28.0116686
 augmentation part      219.8381446 magnetization      21.8504491

 Broyden mixing:
  rms(total) = 0.22310E+01    rms(broyden)= 0.22296E+01
  rms(prec ) = 0.32823E+01
  weight for this iteration     100.00

 eigenvalues of (default mixing * dielectric matrix)
  average eigenvalue GAMMA=   0.4240
  1.7306  0.9534  0.5355  0.5355  0.2861  0.1339  0.1339  0.0896  0.0896  0.0948
  0.0810

 Free energy of the ion-electron system (eV)
  ---------------------------------------------------
  alpha Z        PSCENC =      2031.47334295
  Ewald energy   TEWEN  =    -40802.37851703
  -Hartree energ DENC   =    -10722.61468465
  -exchange      EXHF   =         0.00000000
  -V(xc)+E(xc)   XCENC  =      1923.68162071
  PAW double counting   =     49928.05756337   -52187.60756880
  entropy T*S    EENTRO =        -0.06136588
  eigenvalues    EBANDS =      1188.49554278
  atomic energy  EATOM  =     48247.08154143
  Solvation  Ediel_sol  =         0.00000000
  ---------------------------------------------------
  free energy    TOTEN  =      -393.87252512 eV

  energy without entropy =     -393.81115924  energy(sigma->0) =     -393.84184218


--------------------------------------------------------------------------------------------------------




--------------------------------------- Iteration      1(  17)  ---------------------------------------


    POTLOK:  cpu time    0.1133: real time    0.1136
    SETDIJ:  cpu time    0.0208: real time    0.0208
     EDDAV:  cpu time   58.2751: real time   58.4125
    CHARGE:  cpu time    1.4945: real time    1.4981
    MIXING:  cpu time    0.0049: real time    0.0049
    --------------------------------------------
      LOOP:  cpu time   59.9085: real time   60.0499

 eigenvalue-minimisations  : 25440
 total energy-change (2. order) : 0.6496464E+00  (-0.3958036E+00)
 number of electron     512.0000008 magnetization      27.6297743
 augmentation part      219.7650740 magnetization      21.3691316

 Broyden mixing:
  rms(total) = 0.16829E+01    rms(broyden)= 0.16816E+01
  rms(prec ) = 0.24028E+01
  weight for this iteration     100.00

 eigenvalues of (default mixing * dielectric matrix)
  average eigenvalue GAMMA=   0.3945
  1.7222  0.9486  0.5417  0.5417  0.2962  0.1374  0.1374  0.0892  0.0892  0.0910
  0.0910  0.0483

 Free energy of the ion-electron system (eV)
  ---------------------------------------------------
  alpha Z        PSCENC =      2031.47334295
  Ewald energy   TEWEN  =    -40802.37851703
  -Hartree energ DENC   =    -10724.46677602
  -exchange      EXHF   =         0.00000000
  -V(xc)+E(xc)   XCENC  =      1923.73157016
  PAW double counting   =     49953.85355377   -52213.02353375
  entropy T*S    EENTRO =        -0.05326737
  eigenvalues    EBANDS =      1190.55920713
  atomic energy  EATOM  =     48247.08154143
  Solvation  Ediel_sol  =         0.00000000
  ---------------------------------------------------
  free energy    TOTEN  =      -393.22287873 eV

  energy without entropy =     -393.16961136  energy(sigma->0) =     -393.19624505


--------------------------------------------------------------------------------------------------------




--------------------------------------- Iteration      1(  18)  ---------------------------------------


    POTLOK:  cpu time    0.1239: real time    0.1242
    SETDIJ:  cpu time    0.0231: real time    0.0232
     EDDAV:  cpu time   59.4744: real time   59.6147
    CHARGE:  cpu time    1.5234: real time    1.5270
    MIXING:  cpu time    0.0056: real time    0.0056
    --------------------------------------------
      LOOP:  cpu time   61.1505: real time   61.2947

 eigenvalue-minimisations  : 26048
 total energy-change (2. order) : 0.2604293E+00  (-0.1663796E+00)
 number of electron     512.0000009 magnetization      27.5392734
 augmentation part      219.6843452 magnetization      21.2711310

 Broyden mixing:
  rms(total) = 0.14214E+01    rms(broyden)= 0.14210E+01
  rms(prec ) = 0.19563E+01
  weight for this iteration     100.00

 eigenvalues of (default mixing * dielectric matrix)
  average eigenvalue GAMMA=   0.3741
  1.7278  0.9478  0.5419  0.5419  0.3055  0.0788  0.1414  0.1414  0.0937  0.0937
  0.0928  0.0928  0.0640

 Free energy of the ion-electron system (eV)
  ---------------------------------------------------
  alpha Z        PSCENC =      2031.47334295
  Ewald energy   TEWEN  =    -40802.37851703
  -Hartree energ DENC   =    -10725.30291217
  -exchange      EXHF   =         0.00000000
  -V(xc)+E(xc)   XCENC  =      1923.78028942
  PAW double counting   =     49963.40969528   -52221.62225193
  entropy T*S    EENTRO =        -0.05043181
  eigenvalues    EBANDS =      1190.64679440
  atomic energy  EATOM  =     48247.08154143
  Solvation  Ediel_sol  =         0.00000000
  ---------------------------------------------------
  free energy    TOTEN  =      -392.96244945 eV

  energy without entropy =     -392.91201764  energy(sigma->0) =     -392.93723354


--------------------------------------------------------------------------------------------------------




--------------------------------------- Iteration      1(  19)  ---------------------------------------


    POTLOK:  cpu time    0.1372: real time    0.1375
    SETDIJ:  cpu time    0.0288: real time    0.0288
     EDDAV:  cpu time   58.4235: real time   58.5614
    CHARGE:  cpu time    1.4938: real time    1.4973
    MIXING:  cpu time    0.0045: real time    0.0045
    --------------------------------------------
      LOOP:  cpu time   60.0877: real time   60.2295

 eigenvalue-minimisations  : 25312
 total energy-change (2. order) : 0.7831630E-01  (-0.3006959E-01)
 number of electron     512.0000009 magnetization      27.5406349
 augmentation part      219.6390049 magnetization      21.2574061

 Broyden mixing:
  rms(total) = 0.13131E+01    rms(broyden)= 0.13130E+01
  rms(prec ) = 0.17421E+01
  weight for this iteration     100.00

 eigenvalues of (default mixing * dielectric matrix)
  average eigenvalue GAMMA=   0.3689
  1.7205  0.9532  0.5495  0.5495  0.2402  0.3163  0.1477  0.1477  0.1041  0.1041
  0.0944  0.0944  0.0715  0.0715

 Free energy of the ion-electron system (eV)
  ---------------------------------------------------
  alpha Z        PSCENC =      2031.47334295
  Ewald energy   TEWEN  =    -40802.37851703
  -Hartree energ DENC   =    -10725.49895723
  -exchange      EXHF   =         0.00000000
  -V(xc)+E(xc)   XCENC  =      1923.82354837
  PAW double counting   =     49964.49718139   -52222.20217782
  entropy T*S    EENTRO =        -0.05202638
  eigenvalues    EBANDS =      1190.37193117
  atomic energy  EATOM  =     48247.08154143
  Solvation  Ediel_sol  =         0.00000000
  ---------------------------------------------------
  free energy    TOTEN  =      -392.88413315 eV

  energy without entropy =     -392.83210676  energy(sigma->0) =     -392.85811995


--------------------------------------------------------------------------------------------------------




--------------------------------------- Iteration      1(  20)  ---------------------------------------


    POTLOK:  cpu time    0.1140: real time    0.1143
    SETDIJ:  cpu time    0.0207: real time    0.0208
     EDDAV:  cpu time   53.7174: real time   53.8440
    CHARGE:  cpu time    1.5137: real time    1.5172
    MIXING:  cpu time    0.0046: real time    0.0047
    --------------------------------------------
      LOOP:  cpu time   55.3704: real time   55.5010

 eigenvalue-minimisations  : 22336
 total energy-change (2. order) : 0.7329973E-02  (-0.4459144E-02)
 number of electron     512.0000009 magnetization      27.6586632
 augmentation part      219.6206583 magnetization      21.3826787

 Broyden mixing:
  rms(total) = 0.13339E+01    rms(broyden)= 0.13339E+01
  rms(prec ) = 0.17711E+01
  weight for this iteration     100.00

 eigenvalues of (default mixing * dielectric matrix)
  average eigenvalue GAMMA=   0.3525
  1.6172  1.0355  0.5403  0.5403  0.2605  0.2605  0.2187  0.1143  0.1143  0.1200
  0.1200  0.0944  0.0944  0.0849  0.0715

 Free energy of the ion-electron system (eV)
  ---------------------------------------------------
  alpha Z        PSCENC =      2031.47334295
  Ewald energy   TEWEN  =    -40802.37851703
  -Hartree energ DENC   =    -10725.50123854
  -exchange      EXHF   =         0.00000000
  -V(xc)+E(xc)   XCENC  =      1923.82174377
  PAW double counting   =     49964.42314542   -52222.07525534
  entropy T*S    EENTRO =        -0.05139430
  eigenvalues    EBANDS =      1190.32982847
  atomic energy  EATOM  =     48247.08154143
  Solvation  Ediel_sol  =         0.00000000
  ---------------------------------------------------
  free energy    TOTEN  =      -392.87680317 eV

  energy without entropy =     -392.82540887  energy(sigma->0) =     -392.85110602


--------------------------------------------------------------------------------------------------------




--------------------------------------- Iteration      1(  21)  ---------------------------------------


    POTLOK:  cpu time    0.1153: real time    0.1156
    SETDIJ:  cpu time    0.0215: real time    0.0216
     EDDAV:  cpu time   60.1437: real time   60.2856
    CHARGE:  cpu time    1.4955: real time    1.4990
    MIXING:  cpu time    0.0048: real time    0.0048
    --------------------------------------------
      LOOP:  cpu time   61.7809: real time   61.9267

 eigenvalue-minimisations  : 25920
 total energy-change (2. order) :-0.1793441E-01  (-0.3465441E-01)
 number of electron     512.0000008 magnetization      27.6386113
 augmentation part      219.5747201 magnetization      21.4661352

 Broyden mixing:
  rms(total) = 0.14593E+01    rms(broyden)= 0.14591E+01
  rms(prec ) = 0.20434E+01
  weight for this iteration     100.00

 eigenvalues of (default mixing * dielectric matrix)
  average eigenvalue GAMMA=   0.3434
  1.5566  1.0885  0.5314  0.5314  0.3136  0.3136  0.2228  0.1161  0.1161  0.1288
  0.1288  0.0944  0.0944  0.1019  0.0860  0.0703

 Free energy of the ion-electron system (eV)
  ---------------------------------------------------
  alpha Z        PSCENC =      2031.47334295
  Ewald energy   TEWEN  =    -40802.37851703
  -Hartree energ DENC   =    -10727.44894389
  -exchange      EXHF   =         0.00000000
  -V(xc)+E(xc)   XCENC  =      1923.80972715
  PAW double counting   =     49941.54154382   -52199.71207337
  entropy T*S    EENTRO =        -0.04540543
  eigenvalues    EBANDS =      1192.78404678
  atomic energy  EATOM  =     48247.08154143
  Solvation  Ediel_sol  =         0.00000000
  ---------------------------------------------------
  free energy    TOTEN  =      -392.89473758 eV

  energy without entropy =     -392.84933216  energy(sigma->0) =     -392.87203487


--------------------------------------------------------------------------------------------------------




--------------------------------------- Iteration      1(  22)  ---------------------------------------


    POTLOK:  cpu time    0.1129: real time    0.1131
    SETDIJ:  cpu time    0.0206: real time    0.0206
     EDDAV:  cpu time   59.5941: real time   59.7347
    CHARGE:  cpu time    1.4931: real time    1.4966
    MIXING:  cpu time    0.0049: real time    0.0049
    --------------------------------------------
      LOOP:  cpu time   61.2255: real time   61.3700

 eigenvalue-minimisations  : 26016
 total energy-change (2. order) : 0.4598382E-01  (-0.2223419E-01)
 number of electron     512.0000009 magnetization      27.5026030
 augmentation part      219.5249458 magnetization      21.2622709

 Broyden mixing:
  rms(total) = 0.14078E+01    rms(broyden)= 0.14077E+01
  rms(prec ) = 0.19221E+01
  weight for this iteration     100.00

 eigenvalues of (default mixing * dielectric matrix)
  average eigenvalue GAMMA=   0.3525
  1.5536  1.0386  0.5515  0.5515  0.4380  0.4380  0.3059  0.1118  0.1118  0.1793
  0.1427  0.1121  0.1121  0.0950  0.0950  0.0840  0.0708

 Free energy of the ion-electron system (eV)
  ---------------------------------------------------
  alpha Z        PSCENC =      2031.47334295
  Ewald energy   TEWEN  =    -40802.37851703
  -Hartree energ DENC   =    -10728.86006567
  -exchange      EXHF   =         0.00000000
  -V(xc)+E(xc)   XCENC  =      1923.84438669
  PAW double counting   =     49928.07092284   -52186.31990594
  entropy T*S    EENTRO =        -0.05191992
  eigenvalues    EBANDS =      1194.29146089
  atomic energy  EATOM  =     48247.08154143
  Solvation  Ediel_sol  =         0.00000000
  ---------------------------------------------------
  free energy    TOTEN  =      -392.84875376 eV

  energy without entropy =     -392.79683384  energy(sigma->0) =     -392.82279380


--------------------------------------------------------------------------------------------------------




--------------------------------------- Iteration      1(  23)  ---------------------------------------


    POTLOK:  cpu time    0.1129: real time    0.1131
    SETDIJ:  cpu time    0.0206: real time    0.0206
     EDDAV:  cpu time   59.2255: real time   59.3653
    CHARGE:  cpu time    1.4481: real time    1.4515
    MIXING:  cpu time    0.0050: real time    0.0050
    --------------------------------------------
      LOOP:  cpu time   60.8120: real time   60.9555

 eigenvalue-minimisations  : 25616
 total energy-change (2. order) :-0.1021053E+00  (-0.2712604E-01)
 number of electron     512.0000007 magnetization      27.0194287
 augmentation part      219.4870833 magnetization      20.8322169

 Broyden mixing:
  rms(total) = 0.14903E+01    rms(broyden)= 0.14902E+01
  rms(prec ) = 0.20742E+01
  weight for this iteration     100.00

 eigenvalues of (default mixing * dielectric matrix)
  average eigenvalue GAMMA=   0.3691
  1.5843  0.9724  0.6728  0.6728  0.5669  0.5669  0.3599  0.1077  0.1077  0.1843
  0.1704  0.1191  0.1191  0.0947  0.0947  0.0707  0.0840  0.0955

 Free energy of the ion-electron system (eV)
  ---------------------------------------------------
  alpha Z        PSCENC =      2031.47334295
  Ewald energy   TEWEN  =    -40802.37851703
  -Hartree energ DENC   =    -10729.78142497
  -exchange      EXHF   =         0.00000000
  -V(xc)+E(xc)   XCENC  =      1923.86356203
  PAW double counting   =     49926.84405851   -52185.02147284
  entropy T*S    EENTRO =        -0.04574661
  eigenvalues    EBANDS =      1195.01379752
  atomic energy  EATOM  =     48247.08154143
  Solvation  Ediel_sol  =         0.00000000
  ---------------------------------------------------
  free energy    TOTEN  =      -392.95085902 eV

  energy without entropy =     -392.90511240  energy(sigma->0) =     -392.92798571


--------------------------------------------------------------------------------------------------------




--------------------------------------- Iteration      1(  24)  ---------------------------------------


    POTLOK:  cpu time    0.1120: real time    0.1122
    SETDIJ:  cpu time    0.0195: real time    0.0195
     EDDAV:  cpu time   59.7738: real time   59.9147
    CHARGE:  cpu time    1.4874: real time    1.4909
    MIXING:  cpu time    0.0055: real time    0.0055
    --------------------------------------------
      LOOP:  cpu time   61.3981: real time   61.5428

 eigenvalue-minimisations  : 25872
 total energy-change (2. order) :-0.3787901E+00  (-0.5560591E-01)
 number of electron     512.0000010 magnetization      26.2915999
 augmentation part      219.3972135 magnetization      20.1292674

 Broyden mixing:
  rms(total) = 0.17464E+01    rms(broyden)= 0.17461E+01
  rms(prec ) = 0.25291E+01
  weight for this iteration     100.00

 eigenvalues of (default mixing * dielectric matrix)
  average eigenvalue GAMMA=   0.3808
  1.6415  0.8414  0.8414  0.8698  0.6068  0.6068  0.3494  0.2648  0.1072  0.1072
  0.1990  0.1260  0.1260  0.1100  0.0948  0.0948  0.0707  0.0834  0.0934

 Free energy of the ion-electron system (eV)
  ---------------------------------------------------
  alpha Z        PSCENC =      2031.47334295
  Ewald energy   TEWEN  =    -40802.37851703
  -Hartree energ DENC   =    -10732.00016656
  -exchange      EXHF   =         0.00000000
  -V(xc)+E(xc)   XCENC  =      1923.89151476
  PAW double counting   =     49935.51327628   -52193.60721567
  entropy T*S    EENTRO =        -0.05266932
  eigenvalues    EBANDS =      1196.74924408
  atomic energy  EATOM  =     48247.08154143
  Solvation  Ediel_sol  =         0.00000000
  ---------------------------------------------------
  free energy    TOTEN  =      -393.32964909 eV

[...]
   -.540E+02 0.112E+03 0.883E+02   0.537E+02 -.115E+03 -.829E+02   -.751E+00 -.353E+00 -.751E+00   0.108E+01 0.206E+01 -.459E+01
   -.431E+02 0.493E+02 0.247E+02   0.418E+02 -.523E+02 -.262E+02   0.937E-01 0.203E+00 0.821E+00   0.924E+00 0.278E+01 0.393E+00
   -.897E+02 0.154E+03 0.362E+02   0.877E+02 -.155E+03 -.371E+02   0.888E+00 -.646E+00 0.812E-01   0.141E+01 0.616E+00 0.333E+00
   -.102E+03 0.765E+02 0.148E+03   0.101E+03 -.801E+02 -.149E+03   0.314E+00 0.315E+00 0.286E+00   0.101E+01 0.266E+01 0.631E-01
   -.587E+02 0.136E+03 -.206E+02   0.583E+02 -.136E+03 0.161E+02   0.144E+01 -.225E+00 -.322E+00   -.933E+00 -.904E+00 0.465E+01
   -.565E+02 0.228E+02 -.122E+03   0.579E+02 -.219E+02 0.122E+03   0.145E+00 -.486E+00 0.900E+00   -.139E+01 0.323E-01 -.311E-01
   -.141E+03 0.698E+02 -.104E+03   0.144E+03 -.689E+02 0.103E+03   0.102E+01 -.117E+01 0.134E+01   -.330E+01 0.421E+00 -.230E+00
   -.116E+03 0.475E+02 -.850E+02   0.117E+03 -.502E+02 0.862E+02   -.440E+00 0.506E-01 -.646E+00   0.460E+00 0.239E+01 0.212E+00
   -.351E+02 -.480E+02 0.133E+03   0.323E+02 0.497E+02 -.131E+03   -.297E-01 0.450E+00 -.723E+00   0.296E+01 -.221E+01 -.172E+01
   -.307E+02 -.129E+03 0.199E+01   0.294E+02 0.131E+03 -.528E+01   -.178E+01 0.617E+00 0.586E-01   0.290E+01 -.252E+01 0.341E+01
   -.761E+02 -.618E+02 -.250E+02   0.731E+02 0.636E+02 0.242E+02   0.597E+00 -.853E+00 0.972E+00   0.245E+01 -.533E+00 0.330E+00
   -.555E+02 -.133E+03 0.822E+02   0.578E+02 0.135E+03 -.823E+02   -.119E+01 0.302E+00 -.664E+00   -.810E+00 -.255E+01 0.299E+00
   -.627E+02 -.849E+02 -.449E+02   0.637E+02 0.845E+02 0.439E+02   -.873E+00 -.293E-01 -.769E+00   -.289E-01 0.115E+01 0.200E+01
   0.994E+01 -.899E+02 -.546E+02   -.828E+01 0.894E+02 0.576E+02   -.222E+01 0.846E+00 0.302E+00   0.105E-01 -.275E-01 -.312E+01
   -.795E+02 -.612E+01 -.741E+02   0.813E+02 0.634E+01 0.733E+02   0.607E+00 -.540E-01 0.122E+01   -.213E+01 -.447E+00 -.304E+00
   -.643E+02 -.124E+03 -.379E+02   0.666E+02 0.126E+03 0.376E+02   -.566E+00 0.151E+01 0.568E+00   -.138E+01 -.240E+01 -.184E+00
   0.286E+02 0.214E+02 0.692E+01   -.249E+02 -.224E+02 -.534E+01   0.162E+00 0.584E+00 -.111E+01   -.395E+01 0.756E+00 -.220E+00
   0.100E+02 0.919E+02 0.973E+02   -.804E+01 -.996E+02 -.100E+03   -.127E+01 0.347E+01 0.436E+01   -.609E+00 0.392E+01 -.250E+01
   0.783E+02 0.412E+02 0.806E+02   -.830E+02 -.444E+02 -.868E+02   0.459E+01 0.209E+01 0.406E+01   0.353E+00 0.122E+01 0.219E+01
   0.757E+02 0.104E+03 0.995E+01   -.770E+02 -.112E+03 -.883E+01   0.224E+01 0.472E+01 -.122E+01   -.114E+01 0.287E+01 -.103E+00
   -.104E+01 0.126E+02 -.725E+02   -.759E+00 -.106E+02 0.743E+02   -.127E+01 -.121E+01 -.161E+01   0.365E+01 -.583E+00 -.846E-01
   0.265E+02 0.847E+02 -.235E+02   -.286E+02 -.874E+02 0.217E+02   0.704E+00 0.320E+01 -.115E+01   0.131E+01 -.439E+00 0.248E+01
   0.852E+02 0.360E+02 -.262E+02   -.907E+02 -.397E+02 0.282E+02   0.457E+01 0.114E+01 -.185E+00   0.934E+00 0.280E+01 -.216E+01
   0.100E+03 0.601E+02 -.588E+02   -.106E+03 -.627E+02 0.608E+02   0.537E+01 0.198E+01 -.193E+01   0.829E+00 0.511E+00 0.184E+00
   -.122E+02 -.975E+02 0.129E+02   0.148E+02 0.102E+03 -.176E+02   -.209E+01 -.390E+01 -.729E+00   0.262E+00 -.459E+00 0.564E+01
   0.125E+02 -.134E+02 0.903E+02   -.127E+02 0.172E+02 -.942E+02   0.857E+00 0.819E+00 0.483E+01   -.538E+00 -.490E+01 -.948E+00
   0.343E+02 -.890E+02 0.609E+02   -.319E+02 0.931E+02 -.650E+02   0.654E+00 -.240E+01 0.411E+01   -.275E+01 -.146E+01 0.277E+00
   0.806E+02 -.975E+01 0.272E+02   -.793E+02 0.118E+02 -.295E+02   0.256E+01 0.621E-01 0.774E+00   -.412E+01 -.268E+01 0.124E+01
   -.371E+02 -.843E+02 -.770E+02   0.397E+02 0.886E+02 0.863E+02   -.463E+01 -.447E+01 -.443E+01   0.309E+01 0.440E+00 -.488E+01
   0.281E+00 -.398E+02 -.225E+02   0.192E+01 0.410E+02 0.204E+02   -.622E+00 -.201E+01 0.812E+00   -.114E+01 0.992E+00 0.102E+01
   0.836E+02 -.836E+02 -.290E+02   -.886E+02 0.889E+02 0.300E+02   0.374E+01 -.300E+01 -.728E+00   0.145E+01 -.244E+01 -.175E+00
   0.874E+02 0.364E+01 -.716E+02   -.913E+02 -.466E+01 0.778E+02   0.357E+01 0.129E+01 -.518E+01   -.232E+00 -.879E+00 -.138E+01
   -.715E+02 0.385E+02 0.409E+01   0.714E+02 -.441E+02 -.237E+01   -.369E+01 0.187E+01 -.799E+00   0.406E+01 0.395E+01 -.913E+00
   -.760E+02 0.765E+02 0.734E+02   0.803E+02 -.808E+02 -.764E+02   -.485E+01 0.327E+01 0.363E+01   0.624E+00 0.116E+01 -.492E+00
   -.339E+02 0.283E+02 0.925E+02   0.359E+02 -.302E+02 -.903E+02   -.114E+01 0.306E+00 0.190E+01   -.687E+00 0.122E+01 -.449E+01
   -.366E+02 0.935E+02 0.172E+02   0.362E+02 -.958E+02 -.198E+02   -.815E+00 0.354E+01 0.104E+01   0.110E+01 -.137E+01 0.158E+01
   -.699E+02 0.424E+02 -.397E+02   0.775E+02 -.446E+02 0.400E+02   -.486E+01 0.189E+01 -.594E+00   -.307E+01 0.379E+00 0.644E+00
   -.607E+02 0.832E+02 -.264E+02   0.648E+02 -.854E+02 0.258E+02   -.312E+01 0.260E+01 -.262E-01   -.104E+01 -.532E+00 0.568E+00
   -.259E+02 0.378E+02 -.375E+02   0.254E+02 -.395E+02 0.328E+02   0.221E+01 0.135E+01 -.982E+00   -.134E+01 0.149E+00 0.537E+01
   -.162E+02 0.695E+02 -.569E+02   0.154E+02 -.749E+02 0.595E+02   0.145E+01 0.420E+01 -.979E+00   -.744E+00 0.130E+01 -.125E+01
   -.750E+02 -.983E+02 -.642E+01   0.794E+02 0.106E+03 0.625E+01   -.435E+01 -.382E+01 -.468E+00   0.188E+00 -.405E+01 0.963E+00
   -.357E+02 -.407E+02 0.914E+02   0.354E+02 0.447E+02 -.995E+02   -.186E+00 -.305E+01 0.462E+01   0.631E+00 -.106E+01 0.316E+01
   -.311E+02 -.802E+02 0.582E+02   0.297E+02 0.857E+02 -.579E+02   -.187E+01 -.433E+01 0.208E+01   0.329E+01 -.110E+01 -.250E+01
   -.351E+02 -.374E+02 0.138E+02   0.328E+02 0.362E+02 -.146E+02   -.230E+01 -.302E+00 0.493E+00   0.415E+01 0.137E+01 0.531E+00
   -.908E+02 -.805E+02 -.233E+02   0.101E+03 0.837E+02 0.253E+02   -.658E+01 -.258E+01 -.119E+01   -.327E+01 -.338E+00 -.886E+00
   -.593E+02 -.354E+02 -.248E+02   0.610E+02 0.355E+02 0.278E+02   -.255E+01 -.741E+00 -.105E+01   0.107E+01 0.582E+00 -.243E+01
   -.653E+02 -.722E+02 -.216E+02   0.706E+02 0.749E+02 0.192E+02   -.309E+01 -.242E+01 -.372E+00   -.168E+01 -.236E+00 0.266E+01
   -.235E+02 -.184E+02 -.729E+02   0.240E+02 0.191E+02 0.761E+02   -.860E+00 -.206E-02 -.254E+01   0.752E-01 -.960E+00 -.323E+00
 -----------------------------------------------------------------------------------------------
   0.291E+02 -.107E+02 -.142E+02   -.959E-13 0.711E-14 -.171E-12   -.303E+02 0.876E+01 0.935E+01   0.113E+01 0.199E+01 0.473E+01
 
 
 POSITION                                       TOTAL-FORCE (eV/Angst)
 -----------------------------------------------------------------------------------
      0.06646      8.38689      8.40957        -0.888759     -0.199854     -0.550537
      8.37585      2.00143      1.98304        -0.344157      0.675042      0.297706
      2.08319      0.01479      1.97365        -0.026351     -0.699069      1.129615
      2.06595      2.08891      0.09446        -0.432698      0.207778     -1.417870
      0.00608      0.06038      4.10984        -0.476934     -0.748901      0.330200
      0.08139      2.07270      6.21679        -1.301918     -0.138127      0.432501
      2.03569      0.02599      6.24925        -0.089142     -0.531898     -0.136076
      1.98867      2.12642      4.00548        -0.092399     -0.902989      1.136373
      8.34395      4.09033      0.08505        -0.250217      0.250034     -0.915197
      0.05307      6.19971      2.03317        -0.860433      0.644173     -0.192180
      2.03833      4.14005      2.06041         0.234332     -0.133059     -0.241599
      2.05681      6.13797      0.02496        -0.255312      0.687064     -0.578005
      8.40446      4.09326      4.10257        -0.897875      0.545452      0.698521
      0.07807      6.19915      6.16639        -1.146613      0.661335      0.530333
      2.01235      4.20902      6.08341         0.398931     -0.588496      1.310951
      2.04322      6.15671      4.14287        -0.507606      0.923008     -0.070383
      4.15991      0.04362      8.33199         0.023819     -0.524403      0.009622
      4.17148      2.04855      2.09706        -0.234791      0.010607     -0.259487
      6.22014      0.02336      2.06523         0.295516     -0.652605     -0.429022
      6.10078      2.09557      0.00468         0.808196     -0.651989     -1.045065
      4.07718      0.00664      4.11339         0.160457     -0.702493     -0.145296
      4.09225      2.00998      6.17242         0.143270      0.482560      0.497353
      6.10716      8.34348      6.09300         0.977188      0.111068      0.636930
      6.08161      2.08349      4.07039         0.911397     -0.240458      0.755777
      4.07315      4.16721      8.41666         0.175034     -0.019341     -0.552595
      4.14666      6.18040      2.00970        -0.203607      0.620569      0.182001
      6.25899      4.09863      2.01471         0.003105      0.419923      0.475718
      6.23523      6.19732      8.40714         0.255429      0.443135     -0.502454
      4.10901      4.08473      4.10145         0.039437      0.659277      0.196091
      4.20208      6.17619      6.23432        -0.548394      0.354409      0.111267
      6.23592      4.13813      6.22633         0.302409     -0.281441      0.103809
      6.18910      6.16654      4.09747         0.382780      0.463589      0.170590
      2.10305      2.06017      2.03091        -0.030646      0.345438      0.248272
      2.09748      0.07267      0.05289         0.123634     -0.268619     -0.812920
      0.00828      2.08072      8.35854         0.249871      0.049275      0.008830
      0.02814      0.06964      2.05181        -0.190260     -0.677711     -0.199102
      2.04848      2.08655      6.13559         0.580324      0.167373      0.140481
      2.06951      0.06321      4.12445        -0.114628     -0.028031     -0.430124
      8.32687      2.09517      4.16147         0.060373      0.219020     -0.385883
      0.00590      8.42429      6.16726        -0.074898     -0.113841      0.278785
      2.01937      6.15307      2.09783         0.763842      0.257585      0.203213
      1.96085      4.13098      8.37193         0.200654     -0.276320     -0.008952
      8.29654      6.10367      8.36755         0.303851      0.259954      0.266815
      0.04657      4.15916      2.16628        -0.263916     -0.591791     -0.284379
      1.98958      6.23261      6.15849         1.063287      0.267357     -0.070108
      2.00631      4.07522      4.10750         0.442816      0.227449     -0.272585
      8.39641      6.20847      4.06143         0.147022     -0.127570      0.063547
      0.02117      4.20866      6.18024        -0.540277     -0.600633     -0.447087
      6.18870      2.10450      1.99903         0.245124      0.223740      0.013162
      6.21456      0.06946      8.40628        -0.021630      0.069354      0.102073
      4.02215      2.16031      0.03347         0.126000     -0.318543     -0.424866
      4.13451      0.00038      2.02407        -0.083528     -0.108025     -0.019918
      6.20165      2.07221      6.25011        -0.325865      0.094913      0.351439
      6.19958      0.03704      4.08051        -0.080572     -0.141101     -0.147219
      4.01906      2.08511      4.16662         0.362442     -0.156543     -0.246208
      4.08787      8.39776      6.14358        -0.078296      0.130936      0.460186
      6.11385      6.09036      2.00513         0.184427      0.055014      0.323783
      6.18528      4.06421      0.05014         0.165721     -0.107125     -0.348162
      4.08765      6.20623      8.38241         0.014235      0.102600     -0.147133
      4.11656      4.11397      2.04686        -0.402528     -0.184811      0.173588
      6.13165      6.12222      6.26178         0.210279      0.335145     -0.043318
      6.16542      4.11297      4.15724         0.202358     -0.048366     -0.512304
      3.96644      6.18250      4.12322         0.504911      0.041216     -0.105533
      4.11523      4.08106      6.14465        -0.298223     -0.241238      0.302029
 -----------------------------------------------------------------------------------
    total drift:                               -0.000049      0.052623     -0.081192


--------------------------------------------------------------------------------------------------------



  FREE ENERGIE OF THE ION-ELECTRON SYSTEM (eV)
  ---------------------------------------------------
  free  energy   TOTEN  =      -393.9473638950 eV

  energy  without entropy=     -393.8882714364  energy(sigma->0) =     -393.91781767
 


--------------------------------------------------------------------------------------------------------


    POTLOK:  cpu time    0.1374: real time    0.1409


--------------------------------------------------------------------------------------------------------


     LOOP+:  cpu time 5098.0958: real time 5110.3547
    4ORBIT:  cpu time    0.0000: real time    0.0000

volume of typ            1:    34.1 %

volume of typ            2:     8.7 %
 
total charge     
 
# of ion       s       p       d       tot
------------------------------------------
    1        0.177   0.167   7.944   8.288
    2        0.192   0.197   7.890   8.279
    3        0.201   0.214   8.014   8.428
    4        0.210   0.231   7.892   8.333
    5        0.190   0.190   7.978   8.358
    6        0.192   0.194   7.980   8.365
    7        0.190   0.188   7.897   8.276
    8        0.211   0.234   7.922   8.367
    9        0.194   0.198   7.936   8.328
   10        0.195   0.194   7.975   8.363
   11        0.206   0.224   8.014   8.445
   12        0.185   0.179   8.118   8.482
   13        0.206   0.222   7.902   8.330
   14        0.194   0.195   7.971   8.360
   15        0.200   0.213   7.965   8.378
   16        0.206   0.219   7.857   8.281
   17        0.184   0.182   7.989   8.355
   18        0.204   0.221   8.092   8.516
   19        0.188   0.182   7.931   8.302
   20        0.201   0.208   7.949   8.358
   21        0.197   0.203   7.931   8.331
   22        0.195   0.203   7.826   8.224
   23        0.178   0.170   7.925   8.273
   24        0.195   0.197   7.997   8.389
   25        0.195   0.201   7.963   8.359
   26        0.197   0.201   7.956   8.353
   27        0.202   0.215   7.792   8.208
   28        0.183   0.177   7.974   8.334
   29        0.204   0.221   7.972   8.396
   30        0.190   0.187   7.837   8.215
   31        0.193   0.190   7.937   8.320
   32        0.173   0.161   7.979   8.313
   33        1.264   2.761   0.008   4.033
   34        1.261   2.771   0.007   4.039
   35        1.263   2.747   0.006   4.016
   36        1.258   2.769   0.006   4.033
   37        1.266   2.744   0.006   4.016
   38        1.262   2.760   0.006   4.028
   39        1.264   2.756   0.006   4.026
   40        1.256   2.751   0.005   4.011
   41        1.265   2.764   0.007   4.035
   42        1.267   2.756   0.006   4.029
   43        1.259   2.746   0.005   4.010
   44        1.264   2.759   0.007   4.031
   45        1.260   2.759   0.007   4.026
   46        1.265   2.779   0.009   4.052
   47        1.262   2.747   0.005   4.014
   48        1.262   2.765   0.006   4.032
   49        1.262   2.760   0.008   4.029
   50        1.261   2.732   0.005   3.997
   51        1.267   2.753   0.007   4.027
   52        1.265   2.754   0.006   4.025
   53        1.265   2.725   0.004   3.994
   54        1.252   2.763   0.006   4.020
   55        1.266   2.765   0.008   4.039
   56        1.256   2.758   0.006   4.020
   57        1.260   2.746   0.006   4.012
   58        1.263   2.755   0.007   4.025
   59        1.260   2.754   0.006   4.020
   60        1.267   2.753   0.007   4.026
   61        1.255   2.752   0.006   4.013
   62        1.262   2.759   0.006   4.028
   63        1.266   2.741   0.006   4.013
   64        1.266   2.750   0.006   4.022
--------------------------------------------------
tot          46.62   94.53  254.51  395.65
 
magnetization (x)
 
# of ion       s       p       d       tot
------------------------------------------
    1        0.005   0.004   1.272   1.282
    2        0.002   0.001  -1.127  -1.125
    3        0.005   0.005  -0.824  -0.815
    4        0.001   0.002  -0.611  -0.608
    5        0.007   0.007   1.271   1.285
    6        0.002   0.003   1.204   1.209
    7        0.003   0.000   1.316   1.319
    8        0.001   0.002  -1.059  -1.056
    9        0.006   0.006   0.898   0.910
   10        0.005   0.005   1.221   1.231
   11       -0.001  -0.001   0.682   0.680
   12        0.006   0.005   1.072   1.082
   13        0.004   0.003   0.316   0.323
   14        0.008   0.011   1.295   1.314
   15        0.004   0.004  -1.081  -1.073
   16        0.005   0.004   0.587   0.596
   17        0.003   0.004  -1.211  -1.204
   18        0.000   0.000  -0.444  -0.444
   19        0.006   0.003   1.293   1.302
   20        0.006   0.006   0.596   0.608
   21        0.003   0.000   1.286   1.289
   22        0.004   0.005  -0.087  -0.078
   23        0.010   0.009   1.411   1.430
   24        0.005   0.003   1.115   1.122
   25        0.000  -0.001   1.164   1.163
   26        0.004   0.005   0.778   0.788
   27        0.006   0.006   0.312   0.324
   28        0.008   0.006   1.199   1.213
   29        0.003   0.006  -1.116  -1.107
   30        0.006   0.007   1.036   1.049
   31        0.005   0.002   1.237   1.243
   32        0.008   0.005   1.162   1.175
   33       -0.012  -0.087  -0.000  -0.100
   34        0.000   0.002  -0.000   0.002
   35        0.007   0.046   0.000   0.053
   36        0.009   0.057   0.000   0.066
   37        0.001  -0.008   0.000  -0.007
   38        0.010   0.097   0.000   0.108
   39        0.005   0.038   0.000   0.043
   40        0.021   0.198   0.001   0.220
   41        0.012   0.088   0.000   0.100
   42        0.008   0.088   0.000   0.097
   43        0.018   0.169   0.000   0.188
   44        0.010   0.100   0.000   0.110
   45        0.011   0.073   0.000   0.084
   46        0.003   0.022   0.000   0.025
   47        0.013   0.117   0.000   0.131
   48        0.011   0.091   0.000   0.102
   49        0.007   0.025   0.000   0.032
   50        0.011   0.076   0.000   0.087
   51        0.001  -0.000   0.000   0.001
   52        0.002   0.005   0.000   0.007
   53        0.012   0.107   0.000   0.120
   54        0.023   0.186   0.001   0.210
   55        0.001   0.017   0.000   0.019
   56        0.014   0.100   0.000   0.115
   57        0.014   0.107   0.000   0.121
   58        0.014   0.092   0.000   0.106
   59        0.013   0.089   0.000   0.102
   60        0.007   0.066   0.000   0.074
   61        0.019   0.163   0.001   0.183
   62        0.012   0.076   0.000   0.088
   63        0.007   0.046   0.000   0.054
   64        0.003   0.023   0.000   0.026
--------------------------------------------------
tot           0.43    2.40   16.17   18.99
 

 total amount of memory used by VASP MPI-rank0   268112. kBytes
=======================================================================

   base      :      30000. kBytes
   nonlr-proj:      40696. kBytes
   fftplans  :       5538. kBytes
   grid      :      31719. kBytes
   one-center:       1990. kBytes
   wavefun   :     158169. kBytes
 
  
  
 General timing and accounting informations for this job:
 ========================================================
  
                  Total CPU time used (sec):     5135.236
                            User time (sec):     5128.124
                          System time (sec):        7.112
                         Elapsed time (sec):     5151.312
  
                   Maximum memory used (kb):      340760.
                   Average memory used (kb):           0.
  
                          Minor page faults:        40779
                          Major page faults:           18
                 Voluntary context switches:         1179
