 vasp.5.4.4.18Apr17-6-g9f103f2a35 (build May 12 2020 04:58:55) complex          
  
 MD_VERSION_INFO: Compiled 2020-05-12T11:58:55-UTC in devlin.sd.materialsdesign.
 com:/home/medea2/data/build/wwolf/vasp-gpu5.4.4/13047/x86_64/src/src/build/std 
 from svn 13047
 
 This VASP executable licensed from Materials Design, Inc.
 
 executed on                        Lin64 date 2023.03.23  19:37:03
 running on   16 total cores
 distrk:  each k-point on   16 cores,    1 groups
 distr:  one band on NCORES_PER_BAND=   1 cores,   16 groups


--------------------------------------------------------------------------------------------------------


 INCAR:
 POTCAR:    PAW_PBE Ni 02Aug2007                  
 POTCAR:    PAW_PBE O 08Apr2002                   

 ----------------------------------------------------------------------------- 
|                                                                             |
|           W    W    AA    RRRRR   N    N  II  N    N   GGGG   !!!           |
|           W    W   A  A   R    R  NN   N  II  NN   N  G    G  !!!           |
|           W    W  A    A  R    R  N N  N  II  N N  N  G       !!!           |
|           W WW W  AAAAAA  RRRRR   N  N N  II  N  N N  G  GGG   !            |
|           WW  WW  A    A  R   R   N   NN  II  N   NN  G    G                |
|           W    W  A    A  R    R  N    N  II  N    N   GGGG   !!!           |
|                                                                             |
|      For optimal performance we recommend to set                            |
|        NCORE= 4 - approx SQRT( number of cores)                             |
|      NCORE specifies how many cores store one orbital (NPAR=cpu/NCORE).     |
|      This setting can  greatly improve the performance of VASP for DFT.     |
|      The default,   NCORE=1            might be grossly inefficient         |
|      on modern multi-core architectures or massively parallel machines.     |
|      Do your own testing !!!!                                               |
|      Unfortunately you need to use the default for GW and RPA calculations. |
|      (for HF NCORE is supported but not extensively tested yet)             |
|                                                                             |
 ----------------------------------------------------------------------------- 

 POTCAR:    PAW_PBE Ni 02Aug2007                  
  local pseudopotential read in
  partial core-charges read in
  partial kinetic energy density read in
  atomic valenz-charges read in
  non local Contribution for L=           2  read in
    real space projection operators read in
  non local Contribution for L=           2  read in
    real space projection operators read in
  non local Contribution for L=           0  read in
    real space projection operators read in
  non local Contribution for L=           0  read in
    real space projection operators read in
  non local Contribution for L=           1  read in
    real space projection operators read in
  non local Contribution for L=           1  read in
    real space projection operators read in
    PAW grid and wavefunctions read in
 
   number of l-projection  operators is LMAX  =           6
   number of lm-projection operators is LMMAX =          18
 
 POTCAR:    PAW_PBE O 08Apr2002                   
  local pseudopotential read in
  partial core-charges read in
  partial kinetic energy density read in
  kinetic energy density of atom read in
  atomic valenz-charges read in
  non local Contribution for L=           0  read in
    real space projection operators read in
  non local Contribution for L=           0  read in
    real space projection operators read in
  non local Contribution for L=           1  read in
    real space projection operators read in
  non local Contribution for L=           1  read in
    real space projection operators read in
    PAW grid and wavefunctions read in
 
   number of l-projection  operators is LMAX  =           4
   number of lm-projection operators is LMMAX =           8
 
 Optimization of the real space projectors (new method)

 maximal supplied QI-value         = 16.25
 optimisation between [QCUT,QGAM] = [ 11.38, 22.75] = [ 36.24,144.96] Ry 
 Optimized for a Real-space Cutoff    1.47 Angstroem

   l    n(q)    QCUT    max X(q) W(low)/X(q) W(high)/X(q)  e(spline) 
   2      9    11.376    60.317    0.17E-03    0.16E-04    0.16E-06
   2      9    11.376    55.921    0.17E-03    0.16E-04    0.17E-06
   0     10    11.376    51.690    0.45E-04    0.60E-04    0.21E-06
   0     10    11.376    30.015    0.37E-04    0.55E-04    0.19E-06
   1     10    11.376    18.849    0.83E-04    0.11E-03    0.92E-07
   1     10    11.376    14.624    0.69E-04    0.92E-04    0.82E-07
 Optimization of the real space projectors (new method)

 maximal supplied QI-value         = 24.76
 optimisation between [QCUT,QGAM] = [ 11.39, 22.77] = [ 36.31,145.25] Ry 
 Optimized for a Real-space Cutoff    1.10 Angstroem

   l    n(q)    QCUT    max X(q) W(low)/X(q) W(high)/X(q)  e(spline) 
   0      7    11.387    20.381    0.22E-03    0.48E-03    0.18E-06
   0      7    11.387    15.268    0.22E-03    0.52E-03    0.19E-06
   1      7    11.387     5.964    0.22E-03    0.73E-03    0.24E-06
   1      7    11.387     5.382    0.19E-03    0.60E-03    0.21E-06

 ----------------------------------------------------------------------------- 
|                                                                             |
|  ADVICE TO THIS USER RUNNING 'VASP/VAMP'   (HEAR YOUR MASTER'S VOICE ...):  |
|                                                                             |
|      You enforced a specific xc-type in the INCAR file,                     |
|      a different type was found on the POTCAR file                          |
|          I HOPE YOU KNOW, WHAT YOU ARE  DOING                               |
|                                                                             |
 ----------------------------------------------------------------------------- 

  PAW_PBE Ni 02Aug2007                  :
 energy of atom  1       EATOM=-1077.6739
 kinetic energy error for atom=    0.0030 (will be added to EATOM!!)
  PAW_PBE O 08Apr2002                   :
 energy of atom  2       EATOM= -432.3788
 kinetic energy error for atom=    0.0224 (will be added to EATOM!!)
 
 
 POSCAR: NiO_Fm-3m_scale_0_975_disp_0_20_round_1 
  positions in direct lattice
  No initial velocities read in
 exchange correlation table for  LEXCH =       14
   RHO(1)=    0.500       N(1)  =     2000
   RHO(2)=  100.500       N(2)  =     4000
 


--------------------------------------------------------------------------------------------------------


 ion  position               nearest neighbor table
   1  0.044  0.993  0.988-  34 1.55  43 1.55  40 1.82  35 2.03  12 2.39   4 2.44   7 2.44  36 2.50
                            14 2.53  23 2.69   3 2.75  10 2.76   6 2.83  20 3.07
   2  0.934  0.256  0.248-  49 0.99  35 1.85  36 2.00  20 2.09  44 2.21  27 2.23  39 2.38  24 2.48
                             9 2.62  19 2.74
   3  0.243  0.008  0.267-  41 1.68  38 1.77  34 1.83  36 2.02  33 2.15  52 2.15  10 2.48  21 2.73
                             1 2.75   5 2.79   8 2.82  12 2.83   4 2.88  16 2.93  26 2.99  17 3.04
   4  0.230  0.234  0.988-  34 1.78  35 1.88  33 1.94  37 2.13  51 2.24   1 2.44  15 2.46   7 2.67
                             6 2.72   3 2.88  25 2.90   9 2.96
   5  0.016  0.002  0.531-  54 1.68  36 1.91  47 1.93  40 1.96  39 2.07  38 2.22  16 2.31  14 2.49
                             7 2.66  10 2.66   6 2.70  24 2.72   8 2.77   3 2.79  32 2.85  23 3.04
   6  0.984  0.252  0.755-  53 1.58  39 1.73  40 1.98  48 2.11  35 2.19  37 2.27  24 2.52  15 2.67
                             5 2.70   4 2.72  13 2.75  23 2.77   9 2.80   1 2.83   8 2.86  20 2.89
   7  0.251  0.988  0.765-  45 1.90  34 2.22  40 2.23  38 2.28  56 2.29  16 2.30  14 2.44   1 2.44
                            37 2.45  12 2.65   5 2.66   4 2.67  21 2.67  30 2.92   8 2.95   6 3.01
   8  0.247  0.259  0.514-  37 1.76  46 1.88  39 2.02  55 2.06  38 2.16  33 2.34  21 2.73  15 2.74
                            11 2.76   5 2.77   3 2.82  13 2.83   6 2.86   7 2.95  18 3.03
   9  0.958  0.483  0.015-  58 1.75  48 1.94  35 1.98  44 2.07  27 2.26  20 2.38  42 2.49  31 2.55
                             2 2.62  28 2.66   6 2.80  15 2.90   4 2.96
  10  0.017  0.796  0.270-  41 1.62  36 1.80  57 1.92  44 2.18  47 2.24  43 2.39   3 2.48   5 2.66
                            12 2.73   1 2.76  19 2.76  16 2.79  32 2.81  28 2.98  11 3.01  27 3.01
  11  0.266  0.516  0.287-  46 1.80  33 2.03  44 2.23  60 2.35  41 2.36  42 2.50  29 2.65   8 2.76
                            25 2.79  26 2.80  18 2.82  13 2.90  12 3.00  10 3.01
  12  0.235  0.766  0.010-  42 1.62  41 1.85  45 2.03  34 2.04  43 2.04  59 2.25   1 2.39   7 2.65
                            14 2.67  10 2.73   3 2.83  17 2.90  25 2.93  11 3.00  15 3.00  26 3.08
  13  0.015  0.522  0.546-  48 1.87  47 1.94  62 2.02  39 2.12  46 2.14  44 2.24  32 2.62  15 2.67
                            16 2.67  14 2.67   6 2.75  31 2.79   8 2.83  11 2.90  24 2.93  27 3.02
  14  0.025  0.784  0.752-  45 1.66  47 1.70  43 1.81  40 1.83  16 2.15  48 2.20  61 2.35   7 2.44
                             5 2.49   1 2.53  12 2.67  13 2.67  23 2.77  32 2.78  31 2.99
  15  0.239  0.465  0.786-  37 1.48  42 1.75  64 1.99  48 2.14  46 2.25  45 2.31   4 2.46  25 2.67
                            13 2.67   6 2.67   8 2.74   9 2.90  12 3.00
  16  0.211  0.791  0.559-  45 1.63  47 1.81  38 1.85  14 2.15  63 2.15   7 2.30   5 2.31  46 2.49
                            13 2.67  21 2.74  10 2.79   3 2.93  30 3.06
  17  0.534  0.968  0.028-  50 1.49  59 1.75  52 1.91  56 2.07  51 2.44  34 2.48  28 2.50  23 2.51
                            19 2.53  26 2.57  30 2.74  12 2.90  22 2.94  20 2.98   3 3.04
  18  0.524  0.278  0.258-  55 1.75  51 1.97  33 2.02  52 2.10  60 2.23  49 2.44  20 2.62  25 2.65
                            27 2.78  11 2.82  29 2.85  19 2.88  24 2.92   8 3.03  21 3.04
  19  0.728  0.984  0.277-  57 1.75  52 1.77  54 2.01  50 2.07  36 2.14  49 2.32  26 2.47  17 2.53
                             2 2.74  32 2.76  10 2.76  21 2.81  28 2.84  24 2.87  18 2.88  20 2.88
  20  0.770  0.255  0.045-  35 1.85   2 2.09  58 2.11  49 2.13  51 2.13  53 2.27   9 2.38  50 2.50
                            27 2.51  18 2.62  22 2.79  23 2.80  19 2.88   6 2.89  17 2.98  25 3.02
  21  0.475  0.005  0.517-  38 1.52  63 1.92  55 2.02  52 2.08  56 2.10   7 2.67   8 2.73   3 2.73
                            16 2.74  22 2.78  30 2.79  19 2.81  26 2.84  18 3.04
  22  0.559  0.228  0.770-  56 1.77  53 1.84  51 2.02  64 2.22  55 2.42  37 2.44  23 2.47  24 2.69
                            21 2.78  20 2.79  31 2.88  17 2.94  25 2.96
  23  0.759  0.997  0.811-  61 1.58  40 1.75  50 1.76  56 1.81  53 1.94  54 2.44  22 2.47  17 2.51
                            30 2.64  28 2.65   1 2.69   6 2.77  14 2.77  20 2.80   5 3.04
  24  0.779  0.245  0.517-  49 1.74  39 1.75  54 1.81  53 1.98  62 2.16  55 2.25   2 2.48   6 2.52
                            22 2.69   5 2.72  19 2.87  18 2.92  13 2.93  27 2.98
  25  0.480  0.495  0.013-  51 1.81  42 1.92  64 1.96  59 2.08  58 2.12  60 2.40  18 2.65  15 2.67
                            11 2.79   4 2.90  28 2.91  31 2.91  12 2.93  26 2.95  22 2.96  30 2.98
  26  0.519  0.757  0.269-  60 1.69  59 2.03  52 2.09  57 2.14  63 2.28  41 2.46  19 2.47  17 2.57
                            29 2.58  28 2.71  11 2.80  21 2.84  32 2.85  25 2.95   3 2.99  27 3.04
  27  0.793  0.496  0.243-  44 1.61  62 1.85  60 1.98  49 2.01  58 2.07   2 2.23   9 2.26  57 2.26
                            20 2.51  28 2.68  18 2.78  32 2.94  24 2.98  10 3.01  13 3.02  26 3.04
  28  0.748  0.740  0.020-  50 1.69  57 1.71  58 1.85  59 1.86  43 2.03  61 2.11  17 2.50  31 2.58
                            23 2.65   9 2.66  27 2.68  30 2.71  26 2.71  19 2.84  25 2.91  10 2.98
  29  0.515  0.536  0.503-  60 1.70  63 1.92  46 1.94  62 2.10  64 2.16  55 2.28  26 2.58  11 2.65
                            32 2.65  30 2.72  18 2.85  31 2.90  27 3.07
  30  0.536  0.760  0.757-  61 1.63  63 1.72  56 2.00  59 2.09  64 2.16  45 2.45  31 2.54  23 2.64
                            28 2.71  29 2.72  32 2.72  17 2.74  21 2.79   7 2.92  25 2.98  16 3.06
  31  0.753  0.530  0.776-  58 1.72  48 1.79  64 2.17  61 2.22  53 2.41  62 2.44  30 2.54   9 2.55
                            28 2.58  32 2.68  13 2.79  22 2.88   6 2.90  29 2.90  25 2.91  14 2.99
  32  0.774  0.741  0.516-  47 1.73  62 1.88  61 2.09  54 2.27  57 2.34  63 2.39  13 2.62  29 2.65
                            31 2.68  30 2.72  19 2.76  14 2.78  10 2.81  26 2.85   5 2.85  27 2.94
  33  0.274  0.270  0.224-   4 1.94  18 2.02  11 2.03   3 2.15   8 2.34
  34  0.228  0.018  0.039-   1 1.55   4 1.78   3 1.83  12 2.04   7 2.22  17 2.48
  35  0.999  0.239  0.027-  20 1.85   2 1.85   4 1.88   9 1.98   1 2.03   6 2.19
  36  0.992  0.018  0.295-  10 1.80   5 1.91   2 2.00   3 2.02  19 2.14   1 2.50
  37  0.264  0.291  0.731-  15 1.48   8 1.76   4 2.13   6 2.27  22 2.44   7 2.45
  38  0.289  0.994  0.482-  21 1.52   3 1.77  16 1.85   8 2.16   5 2.22   7 2.28
  39  0.996  0.259  0.539-   6 1.73  24 1.75   8 2.02   5 2.07  13 2.12   2 2.38
  40  0.974  0.005  0.772-  23 1.75   1 1.82  14 1.83   5 1.96   6 1.98   7 2.23
  41  0.217  0.802  0.237-  10 1.62   3 1.68  12 1.85  11 2.36  26 2.46
  42  0.255  0.567  0.979-  12 1.62  15 1.75  25 1.92   9 2.49  11 2.50
  43  0.987  0.808  0.973-   1 1.55  14 1.81  28 2.03  12 2.04  10 2.39
  44  0.989  0.526  0.268-  27 1.61   9 2.07  10 2.18   2 2.21  11 2.23  13 2.24
  45  0.230  0.752  0.757-  16 1.63  14 1.66   7 1.90  12 2.03  15 2.31  30 2.45
  46  0.277  0.491  0.510-  11 1.80   8 1.88  29 1.94  13 2.14  15 2.25  16 2.49
  47  0.987  0.763  0.545-  14 1.70  32 1.73  16 1.81   5 1.93  13 1.94  10 2.24
  48  0.976  0.515  0.776-  31 1.79  13 1.87   9 1.94   6 2.11  15 2.14  14 2.20
  49  0.824  0.255  0.305-   2 0.99  24 1.74  27 2.01  20 2.13  19 2.32  18 2.44
  50  0.719  0.949  0.022-  17 1.49  28 1.69  23 1.76  19 2.07  20 2.50
  51  0.506  0.271  0.013-  25 1.81  18 1.97  22 2.02  20 2.13   4 2.24  17 2.44
  52  0.511  0.017  0.260-  19 1.77  17 1.91  21 2.08  26 2.09  18 2.10   3 2.15
  53  0.788  0.232  0.763-   6 1.58  22 1.84  23 1.94  24 1.98  20 2.27  31 2.41
  54  0.808  0.021  0.512-   5 1.68  24 1.81  19 2.01  32 2.27  23 2.44
  55  0.501  0.253  0.474-  18 1.75  21 2.02   8 2.06  24 2.25  29 2.28  22 2.42
  56  0.536  0.009  0.773-  22 1.77  23 1.81  30 2.00  17 2.07  21 2.10   7 2.29
  57  0.782  0.778  0.227-  28 1.71  19 1.75  10 1.92  26 2.14  27 2.26  32 2.34
  58  0.743  0.511  0.990-  31 1.72   9 1.75  28 1.85  27 2.07  20 2.11  25 2.12
  59  0.516  0.752  0.016-  17 1.75  28 1.86  26 2.03  25 2.08  30 2.09  12 2.25
  60  0.558  0.551  0.297-  26 1.69  29 1.70  27 1.98  18 2.23  11 2.35  25 2.40
  61  0.733  0.806  0.766-  23 1.58  30 1.63  32 2.09  28 2.11  31 2.22  14 2.35
  62  0.774  0.510  0.473-  27 1.85  32 1.88  13 2.02  29 2.10  24 2.16  31 2.44
  63  0.479  0.769  0.550-  30 1.72  21 1.92  29 1.92  16 2.15  26 2.28  32 2.39
  64  0.485  0.495  0.768-  25 1.96  15 1.99  29 2.16  30 2.16  31 2.17  22 2.22
 
  LATTYP: Found a simple cubic cell.
 ALAT       =     8.0143927500
  
  Lattice vectors:
  
 A1 = (   8.0143927500,   0.0000000000,   0.0000000000)
 A2 = (   0.0000000000,   8.0143927500,   0.0000000000)
 A3 = (   0.0000000000,   0.0000000000,   8.0143927500)


Analysis of symmetry for initial positions (statically):
=====================================================================
 Subroutine PRICEL returns:
 Original cell was already a primitive cell.
 

 Routine SETGRP: Setting up the symmetry group for a 
 simple cubic supercell.


 Subroutine GETGRP returns: Found  1 space group operations
 (whereof  1 operations were pure point group operations)
 out of a pool of 48 trial point group operations.


The static configuration has the point symmetry C_1 .


Analysis of symmetry for dynamics (positions and initial velocities):
=====================================================================
 Subroutine PRICEL returns:
 Original cell was already a primitive cell.
 

 Routine SETGRP: Setting up the symmetry group for a 
 simple cubic supercell.


 Subroutine GETGRP returns: Found  1 space group operations
 (whereof  1 operations were pure point group operations)
 out of a pool of 48 trial point group operations.


The dynamic configuration has the point symmetry C_1 .


Analysis of structural, dynamic, and magnetic symmetry:
=====================================================================
 Subroutine PRICEL returns:
 Original cell was already a primitive cell.
 

 Routine SETGRP: Setting up the symmetry group for a 
 simple cubic supercell.


 Subroutine GETGRP returns: Found  1 space group operations
 (whereof  1 operations were pure point group operations)
 out of a pool of 48 trial point group operations.


The magnetic configuration has the point symmetry C_1 .


 Subroutine INISYM returns: Found  1 space group operations
 (whereof  1 operations are pure point group operations),
 and found     1 'primitive' translations

 
 
 KPOINTS: Automatic mesh                          

Automatic generation of k-mesh.
Space group operators:
 irot       det(A)        alpha          n_x          n_y          n_z        tau_x        tau_y        tau_z
    1     1.000000     0.000000     1.000000     0.000000     0.000000     0.000000     0.000000     0.000000
 
 Subroutine IBZKPT returns following result:
 ===========================================
 
 Found     36 irreducible k-points:
 
 Following reciprocal coordinates:
            Coordinates               Weight
  0.000000  0.000000  0.000000      1.000000
  0.250000  0.000000  0.000000      2.000000
  0.500000  0.000000  0.000000      1.000000
  0.000000  0.250000  0.000000      2.000000
  0.250000  0.250000  0.000000      2.000000
  0.500000  0.250000  0.000000      2.000000
 -0.250000  0.250000  0.000000      2.000000
  0.000000  0.500000  0.000000      1.000000
  0.250000  0.500000  0.000000      2.000000
  0.500000  0.500000  0.000000      1.000000
  0.000000  0.000000  0.250000      2.000000
  0.250000  0.000000  0.250000      2.000000
  0.500000  0.000000  0.250000      2.000000
 -0.250000  0.000000  0.250000      2.000000
  0.000000  0.250000  0.250000      2.000000
  0.250000  0.250000  0.250000      2.000000
  0.500000  0.250000  0.250000      2.000000
 -0.250000  0.250000  0.250000      2.000000
  0.000000  0.500000  0.250000      2.000000
  0.250000  0.500000  0.250000      2.000000
  0.500000  0.500000  0.250000      2.000000
 -0.250000  0.500000  0.250000      2.000000
  0.000000 -0.250000  0.250000      2.000000
  0.250000 -0.250000  0.250000      2.000000
  0.500000 -0.250000  0.250000      2.000000
 -0.250000 -0.250000  0.250000      2.000000
  0.000000  0.000000  0.500000      1.000000
  0.250000  0.000000  0.500000      2.000000
  0.500000  0.000000  0.500000      1.000000
  0.000000  0.250000  0.500000      2.000000
  0.250000  0.250000  0.500000      2.000000
  0.500000  0.250000  0.500000      2.000000
 -0.250000  0.250000  0.500000      2.000000
  0.000000  0.500000  0.500000      1.000000
  0.250000  0.500000  0.500000      2.000000
  0.500000  0.500000  0.500000      1.000000
 
 Following cartesian coordinates:
            Coordinates               Weight
  0.000000  0.000000  0.000000      1.000000
  0.031194  0.000000  0.000000      2.000000
  0.062388  0.000000  0.000000      1.000000
  0.000000  0.031194  0.000000      2.000000
  0.031194  0.031194  0.000000      2.000000
  0.062388  0.031194  0.000000      2.000000
 -0.031194  0.031194  0.000000      2.000000
  0.000000  0.062388  0.000000      1.000000
  0.031194  0.062388  0.000000      2.000000
  0.062388  0.062388  0.000000      1.000000
  0.000000  0.000000  0.031194      2.000000
  0.031194  0.000000  0.031194      2.000000
  0.062388  0.000000  0.031194      2.000000
 -0.031194  0.000000  0.031194      2.000000
  0.000000  0.031194  0.031194      2.000000
  0.031194  0.031194  0.031194      2.000000
  0.062388  0.031194  0.031194      2.000000
 -0.031194  0.031194  0.031194      2.000000
  0.000000  0.062388  0.031194      2.000000
  0.031194  0.062388  0.031194      2.000000
  0.062388  0.062388  0.031194      2.000000
 -0.031194  0.062388  0.031194      2.000000
  0.000000 -0.031194  0.031194      2.000000
  0.031194 -0.031194  0.031194      2.000000
  0.062388 -0.031194  0.031194      2.000000
 -0.031194 -0.031194  0.031194      2.000000
  0.000000  0.000000  0.062388      1.000000
  0.031194  0.000000  0.062388      2.000000
  0.062388  0.000000  0.062388      1.000000
  0.000000  0.031194  0.062388      2.000000
  0.031194  0.031194  0.062388      2.000000
  0.062388  0.031194  0.062388      2.000000
 -0.031194  0.031194  0.062388      2.000000
  0.000000  0.062388  0.062388      1.000000
  0.031194  0.062388  0.062388      2.000000
  0.062388  0.062388  0.062388      1.000000
 


--------------------------------------------------------------------------------------------------------




 Dimension of arrays:
   k-points           NKPTS =     36   k-points in BZ     NKDIM =     36   number of bands    NBANDS=    352
   number of dos      NEDOS =    301   number of ions     NIONS =     64
   non local maximal  LDIM  =      6   non local SUM 2l+1 LMDIM =     18
   total plane-waves  NPLWV = 216000
   max r-space proj   IRMAX =   5683   max aug-charges    IRDMAX=  13799
   dimension x,y,z NGX =    60 NGY =   60 NGZ =   60
   dimension x,y,z NGXF=   120 NGYF=  120 NGZF=  120
   support grid    NGXF=   120 NGYF=  120 NGZF=  120
   ions per type =              32  32
   NGX,Y,Z   is equivalent  to a cutoff of  12.45, 12.45, 12.45 a.u.
   NGXF,Y,Z  is equivalent  to a cutoff of  24.89, 24.89, 24.89 a.u.

 SYSTEM =  unknown system                          
 POSCAR =  NiO_Fm-3m_scale_0_975_disp_0_20_round_1 

 Startparameter for this run:
   NWRITE =      1    write-flag & timer
   PREC   = accura    normal or accurate (medium, high low for compatibility)
   ISTART =      0    job   : 0-new  1-cont  2-samecut
   ICHARG =      2    charge: 1-file 2-atom 10-const
   ISPIN  =      2    spin polarized calculation?
   LNONCOLLINEAR =      F non collinear calculations
   LSORBIT =      F    spin-orbit coupling
   INIWAV =      1    electr: 0-lowe 1-rand  2-diag
   LASPH  =      F    aspherical Exc in radial PAW
   METAGGA=      F    non-selfconsistent MetaGGA calc.

 Electronic Relaxation 1
   ENCUT  =  500.0 eV  36.75 Ry    6.06 a.u.  14.61 14.61 14.61*2*pi/ulx,y,z
   ENINI  =  500.0     initial cutoff
   ENAUG  =  605.4 eV  augmentation charge cutoff
   NELM   =     80;   NELMIN=  2; NELMDL= -5     # of ELM steps 
   EDIFF  = 0.1E-04   stopping-criterion for ELM
   LREAL  =      T    real-space projection
   NLSPLINE    = F    spline interpolate recip. space projectors
   LCOMPAT=      F    compatible to vasp.4.4
   GGA_COMPAT  = T    GGA compatible to vasp.4.4-vasp.4.6
   LMAXPAW     = -100 max onsite density
   LMAXMIX     =    2 max onsite mixed and CHGCAR
   VOSKOWN=      1    Vosko Wilk Nusair interpolation
   ROPT   =   -0.00025  -0.00025
 Ionic relaxation
   EDIFFG = 0.1E-03   stopping-criterion for IOM
   NSW    =      0    number of steps for IOM
   NBLOCK =      1;   KBLOCK =      1    inner block; outer block 
   IBRION =     -1    ionic relax: 0-MD 1-quasi-New 2-CG
   NFREE  =      0    steps in history (QN), initial steepest desc. (CG)
   ISIF   =      2    stress and relaxation
   IWAVPR =     10    prediction:  0-non 1-charg 2-wave 3-comb
   ISYM   =      2    0-nonsym 1-usesym 2-fastsym
   LCORR  =      T    Harris-Foulkes like correction to forces

   POTIM  = 0.5000    time-step for ionic-motion
   TEIN   =    0.0    initial temperature
   TEBEG  =    0.0;   TEEND  =   0.0 temperature during run
   SMASS  =  -3.00    Nose mass-parameter (am)
   estimated Nose-frequenzy (Omega)   =  0.10E-29 period in steps =****** mass=  -0.147E-26a.u.
   SCALEE = 1.0000    scale energy and forces
   NPACO  =    256;   APACO  = 16.0  distance and # of slots for P.C.
   PSTRESS=    0.0 pullay stress

  Mass of Ions in am
   POMASS =  58.69 16.00
  Ionic Valenz
   ZVAL   =  10.00  6.00
  Atomic Wigner-Seitz radii
   RWIGS  =   1.15  0.73
  virtual crystal weights 
   VCA    =   1.00  1.00
   NELECT =     512.0000    total number of electrons
   NUPDOWN=      -1.0000    fix difference up-down

 DOS related values:
   EMIN   =  10.00;   EMAX   =-10.00  energy-range for DOS
   EFERMI =   0.00
   ISMEAR =     0;   SIGMA  =   0.05  broadening in eV -4-tet -1-fermi 0-gaus

 Electronic relaxation 2 (details)
   IALGO  =     38    algorithm
   LDIAG  =      T    sub-space diagonalisation (order eigenvalues)
   LSUBROT=      F    optimize rotation matrix (better conditioning)
   TURBO    =      0    0=normal 1=particle mesh
   IRESTART =      0    0=no restart 2=restart with 2 vectors
   NREBOOT  =      0    no. of reboots
   NMIN     =      0    reboot dimension
   EREF     =   0.00    reference energy to select bands
   IMIX   =      4    mixing-type and parameters
     AMIX     =   0.40;   BMIX     =  1.00
     AMIX_MAG =   1.60;   BMIX_MAG =  1.00
     AMIN     =   0.10
     WC   =   100.;   INIMIX=   1;  MIXPRE=   1;  MAXMIX= -45

 Intra band minimization:
   WEIMIN = 0.0000     energy-eigenvalue tresh-hold
   EBREAK =  0.71E-08  absolut break condition
   DEPER  =   0.30     relativ break condition  

   TIME   =   0.40     timestep for ELM

  volume/ion in A,a.u.               =       8.04        54.28
  Fermi-wavevector in a.u.,A,eV,Ry     =   1.634159  3.088112 36.334008  2.670474
  Thomas-Fermi vector in A             =   2.725844
 
 Write flags
   LWAVE        =      F    write WAVECAR
   LDOWNSAMPLE  =      F    k-point downsampling of WAVECAR
   LCHARG       =      T    write CHGCAR
   LVTOT        =      F    write LOCPOT, total local potential
   LVHAR        =      F    write LOCPOT, Hartree potential only
   LELF         =      F    write electronic localiz. function (ELF)
   LORBIT       =      0    0 simple, 1 ext, 2 COOP (PROOUT), +10 PAW based schemes


 Dipole corrections
   LMONO  =      F    monopole corrections only (constant potential shift)
   LDIPOL =      F    correct potential (dipole corrections)
   IDIPOL =      0    1-x, 2-y, 3-z, 4-all directions 
   EPSILON=  1.0000000 bulk dielectric constant

 Exchange correlation treatment:
   GGA     =    PS    GGA type
   LEXCH   =    14    internal setting for exchange type
   VOSKOWN=      1    Vosko Wilk Nusair interpolation
   LHFCALC =     F    Hartree Fock is set to
   LHFONE  =     F    Hartree Fock one center treatment
   AEXX    =    0.0000 exact exchange contribution

 Linear response parameters
   LEPSILON=     F    determine dielectric tensor
   LRPA    =     F    only Hartree local field effects (RPA)
   LNABLA  =     F    use nabla operator in PAW spheres
   LVEL    =     F    velocity operator in full k-point grid
   LINTERFAST=   F  fast interpolation
   KINTER  =     0    interpolate to denser k-point grid
   CSHIFT  =0.1000    complex shift for real part using Kramers Kronig
   OMEGAMAX=  -1.0    maximum frequency
   DEG_THRESHOLD= 0.2000000E-02 threshold for treating states as degnerate
   RTIME   =   -0.100 relaxation time in fs
  (WPLASMAI=    0.000 imaginary part of plasma frequency in eV, 0.658/RTIME)
   DFIELD  = 0.0000000 0.0000000 0.0000000 field for delta impulse in time
 
 Orbital magnetization related:
   ORBITALMAG=     F  switch on orbital magnetization
   LCHIMAG   =     F  perturbation theory with respect to B field
   DQ        =  0.001000  dq finite difference perturbation B field
   LLRAUG    =     F  two centre corrections for induced B field



--------------------------------------------------------------------------------------------------------


 Static calculation
 charge density and potential will be updated during run
 spin polarized calculation
 Variant of blocked Davidson
 Davidson routine will perform the subspace rotation
 perform sub-space diagonalisation
    after iterative eigenvector-optimisation
 modified Broyden-mixing scheme, WC =      100.0
 initial mixing is a Kerker type mixing with AMIX =  0.4000 and BMIX =      1.0000
 Hartree-type preconditioning will be used
 using additional bands           96
 real space projection scheme for non local part
 use partial core corrections
 calculate Harris-corrections to forces 
   (improved forces if not selfconsistent)
 use gradient corrections 
 use of overlap-Matrix (Vanderbilt PP)
 Gauss-broadening in eV      SIGMA  =   0.05


--------------------------------------------------------------------------------------------------------


  energy-cutoff  :      500.00
  volume of cell :      514.77
      direct lattice vectors                 reciprocal lattice vectors
     8.014392750  0.000000000  0.000000000     0.124775517  0.000000000  0.000000000
     0.000000000  8.014392750  0.000000000     0.000000000  0.124775517  0.000000000
     0.000000000  0.000000000  8.014392750     0.000000000  0.000000000  0.124775517

  length of vectors
     8.014392750  8.014392750  8.014392750     0.124775517  0.124775517  0.124775517


 
 k-points in units of 2pi/SCALE and weight: Automatic mesh                          
   0.00000000  0.00000000  0.00000000       0.016
   0.03119388  0.00000000  0.00000000       0.031
   0.06238776  0.00000000  0.00000000       0.016
   0.00000000  0.03119388  0.00000000       0.031
   0.03119388  0.03119388  0.00000000       0.031
   0.06238776  0.03119388  0.00000000       0.031
  -0.03119388  0.03119388  0.00000000       0.031
   0.00000000  0.06238776  0.00000000       0.016
   0.03119388  0.06238776  0.00000000       0.031
   0.06238776  0.06238776  0.00000000       0.016
   0.00000000  0.00000000  0.03119388       0.031
   0.03119388  0.00000000  0.03119388       0.031
   0.06238776  0.00000000  0.03119388       0.031
  -0.03119388  0.00000000  0.03119388       0.031
   0.00000000  0.03119388  0.03119388       0.031
   0.03119388  0.03119388  0.03119388       0.031
   0.06238776  0.03119388  0.03119388       0.031
  -0.03119388  0.03119388  0.03119388       0.031
   0.00000000  0.06238776  0.03119388       0.031
   0.03119388  0.06238776  0.03119388       0.031
   0.06238776  0.06238776  0.03119388       0.031
  -0.03119388  0.06238776  0.03119388       0.031
   0.00000000 -0.03119388  0.03119388       0.031
   0.03119388 -0.03119388  0.03119388       0.031
   0.06238776 -0.03119388  0.03119388       0.031
  -0.03119388 -0.03119388  0.03119388       0.031
   0.00000000  0.00000000  0.06238776       0.016
   0.03119388  0.00000000  0.06238776       0.031
   0.06238776  0.00000000  0.06238776       0.016
   0.00000000  0.03119388  0.06238776       0.031
   0.03119388  0.03119388  0.06238776       0.031
   0.06238776  0.03119388  0.06238776       0.031
  -0.03119388  0.03119388  0.06238776       0.031
   0.00000000  0.06238776  0.06238776       0.016
   0.03119388  0.06238776  0.06238776       0.031
   0.06238776  0.06238776  0.06238776       0.016
 
 k-points in reciprocal lattice and weights: Automatic mesh                          
   0.00000000  0.00000000  0.00000000       0.016
   0.25000000  0.00000000  0.00000000       0.031
   0.50000000  0.00000000  0.00000000       0.016
   0.00000000  0.25000000  0.00000000       0.031
   0.25000000  0.25000000  0.00000000       0.031
   0.50000000  0.25000000  0.00000000       0.031
  -0.25000000  0.25000000  0.00000000       0.031
   0.00000000  0.50000000  0.00000000       0.016
   0.25000000  0.50000000  0.00000000       0.031
   0.50000000  0.50000000  0.00000000       0.016
   0.00000000  0.00000000  0.25000000       0.031
   0.25000000  0.00000000  0.25000000       0.031
   0.50000000  0.00000000  0.25000000       0.031
  -0.25000000  0.00000000  0.25000000       0.031
   0.00000000  0.25000000  0.25000000       0.031
   0.25000000  0.25000000  0.25000000       0.031
   0.50000000  0.25000000  0.25000000       0.031
  -0.25000000  0.25000000  0.25000000       0.031
   0.00000000  0.50000000  0.25000000       0.031
   0.25000000  0.50000000  0.25000000       0.031
   0.50000000  0.50000000  0.25000000       0.031
  -0.25000000  0.50000000  0.25000000       0.031
   0.00000000 -0.25000000  0.25000000       0.031
   0.25000000 -0.25000000  0.25000000       0.031
   0.50000000 -0.25000000  0.25000000       0.031
  -0.25000000 -0.25000000  0.25000000       0.031
   0.00000000  0.00000000  0.50000000       0.016
   0.25000000  0.00000000  0.50000000       0.031
   0.50000000  0.00000000  0.50000000       0.016
   0.00000000  0.25000000  0.50000000       0.031
   0.25000000  0.25000000  0.50000000       0.031
   0.50000000  0.25000000  0.50000000       0.031
  -0.25000000  0.25000000  0.50000000       0.031
   0.00000000  0.50000000  0.50000000       0.016
   0.25000000  0.50000000  0.50000000       0.031
   0.50000000  0.50000000  0.50000000       0.016
 
 position of ions in fractional coordinates (direct lattice) 
   0.04365782  0.99286102  0.98790763
   0.93378616  0.25620351  0.24843382
   0.24301862  0.00787091  0.26691762
   0.22981802  0.23429405  0.98812802
   0.01572371  0.00183403  0.53109442
   0.98396446  0.25196592  0.75490767
   0.25131005  0.98785946  0.76459473
   0.24691393  0.25863070  0.51440945
   0.95797284  0.48322987  0.01497561
   0.01735795  0.79637471  0.26973183
   0.26627281  0.51588668  0.28658351
   0.23537145  0.76568980  0.00961655
   0.01481550  0.52206654  0.54639456
   0.02535294  0.78408600  0.75219138
   0.23860329  0.46519895  0.78638272
   0.21091686  0.79116915  0.55889674
   0.53424864  0.96845491  0.02782170
   0.52367042  0.27822782  0.25819834
   0.72832807  0.98384650  0.27681778
   0.77014899  0.25519488  0.04470784
   0.47458574  0.00546189  0.51745376
   0.55855764  0.22823858  0.76965493
   0.75863910  0.99668322  0.81063639
   0.77867979  0.24481696  0.51665964
   0.48044320  0.49497855  0.01283889
   0.51925185  0.75683481  0.26901313
   0.79265820  0.49597531  0.24316263
   0.74752327  0.74040103  0.01988103
   0.51459282  0.53581852  0.50341669
   0.53577877  0.75978720  0.75702834
   0.75314985  0.53026764  0.77610357
   0.77388054  0.74078680  0.51635927
   0.27362135  0.27041487  0.22383016
   0.22847364  0.01838785  0.03929516
   0.99922452  0.23935478  0.02734155
   0.99227448  0.01811122  0.29506750
   0.26380563  0.29141655  0.73062865
   0.28874255  0.99407939  0.48206719
   0.99569725  0.25870209  0.53946154
   0.97350680  0.00542395  0.77217097
   0.21704372  0.80194550  0.23662423
   0.25461974  0.56664055  0.97930131
   0.98678947  0.80820325  0.97304365
   0.98921796  0.52569944  0.26777463
   0.22991656  0.75214938  0.75734679
   0.27713074  0.49127546  0.50956284
   0.98694629  0.76296013  0.54504441
   0.97593817  0.51461129  0.77600873
   0.82417832  0.25548525  0.30464611
   0.71948099  0.94886556  0.02163745
   0.50628325  0.27085854  0.01289062
   0.51058944  0.01702262  0.26017154
   0.78835039  0.23160419  0.76263408
   0.80771676  0.02136536  0.51170246
   0.50090472  0.25256554  0.47411316
   0.53635407  0.00851352  0.77268139
   0.78195857  0.77768341  0.22715988
   0.74312854  0.51113184  0.98968831
   0.51581719  0.75178786  0.01632126
   0.55772672  0.55141623  0.29658483
   0.73327747  0.80607730  0.76594784
   0.77408277  0.51019650  0.47329256
   0.47858776  0.76852408  0.55006529
   0.48498965  0.49521683  0.76805208
 
 position of ions in cartesian coordinates  (Angst):
   0.34989092  7.95717816  7.91747975
   7.48372903  2.05331555  1.99104621
   1.94764667  0.06308056  2.13918264
   1.84185187  1.87772454  7.91924604
   0.12601599  0.01469864  4.25639927
   7.88587763  2.01935384  6.05012656
   2.01409744  7.91709369  6.12776246
   1.97886521  2.07276801  4.12267937
   7.67757058  3.87279397  0.12002042
   0.13911343  6.38245970  2.16173682
   2.13401488  4.13451847  2.29679280
   1.88635924  6.13653878  0.07707081
   0.11873724  4.18404629  4.37902060
   0.20318842  6.28397315  6.02835714
   1.91226048  3.72828709  6.30237997
   1.69037055  6.34074030  4.47921798
   4.28167843  7.76157801  0.22297403
   4.19690042  2.22982702  2.06930290
   5.83710720  7.88493226  2.21852641
   6.17227648  2.04523200  0.35830619
   3.80351651  0.04377373  4.14707766
   4.47650030  1.82919362  6.16831689
   6.08003170  7.98781077  6.49675841
   6.24064566  1.96205927  4.14071327
   3.85046050  3.96695250  0.10289591
   4.16148826  6.06557141  2.15597688
   6.35267413  3.97494093  1.94880082
   5.99094508  5.93386465  0.15933438
   4.12414897  4.29426006  4.03457907
   4.29394149  6.08923303  6.06712244
   6.03603870  4.24977313  6.21999882
   6.20218259  5.93695636  4.13830599
   2.19290896  2.16721097  1.79386281
   1.83107748  0.14736745  0.31492685
   8.00817775  1.91828321  0.21912592
   7.95247740  0.14515043  2.36478683
   2.11424193  2.33552669  5.85554496
   2.31409620  7.96694266  3.86347579
   7.97990882  2.07334015  4.32345666
   7.80206584  0.04346967  6.18848142
   1.73947362  6.42710620  1.89639951
   2.04062260  4.54127992  7.84850532
   7.90851837  6.47725827  7.79835397
   7.92798125  4.21316178  2.14605105
   1.84264161  6.02802054  6.06967462
   2.22103459  3.93727448  4.08383673
   7.90977519  6.11466213  4.36819997
   7.82155179  4.12429699  6.21923874
   6.60528875  2.04755914  2.44155358
   5.76620323  7.60458126  0.17341102
   4.05755281  2.17076672  0.10331049
   4.09206431  0.13642596  2.08511690
   6.31814965  1.85616694  6.11204904
   6.47335935  0.17123039  4.10098449
   4.01444716  2.02415943  3.79972907
   4.29855217  0.06823069  6.19257213
   6.26692309  6.23266028  1.82054850
   5.95572398  4.09641131  7.93175082
   4.13396155  6.02512317  0.13080499
   4.46984098  4.41926624  2.37694731
   5.87677364  6.46022007  6.13860682
   6.20380334  4.08891513  3.79315246
   3.83559027  6.15925381  4.40843927
   3.88689753  3.96886217  6.15547102
 


--------------------------------------------------------------------------------------------------------


 k-point  1 :   0.0000 0.0000 0.0000  plane waves:   13133
 k-point  2 :   0.2500 0.0000 0.0000  plane waves:   13089
 k-point  3 :   0.5000 0.0000 0.0000  plane waves:   13062
 k-point  4 :   0.0000 0.2500 0.0000  plane waves:   13089
 k-point  5 :   0.2500 0.2500 0.0000  plane waves:   13065
 k-point  6 :   0.5000 0.2500 0.0000  plane waves:   13058
 k-point  7 :  -0.2500 0.2500 0.0000  plane waves:   13065
 k-point  8 :   0.0000 0.5000 0.0000  plane waves:   13062
 k-point  9 :   0.2500 0.5000 0.0000  plane waves:   13058
 k-point 10 :   0.5000 0.5000 0.0000  plane waves:   13176
 k-point 11 :   0.0000 0.0000 0.2500  plane waves:   13089
 k-point 12 :   0.2500 0.0000 0.2500  plane waves:   13065
 k-point 13 :   0.5000 0.0000 0.2500  plane waves:   13058
 k-point 14 :  -0.2500 0.0000 0.2500  plane waves:   13065
 k-point 15 :   0.0000 0.2500 0.2500  plane waves:   13065
 k-point 16 :   0.2500 0.2500 0.2500  plane waves:   13052
 k-point 17 :   0.5000 0.2500 0.2500  plane waves:   13072
 k-point 18 :  -0.2500 0.2500 0.2500  plane waves:   13052
 k-point 19 :   0.0000 0.5000 0.2500  plane waves:   13058
 k-point 20 :   0.2500 0.5000 0.2500  plane waves:   13072
 k-point 21 :   0.5000 0.5000 0.2500  plane waves:   13060
 k-point 22 :  -0.2500 0.5000 0.2500  plane waves:   13072
 k-point 23 :   0.0000-0.2500 0.2500  plane waves:   13065
 k-point 24 :   0.2500-0.2500 0.2500  plane waves:   13052
 k-point 25 :   0.5000-0.2500 0.2500  plane waves:   13072
 k-point 26 :  -0.2500-0.2500 0.2500  plane waves:   13052
 k-point 27 :   0.0000 0.0000 0.5000  plane waves:   13062
 k-point 28 :   0.2500 0.0000 0.5000  plane waves:   13058
 k-point 29 :   0.5000 0.0000 0.5000  plane waves:   13176
 k-point 30 :   0.0000 0.2500 0.5000  plane waves:   13058
 k-point 31 :   0.2500 0.2500 0.5000  plane waves:   13072
 k-point 32 :   0.5000 0.2500 0.5000  plane waves:   13060
 k-point 33 :  -0.2500 0.2500 0.5000  plane waves:   13072
 k-point 34 :   0.0000 0.5000 0.5000  plane waves:   13176
 k-point 35 :   0.2500 0.5000 0.5000  plane waves:   13060
 k-point 36 :   0.5000 0.5000 0.5000  plane waves:   13096

 maximum and minimum number of plane-waves per node :     13176    13052

 maximum number of plane-waves:     13176
 maximum index in each direction: 
   IXMAX=   14   IYMAX=   14   IZMAX=   14
   IXMIN=  -15   IYMIN=  -15   IZMIN=  -15

 The following grids will avoid any aliasing or wrap around errors in the Hartre
 e energy
  - symmetry arguments have not been applied
  - exchange correlation energies might require even more grid points
  - we recommend to set PREC=Normal or Accurate and rely on VASP defaults
 NGX is ok and might be reduce to    60
 NGY is ok and might be reduce to    60
 NGZ is ok and might be reduce to    60

 serial   3D FFT for wavefunctions
 parallel 3D FFT for charge:
    minimum data exchange during FFTs selected (reduces bandwidth)


 total amount of memory used by VASP MPI-rank0   457664. kBytes
=======================================================================

   base      :      30000. kBytes
   nonlr-proj:      38968. kBytes
   fftplans  :       4751. kBytes
   grid      :      26734. kBytes
   one-center:       1990. kBytes
   wavefun   :     355221. kBytes
 
     INWAV:  cpu time    0.0000: real time    0.0000
 Broyden mixing: mesh for mixing (old mesh)
   NGX = 29   NGY = 29   NGZ = 29
  (NGX  =120   NGY  =120   NGZ  =120)
  gives a total of  24389 points

 initial charge density was supplied:
 charge density of overlapping atoms calculated
 number of electron     512.0000000 magnetization      80.0000000
 keeping initial charge density in first step


--------------------------------------------------------------------------------------------------------


 Maximum index for non-local projection operator         5496
 Maximum index for augmentation-charges         1246 (set IRDMAX)


--------------------------------------------------------------------------------------------------------


 First call to EWALD:  gamma=   0.221
 Maximum number of real-space cells 3x 3x 3
 Maximum number of reciprocal cells 3x 3x 3

    FEWALD:  cpu time    0.0031: real time    0.0031


--------------------------------------- Iteration      1(   1)  ---------------------------------------


    POTLOK:  cpu time    0.1659: real time    0.2203
    SETDIJ:  cpu time    0.0261: real time    0.0261
     EDDAV:  cpu time  202.8414: real time  203.3218
    --------------------------------------------
      LOOP:  cpu time  203.0380: real time  203.5728

 eigenvalue-minimisations  : 50688
 total energy-change (2. order) : 0.6649862E+04  (-0.2044438E+05)
 number of electron     512.0000000 magnetization      80.0000000
 augmentation part      512.0000000 magnetization      80.0000000

 Free energy of the ion-electron system (eV)
  ---------------------------------------------------
  alpha Z        PSCENC =      2360.30907921
  Ewald energy   TEWEN  =    -41334.06863343
  -Hartree energ DENC   =    -11378.40923973
  -exchange      EXHF   =         0.00000000
  -V(xc)+E(xc)   XCENC  =      1985.64735953
  PAW double counting   =     41846.49563633   -44035.77946198
  entropy T*S    EENTRO =        -0.01012761
  eigenvalues    EBANDS =      8958.59542091
  atomic energy  EATOM  =     48247.08154143
  Solvation  Ediel_sol  =         0.00000000
  ---------------------------------------------------
  free energy    TOTEN  =      6649.86157466 eV

  energy without entropy =     6649.87170227  energy(sigma->0) =     6649.86663846


--------------------------------------------------------------------------------------------------------




--------------------------------------- Iteration      1(   2)  ---------------------------------------


     EDDAV:  cpu time  193.8687: real time  194.3281
    --------------------------------------------
      LOOP:  cpu time  193.8688: real time  194.3282

 eigenvalue-minimisations  : 50688
 total energy-change (2. order) :-0.5543877E+04  (-0.4985856E+04)
 number of electron     512.0000000 magnetization      80.0000000
 augmentation part      512.0000000 magnetization      80.0000000

 Free energy of the ion-electron system (eV)
  ---------------------------------------------------
  alpha Z        PSCENC =      2360.30907921
  Ewald energy   TEWEN  =    -41334.06863343
  -Hartree energ DENC   =    -11378.40923973
  -exchange      EXHF   =         0.00000000
  -V(xc)+E(xc)   XCENC  =      1985.64735953
  PAW double counting   =     41846.49563633   -44035.77946198
  entropy T*S    EENTRO =        -0.02682695
  eigenvalues    EBANDS =      3414.73517345
  atomic energy  EATOM  =     48247.08154143
  Solvation  Ediel_sol  =         0.00000000
  ---------------------------------------------------
  free energy    TOTEN  =      1105.98462786 eV

  energy without entropy =     1106.01145481  energy(sigma->0) =     1105.99804134


--------------------------------------------------------------------------------------------------------




--------------------------------------- Iteration      1(   3)  ---------------------------------------


     EDDAV:  cpu time  195.8758: real time  196.3397
    --------------------------------------------
      LOOP:  cpu time  195.8762: real time  196.3402

 eigenvalue-minimisations  : 51360
 total energy-change (2. order) :-0.1344954E+04  (-0.1197069E+04)
 number of electron     512.0000000 magnetization      80.0000000
 augmentation part      512.0000000 magnetization      80.0000000

 Free energy of the ion-electron system (eV)
  ---------------------------------------------------
  alpha Z        PSCENC =      2360.30907921
  Ewald energy   TEWEN  =    -41334.06863343
  -Hartree energ DENC   =    -11378.40923973
  -exchange      EXHF   =         0.00000000
  -V(xc)+E(xc)   XCENC  =      1985.64735953
  PAW double counting   =     41846.49563633   -44035.77946198
  entropy T*S    EENTRO =        -0.09143598
  eigenvalues    EBANDS =      2069.84539696
  atomic energy  EATOM  =     48247.08154143
  Solvation  Ediel_sol  =         0.00000000
  ---------------------------------------------------
  free energy    TOTEN  =      -238.96975766 eV

  energy without entropy =     -238.87832168  energy(sigma->0) =     -238.92403967


--------------------------------------------------------------------------------------------------------




--------------------------------------- Iteration      1(   4)  ---------------------------------------


     EDDAV:  cpu time  213.5877: real time  214.0936
    --------------------------------------------
      LOOP:  cpu time  213.5874: real time  214.0933

 eigenvalue-minimisations  : 57408
 total energy-change (2. order) :-0.1590877E+03  (-0.1507531E+03)
 number of electron     512.0000000 magnetization      80.0000000
 augmentation part      512.0000000 magnetization      80.0000000

 Free energy of the ion-electron system (eV)
  ---------------------------------------------------
  alpha Z        PSCENC =      2360.30907921
  Ewald energy   TEWEN  =    -41334.06863343
  -Hartree energ DENC   =    -11378.40923973
  -exchange      EXHF   =         0.00000000
  -V(xc)+E(xc)   XCENC  =      1985.64735953
  PAW double counting   =     41846.49563633   -44035.77946198
  entropy T*S    EENTRO =        -0.09720679
  eigenvalues    EBANDS =      1910.76348832
  atomic energy  EATOM  =     48247.08154143
  Solvation  Ediel_sol  =         0.00000000
  ---------------------------------------------------
  free energy    TOTEN  =      -398.05743710 eV

  energy without entropy =     -397.96023032  energy(sigma->0) =     -398.00883371


--------------------------------------------------------------------------------------------------------




--------------------------------------- Iteration      1(   5)  ---------------------------------------


     EDDAV:  cpu time  213.0602: real time  213.5649
    CHARGE:  cpu time    4.5735: real time    4.5844
    MIXING:  cpu time    0.0035: real time    0.0036
    --------------------------------------------
      LOOP:  cpu time  217.6324: real time  218.1480

 eigenvalue-minimisations  : 57168
 total energy-change (2. order) :-0.4292261E+01  (-0.4255674E+01)
 number of electron     511.9999968 magnetization      69.7716645
 augmentation part      204.6812523 magnetization      55.0787991

 Broyden mixing:
  rms(total) = 0.17066E+02    rms(broyden)= 0.17064E+02
  rms(prec ) = 0.18815E+02
  weight for this iteration     100.00

 Free energy of the ion-electron system (eV)
  ---------------------------------------------------
  alpha Z        PSCENC =      2360.30907921
  Ewald energy   TEWEN  =    -41334.06863343
  -Hartree energ DENC   =    -11378.40923973
  -exchange      EXHF   =         0.00000000
  -V(xc)+E(xc)   XCENC  =      1985.64735953
  PAW double counting   =     41846.49563633   -44035.77946198
  entropy T*S    EENTRO =        -0.09669072
  eigenvalues    EBANDS =      1906.47071108
  atomic energy  EATOM  =     48247.08154143
  Solvation  Ediel_sol  =         0.00000000
  ---------------------------------------------------
  free energy    TOTEN  =      -402.34969828 eV

  energy without entropy =     -402.25300756  energy(sigma->0) =     -402.30135292


--------------------------------------------------------------------------------------------------------




--------------------------------------- Iteration      1(   6)  ---------------------------------------


    POTLOK:  cpu time    0.1408: real time    0.1411
    SETDIJ:  cpu time    0.0263: real time    0.0264
     EDDAV:  cpu time  266.9839: real time  267.6161
    CHARGE:  cpu time    4.5344: real time    4.5451
    MIXING:  cpu time    0.0038: real time    0.0039
    --------------------------------------------
      LOOP:  cpu time  271.6892: real time  272.3326

 eigenvalue-minimisations  : 74368
 total energy-change (2. order) :-0.3199890E+02  (-0.4822619E+02)
 number of electron     511.9999980 magnetization      56.9430685
 augmentation part      230.1458008 magnetization      50.2582014

 Broyden mixing:
  rms(total) = 0.16725E+02    rms(broyden)= 0.16724E+02
  rms(prec ) = 0.21255E+02
  weight for this iteration     100.00

 eigenvalues of (default mixing * dielectric matrix)
  average eigenvalue GAMMA=   0.4268
  0.4268

 Free energy of the ion-electron system (eV)
  ---------------------------------------------------
  alpha Z        PSCENC =      2360.30907921
  Ewald energy   TEWEN  =    -41334.06863343
  -Hartree energ DENC   =    -11014.92707445
  -exchange      EXHF   =         0.00000000
  -V(xc)+E(xc)   XCENC  =      1979.20724475
  PAW double counting   =     48849.81471760   -50901.15883972
  entropy T*S    EENTRO =        -0.04414492
  eigenvalues    EBANDS =      1379.43751251
  atomic energy  EATOM  =     48247.08154143
  Solvation  Ediel_sol  =         0.00000000
  ---------------------------------------------------
  free energy    TOTEN  =      -434.34859702 eV

  energy without entropy =     -434.30445210  energy(sigma->0) =     -434.32652456


--------------------------------------------------------------------------------------------------------




--------------------------------------- Iteration      1(   7)  ---------------------------------------


    POTLOK:  cpu time    0.1427: real time    0.1430
    SETDIJ:  cpu time    0.0266: real time    0.0267
     EDDAV:  cpu time  212.1501: real time  212.6526
    CHARGE:  cpu time    4.6178: real time    4.6287
    MIXING:  cpu time    0.0042: real time    0.0042
    --------------------------------------------
      LOOP:  cpu time  216.9413: real time  217.4551

 eigenvalue-minimisations  : 55760
 total energy-change (2. order) : 0.4411907E+02  (-0.4588188E+02)
 number of electron     511.9999967 magnetization      46.9951637
 augmentation part      221.2499680 magnetization      38.8240305

 Broyden mixing:
  rms(total) = 0.17678E+02    rms(broyden)= 0.17677E+02
  rms(prec ) = 0.21375E+02
  weight for this iteration     100.00

 eigenvalues of (default mixing * dielectric matrix)
  average eigenvalue GAMMA=   0.4190
  0.6118  0.2262

 Free energy of the ion-electron system (eV)
  ---------------------------------------------------
  alpha Z        PSCENC =      2360.30907921
  Ewald energy   TEWEN  =    -41334.06863343
  -Hartree energ DENC   =    -11079.70631991
  -exchange      EXHF   =         0.00000000
  -V(xc)+E(xc)   XCENC  =      1970.53185224
  PAW double counting   =     51353.37265101   -53533.97072335
  entropy T*S    EENTRO =        -0.06278819
  eigenvalues    EBANDS =      1626.28381037
  atomic energy  EATOM  =     48247.08154143
  Solvation  Ediel_sol  =         0.00000000
  ---------------------------------------------------
  free energy    TOTEN  =      -390.22953062 eV

  energy without entropy =     -390.16674243  energy(sigma->0) =     -390.19813652


--------------------------------------------------------------------------------------------------------




--------------------------------------- Iteration      1(   8)  ---------------------------------------


    POTLOK:  cpu time    0.1384: real time    0.1387
    SETDIJ:  cpu time    0.0271: real time    0.0271
     EDDAV:  cpu time  238.9300: real time  239.4960
    CHARGE:  cpu time    4.5735: real time    4.5844
    MIXING:  cpu time    0.0045: real time    0.0046
    --------------------------------------------
      LOOP:  cpu time  243.6735: real time  244.2507

 eigenvalue-minimisations  : 64864
 total energy-change (2. order) : 0.8313958E+01  (-0.1763348E+02)
 number of electron     511.9999996 magnetization      38.2479869
 augmentation part      216.4654736 magnetization      32.4480639

 Broyden mixing:
  rms(total) = 0.13613E+02    rms(broyden)= 0.13611E+02
  rms(prec ) = 0.18268E+02
  weight for this iteration     100.00

 eigenvalues of (default mixing * dielectric matrix)
  average eigenvalue GAMMA=   0.4733
  0.8130  0.3827  0.2243

 Free energy of the ion-electron system (eV)
  ---------------------------------------------------
  alpha Z        PSCENC =      2360.30907921
  Ewald energy   TEWEN  =    -41334.06863343
  -Hartree energ DENC   =    -11163.93845911
  -exchange      EXHF   =         0.00000000
  -V(xc)+E(xc)   XCENC  =      1968.39227229
  PAW double counting   =     53932.90286487   -56203.11397926
  entropy T*S    EENTRO =        -0.05799202
  eigenvalues    EBANDS =      1810.57773342
  atomic energy  EATOM  =     48247.08154143
  Solvation  Ediel_sol  =         0.00000000
  ---------------------------------------------------
  free energy    TOTEN  =      -381.91557260 eV

  energy without entropy =     -381.85758058  energy(sigma->0) =     -381.88657659


--------------------------------------------------------------------------------------------------------




--------------------------------------- Iteration      1(   9)  ---------------------------------------


    POTLOK:  cpu time    0.1411: real time    0.1414
    SETDIJ:  cpu time    0.0260: real time    0.0260
     EDDAV:  cpu time  233.5786: real time  234.1317
    CHARGE:  cpu time    4.5230: real time    4.5337
    MIXING:  cpu time    0.0043: real time    0.0043
    --------------------------------------------
      LOOP:  cpu time  238.2729: real time  238.8371

 eigenvalue-minimisations  : 63008
 total energy-change (2. order) : 0.5632977E+01  (-0.2227653E+02)
 number of electron     511.9999967 magnetization      25.1859050
 augmentation part      215.4216931 magnetization      18.9821303

 Broyden mixing:
  rms(total) = 0.10822E+02    rms(broyden)= 0.10820E+02
  rms(prec ) = 0.16015E+02
  weight for this iteration     100.00

 eigenvalues of (default mixing * dielectric matrix)
  average eigenvalue GAMMA=   0.6043
  1.4259  0.5676  0.2855  0.1381

 Free energy of the ion-electron system (eV)
  ---------------------------------------------------
  alpha Z        PSCENC =      2360.30907921
  Ewald energy   TEWEN  =    -41334.06863343
  -Hartree energ DENC   =    -11177.14477950
  -exchange      EXHF   =         0.00000000
  -V(xc)+E(xc)   XCENC  =      1966.44863839
  PAW double counting   =     56050.15485932   -58366.77116529
  entropy T*S    EENTRO =        -0.07432275
  eigenvalues    EBANDS =      1877.78218656
  atomic energy  EATOM  =     48247.08154143
  Solvation  Ediel_sol  =         0.00000000
  ---------------------------------------------------
  free energy    TOTEN  =      -376.28259606 eV

  energy without entropy =     -376.20827332  energy(sigma->0) =     -376.24543469


--------------------------------------------------------------------------------------------------------




--------------------------------------- Iteration      1(  10)  ---------------------------------------


    POTLOK:  cpu time    0.1422: real time    0.1425
    SETDIJ:  cpu time    0.0266: real time    0.0266
     EDDAV:  cpu time  234.7899: real time  235.3457
    CHARGE:  cpu time    4.4495: real time    4.4600
    MIXING:  cpu time    0.0044: real time    0.0044
    --------------------------------------------
      LOOP:  cpu time  239.4126: real time  239.9794

 eigenvalue-minimisations  : 63312
 total energy-change (2. order) :-0.1327889E+03  (-0.3645141E+02)
 number of electron     511.9999966 magnetization      13.0019517
 augmentation part      214.6998029 magnetization      10.7748516

 Broyden mixing:
  rms(total) = 0.16591E+02    rms(broyden)= 0.16590E+02
  rms(prec ) = 0.27772E+02
  weight for this iteration     100.00

 eigenvalues of (default mixing * dielectric matrix)
  average eigenvalue GAMMA=   0.6025
  1.8484  0.5895  0.2638  0.1554  0.1554

 Free energy of the ion-electron system (eV)
  ---------------------------------------------------
  alpha Z        PSCENC =      2360.30907921
  Ewald energy   TEWEN  =    -41334.06863343
  -Hartree energ DENC   =    -11145.51254444
  -exchange      EXHF   =         0.00000000
  -V(xc)+E(xc)   XCENC  =      1963.62975566
  PAW double counting   =     59253.57512673   -61608.86266883
  entropy T*S    EENTRO =        -0.03680263
  eigenvalues    EBANDS =      1754.81363681
  atomic energy  EATOM  =     48247.08154143
  Solvation  Ediel_sol  =         0.00000000
  ---------------------------------------------------
  free energy    TOTEN  =      -509.07150950 eV

  energy without entropy =     -509.03470686  energy(sigma->0) =     -509.05310818


--------------------------------------------------------------------------------------------------------




--------------------------------------- Iteration      1(  11)  ---------------------------------------


    POTLOK:  cpu time    0.1415: real time    0.1418
    SETDIJ:  cpu time    0.0261: real time    0.0262
     EDDAV:  cpu time  227.5129: real time  228.0518
    CHARGE:  cpu time    4.5692: real time    4.5800
    MIXING:  cpu time    0.0048: real time    0.0048
    --------------------------------------------
      LOOP:  cpu time  232.2545: real time  232.8047

 eigenvalue-minimisations  : 60848
 total energy-change (2. order) : 0.8321853E+02  (-0.1946372E+02)
 number of electron     511.9999982 magnetization      10.5324693
 augmentation part      217.1259690 magnetization       8.0126122

 Broyden mixing:
  rms(total) = 0.11321E+02    rms(broyden)= 0.11320E+02
  rms(prec ) = 0.18076E+02
  weight for this iteration     100.00

 eigenvalues of (default mixing * dielectric matrix)
  average eigenvalue GAMMA=   0.5515
  1.9160  0.5949  0.2659  0.2659  0.1332  0.1332

 Free energy of the ion-electron system (eV)
  ---------------------------------------------------
  alpha Z        PSCENC =      2360.30907921
  Ewald energy   TEWEN  =    -41334.06863343
  -Hartree energ DENC   =    -11118.04883642
  -exchange      EXHF   =         0.00000000
  -V(xc)+E(xc)   XCENC  =      1962.05076355
  PAW double counting   =     61925.83424799   -64306.24934813
  entropy T*S    EENTRO =        -0.05185095
  eigenvalues    EBANDS =      1837.29006129
  atomic energy  EATOM  =     48247.08154143
  Solvation  Ediel_sol  =         0.00000000
  ---------------------------------------------------
  free energy    TOTEN  =      -425.85297546 eV

  energy without entropy =     -425.80112451  energy(sigma->0) =     -425.82704999


--------------------------------------------------------------------------------------------------------




--------------------------------------- Iteration      1(  12)  ---------------------------------------


    POTLOK:  cpu time    0.1430: real time    0.1433
    SETDIJ:  cpu time    0.0270: real time    0.0271
     EDDAV:  cpu time  233.0808: real time  233.6326
    CHARGE:  cpu time    4.5952: real time    4.6061
    MIXING:  cpu time    0.0049: real time    0.0049
    --------------------------------------------
      LOOP:  cpu time  237.8509: real time  238.4140

 eigenvalue-minimisations  : 62656
 total energy-change (2. order) : 0.5600253E+02  (-0.8523134E+01)
 number of electron     511.9999974 magnetization       9.0841570
 augmentation part      218.6626137 magnetization       7.3120876

 Broyden mixing:
  rms(total) = 0.80517E+01    rms(broyden)= 0.80501E+01
  rms(prec ) = 0.12900E+02
  weight for this iteration     100.00

 eigenvalues of (default mixing * dielectric matrix)
  average eigenvalue GAMMA=   0.5093
  1.9175  0.5905  0.3258  0.3258  0.1396  0.1396  0.1266

 Free energy of the ion-electron system (eV)
  ---------------------------------------------------
  alpha Z        PSCENC =      2360.30907921
  Ewald energy   TEWEN  =    -41334.06863343
  -Hartree energ DENC   =    -11094.19051482
  -exchange      EXHF   =         0.00000000
  -V(xc)+E(xc)   XCENC  =      1960.96479964
  PAW double counting   =     62436.95842767   -64820.71149642
  entropy T*S    EENTRO =        -0.06765959
  eigenvalues    EBANDS =      1873.87401419
  atomic energy  EATOM  =     48247.08154143
  Solvation  Ediel_sol  =         0.00000000
  ---------------------------------------------------
  free energy    TOTEN  =      -369.85044212 eV

  energy without entropy =     -369.78278253  energy(sigma->0) =     -369.81661233


--------------------------------------------------------------------------------------------------------




--------------------------------------- Iteration      1(  13)  ---------------------------------------


    POTLOK:  cpu time    0.1424: real time    0.1427
    SETDIJ:  cpu time    0.0271: real time    0.0271
     EDDAV:  cpu time  221.2760: real time  221.8001
    CHARGE:  cpu time    4.4640: real time    4.4746
    MIXING:  cpu time    0.0046: real time    0.0046
    --------------------------------------------
      LOOP:  cpu time  225.9140: real time  226.4491

 eigenvalue-minimisations  : 58576
 total energy-change (2. order) : 0.2181158E+02  (-0.4604161E+01)
 number of electron     511.9999996 magnetization       9.5052744
 augmentation part      219.7550901 magnetization       7.9639051

 Broyden mixing:
  rms(total) = 0.68510E+01    rms(broyden)= 0.68495E+01
  rms(prec ) = 0.10590E+02
  weight for this iteration     100.00

 eigenvalues of (default mixing * dielectric matrix)
  average eigenvalue GAMMA=   0.4640
  1.7983  0.6228  0.3481  0.3481  0.2200  0.1316  0.1316  0.1120

 Free energy of the ion-electron system (eV)
  ---------------------------------------------------
  alpha Z        PSCENC =      2360.30907921
  Ewald energy   TEWEN  =    -41334.06863343
  -Hartree energ DENC   =    -11077.34114499
  -exchange      EXHF   =         0.00000000
  -V(xc)+E(xc)   XCENC  =      1959.88909147
  PAW double counting   =     62697.13969474   -65083.11715386
  entropy T*S    EENTRO =        -0.05576355
  eigenvalues    EBANDS =      1882.12442594
  atomic energy  EATOM  =     48247.08154143
  Solvation  Ediel_sol  =         0.00000000
  ---------------------------------------------------
  free energy    TOTEN  =      -348.03886304 eV

  energy without entropy =     -347.98309949  energy(sigma->0) =     -348.01098126


--------------------------------------------------------------------------------------------------------




--------------------------------------- Iteration      1(  14)  ---------------------------------------


    POTLOK:  cpu time    0.1422: real time    0.1425
    SETDIJ:  cpu time    0.0268: real time    0.0269
     EDDAV:  cpu time  251.4051: real time  252.0003
    CHARGE:  cpu time    4.5161: real time    4.5268
    MIXING:  cpu time    0.0054: real time    0.0054
    --------------------------------------------
      LOOP:  cpu time  256.0956: real time  256.7019

 eigenvalue-minimisations  : 69472
 total energy-change (2. order) : 0.1413382E+02  (-0.3170058E+01)
 number of electron     511.9999971 magnetization      10.4239034
 augmentation part      220.1238696 magnetization       8.8446438

 Broyden mixing:
  rms(total) = 0.55554E+01    rms(broyden)= 0.55543E+01
  rms(prec ) = 0.76213E+01
  weight for this iteration     100.00

 eigenvalues of (default mixing * dielectric matrix)
  average eigenvalue GAMMA=   0.4296
  1.6714  0.6580  0.3776  0.3776  0.2995  0.1343  0.1343  0.1068  0.1068

 Free energy of the ion-electron system (eV)
  ---------------------------------------------------
  alpha Z        PSCENC =      2360.30907921
  Ewald energy   TEWEN  =    -41334.06863343
  -Hartree energ DENC   =    -11067.67990379
  -exchange      EXHF   =         0.00000000
  -V(xc)+E(xc)   XCENC  =      1959.53026050
  PAW double counting   =     62464.74368311   -64846.42522534
  entropy T*S    EENTRO =        -0.06153238
  eigenvalues    EBANDS =      1882.66568588
  atomic energy  EATOM  =     48247.08154143
  Solvation  Ediel_sol  =         0.00000000
  ---------------------------------------------------
  free energy    TOTEN  =      -333.90504482 eV

  energy without entropy =     -333.84351244  energy(sigma->0) =     -333.87427863


--------------------------------------------------------------------------------------------------------




--------------------------------------- Iteration      1(  15)  ---------------------------------------


    POTLOK:  cpu time    0.1391: real time    0.1394
    SETDIJ:  cpu time    0.0260: real time    0.0260
     EDDAV:  cpu time  248.9159: real time  249.5052
    CHARGE:  cpu time    4.4572: real time    4.4678
    MIXING:  cpu time    0.0046: real time    0.0046
    --------------------------------------------
      LOOP:  cpu time  253.5427: real time  254.1431

 eigenvalue-minimisations  : 68784
 total energy-change (2. order) : 0.4716151E+01  (-0.1693832E+01)
 number of electron     511.9999990 magnetization      10.7195186
 augmentation part      219.1132550 magnetization       8.9103087

 Broyden mixing:
  rms(total) = 0.44951E+01    rms(broyden)= 0.44938E+01
  rms(prec ) = 0.66083E+01
  weight for this iteration     100.00

 eigenvalues of (default mixing * dielectric matrix)
  average eigenvalue GAMMA=   0.4043
  1.6199  0.6655  0.4033  0.4033  0.3198  0.1488  0.1488  0.1223  0.1058  0.1058

 Free energy of the ion-electron system (eV)
  ---------------------------------------------------
  alpha Z        PSCENC =      2360.30907921
  Ewald energy   TEWEN  =    -41334.06863343
  -Hartree energ DENC   =    -11071.43994980
  -exchange      EXHF   =         0.00000000
  -V(xc)+E(xc)   XCENC  =      1959.32143607
  PAW double counting   =     62030.44354744   -64405.23158407
  entropy T*S    EENTRO =        -0.06495428
  eigenvalues    EBANDS =      1884.46062333
  atomic energy  EATOM  =     48247.08154143
  Solvation  Ediel_sol  =         0.00000000
  ---------------------------------------------------
  free energy    TOTEN  =      -329.18889410 eV

  energy without entropy =     -329.12393982  energy(sigma->0) =     -329.15641696


--------------------------------------------------------------------------------------------------------




--------------------------------------- Iteration      1(  16)  ---------------------------------------


    POTLOK:  cpu time    0.1392: real time    0.1395
    SETDIJ:  cpu time    0.0256: real time    0.0256
     EDDAV:  cpu time  241.4749: real time  242.0465
    CHARGE:  cpu time    4.4762: real time    4.4869
    MIXING:  cpu time    0.0055: real time    0.0055
    --------------------------------------------
      LOOP:  cpu time  246.1213: real time  246.7040

 eigenvalue-minimisations  : 67184
 total energy-change (2. order) : 0.2949468E+01  (-0.1495122E+01)
 number of electron     511.9999967 magnetization      10.4144103
 augmentation part      219.0774640 magnetization       8.5922179

 Broyden mixing:
  rms(total) = 0.32480E+01    rms(broyden)= 0.32470E+01
  rms(prec ) = 0.47108E+01
  weight for this iteration     100.00

 eigenvalues of (default mixing * dielectric matrix)
  average eigenvalue GAMMA=   0.3943
  1.6036  0.6372  0.4476  0.4476  0.2980  0.2980  0.1414  0.1414  0.1150  0.1150
  0.0925

 Free energy of the ion-electron system (eV)
  ---------------------------------------------------
  alpha Z        PSCENC =      2360.30907921
  Ewald energy   TEWEN  =    -41334.06863343
  -Hartree energ DENC   =    -11073.70464145
  -exchange      EXHF   =         0.00000000
  -V(xc)+E(xc)   XCENC  =      1959.17289624
  PAW double counting   =     61817.23990675   -64187.11530958
  entropy T*S    EENTRO =        -0.06797871
  eigenvalues    EBANDS =      1884.91371352
  atomic energy  EATOM  =     48247.08154143
  Solvation  Ediel_sol  =         0.00000000
  ---------------------------------------------------
  free energy    TOTEN  =      -326.23942603 eV

  energy without entropy =     -326.17144732  energy(sigma->0) =     -326.20543667


--------------------------------------------------------------------------------------------------------




--------------------------------------- Iteration      1(  17)  ---------------------------------------


    POTLOK:  cpu time    0.1393: real time    0.1397
    SETDIJ:  cpu time    0.0255: real time    0.0256
     EDDAV:  cpu time  231.0355: real time  231.5825
    CHARGE:  cpu time    4.7058: real time    4.7170
    MIXING:  cpu time    0.0052: real time    0.0052
    --------------------------------------------
      LOOP:  cpu time  235.9114: real time  236.4699

 eigenvalue-minimisations  : 63424
 total energy-change (2. order) : 0.2495893E+01  (-0.5460611E+00)
 number of electron     511.9999987 magnetization       9.7205787
 augmentation part      219.0414511 magnetization       7.8443329

 Broyden mixing:
  rms(total) = 0.28755E+01    rms(broyden)= 0.28750E+01
  rms(prec ) = 0.37504E+01
  weight for this iteration     100.00

 eigenvalues of (default mixing * dielectric matrix)
  average eigenvalue GAMMA=   0.4112
  1.5926  0.6445  0.6445  0.5559  0.3769  0.3769  0.1369  0.1369  0.1396  0.1396
  0.0949  0.0949

 Free energy of the ion-electron system (eV)
  ---------------------------------------------------
  alpha Z        PSCENC =      2360.30907921
  Ewald energy   TEWEN  =    -41334.06863343
  -Hartree energ DENC   =    -11075.51475970
  -exchange      EXHF   =         0.00000000
  -V(xc)+E(xc)   XCENC  =      1959.06432654
  PAW double counting   =     61759.05291003   -64125.07637490
  entropy T*S    EENTRO =        -0.06880367
  eigenvalues    EBANDS =      1885.47718191
  atomic energy  EATOM  =     48247.08154143
  Solvation  Ediel_sol  =         0.00000000
  ---------------------------------------------------
  free energy    TOTEN  =      -323.74353258 eV

  energy without entropy =     -323.67472891  energy(sigma->0) =     -323.70913075


--------------------------------------------------------------------------------------------------------




--------------------------------------- Iteration      1(  18)  ---------------------------------------


    POTLOK:  cpu time    0.1417: real time    0.1420
    SETDIJ:  cpu time    0.0270: real time    0.0271
     EDDAV:  cpu time  232.6815: real time  233.2323
    CHARGE:  cpu time    4.6959: real time    4.7071
    MIXING:  cpu time    0.0063: real time    0.0063
    --------------------------------------------
      LOOP:  cpu time  237.5523: real time  238.1147

 eigenvalue-minimisations  : 64000
 total energy-change (2. order) : 0.5390771E+00  (-0.4218166E+00)
 number of electron     511.9999969 magnetization       8.5037447
 augmentation part      218.9141184 magnetization       6.5799261

 Broyden mixing:
  rms(total) = 0.29519E+01    rms(broyden)= 0.29514E+01
  rms(prec ) = 0.38834E+01
  weight for this iteration     100.00

 eigenvalues of (default mixing * dielectric matrix)
  average eigenvalue GAMMA=   0.4190
  1.5686  0.8466  0.8466  0.5202  0.3926  0.3926  0.1842  0.1386  0.1386  0.1263
  0.1008  0.1008  0.0904

 Free energy of the ion-electron system (eV)
  ---------------------------------------------------
  alpha Z        PSCENC =      2360.30907921
  Ewald energy   TEWEN  =    -41334.06863343
  -Hartree energ DENC   =    -11075.36361632
  -exchange      EXHF   =         0.00000000
  -V(xc)+E(xc)   XCENC  =      1958.98498221
  PAW double counting   =     61806.47196844   -64168.19951317
  entropy T*S    EENTRO =        -0.07356575
  eigenvalues    EBANDS =      1881.65330193
  atomic energy  EATOM  =     48247.08154143
  Solvation  Ediel_sol  =         0.00000000
  ---------------------------------------------------
  free energy    TOTEN  =      -323.20445544 eV

  energy without entropy =     -323.13088970  energy(sigma->0) =     -323.16767257


--------------------------------------------------------------------------------------------------------




--------------------------------------- Iteration      1(  19)  ---------------------------------------


    POTLOK:  cpu time    0.1409: real time    0.1412
    SETDIJ:  cpu time    0.0276: real time    0.0276
     EDDAV:  cpu time  244.4460: real time  245.0250
    CHARGE:  cpu time    4.6729: real time    4.6840
    MIXING:  cpu time    0.0062: real time    0.0062
    --------------------------------------------
      LOOP:  cpu time  249.2936: real time  249.8840

 eigenvalue-minimisations  : 67520
 total energy-change (2. order) : 0.2336748E+00  (-0.5957592E+00)
 number of electron     511.9999984 magnetization       7.8836920
 augmentation part      218.8526831 magnetization       6.2129262

 Broyden mixing:
  rms(total) = 0.24064E+01    rms(broyden)= 0.24053E+01
  rms(prec ) = 0.32708E+01
  weight for this iteration     100.00

 eigenvalues of (default mixing * dielectric matrix)
  average eigenvalue GAMMA=   0.4334
  1.5743  1.0040  1.0040  0.5617  0.3865  0.3865  0.2954  0.1444  0.1444  0.1486
  0.1160  0.1160  0.0925  0.0925

 Free energy of the ion-electron system (eV)
  ---------------------------------------------------
  alpha Z        PSCENC =      2360.30907921
  Ewald energy   TEWEN  =    -41334.06863343
  -Hartree energ DENC   =    -11076.95170473
  -exchange      EXHF   =         0.00000000
  -V(xc)+E(xc)   XCENC  =      1958.94708729
  PAW double counting   =     61942.87530292   -64297.43427605
  entropy T*S    EENTRO =        -0.07236273
  eigenvalues    EBANDS =      1876.34318548
  atomic energy  EATOM  =     48247.08154143
  Solvation  Ediel_sol  =         0.00000000
  ---------------------------------------------------
  free energy    TOTEN  =      -322.97078061 eV

  energy without entropy =     -322.89841788  energy(sigma->0) =     -322.93459925


--------------------------------------------------------------------------------------------------------




--------------------------------------- Iteration      1(  20)  ---------------------------------------


    POTLOK:  cpu time    0.1436: real time    0.1440
    SETDIJ:  cpu time    0.0273: real time    0.0274
     EDDAV:  cpu time  227.4139: real time  227.9523
    CHARGE:  cpu time    4.6984: real time    4.7096
    MIXING:  cpu time    0.0067: real time    0.0067
    --------------------------------------------
      LOOP:  cpu time  232.2899: real time  232.8399

 eigenvalue-minimisations  : 61312
 total energy-change (2. order) :-0.1480454E+00  (-0.4938136E+00)
 number of electron     511.9999981 magnetization       5.6152850
 augmentation part      218.8062054 magnetization       3.9840181

 Broyden mixing:
  rms(total) = 0.19919E+01    rms(broyden)= 0.19907E+01
  rms(prec ) = 0.31428E+01
  weight for this iteration     100.00

 eigenvalues of (default mixing * dielectric matrix)
  average eigenvalue GAMMA=   0.4921
  1.6723  1.4033  1.4033  0.6477  0.4279  0.4279  0.3977  0.1854  0.1417  0.1417
  0.1302  0.1106  0.1106  0.0909  0.0909

 Free energy of the ion-electron system (eV)
  ---------------------------------------------------
  alpha Z        PSCENC =      2360.30907921
  Ewald energy   TEWEN  =    -41334.06863343
  -Hartree energ DENC   =    -11078.64582634
  -exchange      EXHF   =         0.00000000
  -V(xc)+E(xc)   XCENC  =      1958.98026038
  PAW double counting   =     62034.58428104   -64385.91314058
  entropy T*S    EENTRO =        -0.07135201
  eigenvalues    EBANDS =      1874.62496429
  atomic energy  EATOM  =     48247.08154143
  Solvation  Ediel_sol  =         0.00000000
  ---------------------------------------------------
  free energy    TOTEN  =      -323.11882601 eV

  energy without entropy =     -323.04747400  energy(sigma->0) =     -323.08315001


--------------------------------------------------------------------------------------------------------




--------------------------------------- Iteration      1(  21)  ---------------------------------------


    POTLOK:  cpu time    0.1429: real time    0.1433
    SETDIJ:  cpu time    0.0272: real time    0.0272
     EDDAV:  cpu time  235.9480: real time  236.5065
    CHARGE:  cpu time    4.6649: real time    4.6760
    MIXING:  cpu time    0.0063: real time    0.0064
    --------------------------------------------
      LOOP:  cpu time  240.7893: real time  241.3594

 eigenvalue-minimisations  : 65744
 total energy-change (2. order) :-0.8044041E+00  (-0.5200975E+00)
 number of electron     511.9999988 magnetization       5.0160438
 augmentation part      218.5443701 magnetization       3.8587128

 Broyden mixing:
  rms(total) = 0.27276E+01    rms(broyden)= 0.27262E+01
  rms(prec ) = 0.42941E+01
  weight for this iteration     100.00

 eigenvalues of (default mixing * dielectric matrix)
  average eigenvalue GAMMA=   0.4824
  1.7810  1.4145  1.4145  0.6476  0.4274  0.4274  0.4165  0.2366  0.1619  0.1409
  0.1409  0.1138  0.1081  0.1081  0.0939  0.0856

 Free energy of the ion-electron system (eV)
  ---------------------------------------------------
  alpha Z        PSCENC =      2360.30907921
  Ewald energy   TEWEN  =    -41334.06863343
  -Hartree energ DENC   =    -11082.44240498
  -exchange      EXHF   =         0.00000000
  -V(xc)+E(xc)   XCENC  =      1959.13582750
  PAW double counting   =     62352.05459238   -64692.41652265
  entropy T*S    EENTRO =        -0.07527791
  eigenvalues    EBANDS =      1866.49856839
  atomic energy  EATOM  =     48247.08154143
  Solvation  Ediel_sol  =         0.00000000
  ---------------------------------------------------
  free energy    TOTEN  =      -323.92323007 eV

  energy without entropy =     -323.84795215  energy(sigma->0) =     -323.88559111


--------------------------------------------------------------------------------------------------------




--------------------------------------- Iteration      1(  22)  ---------------------------------------


    POTLOK:  cpu time    0.1427: real time    0.1430
    SETDIJ:  cpu time    0.0273: real time    0.0274
     EDDAV:  cpu time  237.2323: real time  237.7939
    CHARGE:  cpu time    4.6921: real time    4.7033
    MIXING:  cpu time    0.0066: real time    0.0066
    --------------------------------------------
[...]
   0.423E+03 -.270E+03 -.628E+01   -.437E+03 0.275E+03 0.794E+01   0.511E+00 0.787E+00 -.904E+00   0.471E-01 -.234E+00 -.589E+00
   0.789E+02 -.544E+02 0.308E+02   -.847E+02 0.535E+02 -.335E+02   0.376E+01 0.155E+01 -.229E+01   0.106E+01 -.917E+00 0.212E+01
   0.453E+02 -.122E+03 -.106E+03   -.431E+02 0.123E+03 0.109E+03   0.454E-01 0.278E+01 -.163E+01   -.467E+00 -.547E+00 -.399E+00
   0.249E+03 0.727E+02 0.960E+02   -.253E+03 -.715E+02 -.101E+03   0.199E+01 0.236E-01 0.136E+01   -.930E+00 -.230E+01 0.754E+00
   -.228E+03 -.100E+03 -.281E+02   0.237E+03 0.103E+03 0.287E+02   0.155E+01 -.595E-01 0.950E+00   0.573E+00 -.902E+00 0.570E+00
   0.213E+03 -.186E+03 0.878E+02   -.216E+03 0.191E+03 -.853E+02   0.510E-01 0.398E+00 -.134E+01   0.417E+00 -.161E+01 -.118E+01
   0.739E+02 -.207E+03 0.796E+02   -.704E+02 0.215E+03 -.828E+02   -.145E+01 0.649E+00 0.102E+01   -.144E+01 -.780E+00 0.280E+00
   0.343E+03 -.141E+03 -.791E+02   -.346E+03 0.141E+03 0.842E+02   0.650E+00 0.201E+01 -.232E+01   -.164E+01 0.473E+00 -.719E+00
   0.987E+02 0.387E+02 -.109E+03   -.101E+03 -.399E+02 0.107E+03   0.194E+01 0.233E+01 0.245E+01   0.483E+00 0.517E+00 -.178E+00
   0.221E+03 0.105E+02 -.106E+03   -.223E+03 -.117E+02 0.104E+03   -.289E+00 0.323E+01 0.458E+00   0.378E+00 0.617E+00 0.122E+01
   0.183E+03 -.851E+02 -.206E+02   -.190E+03 0.895E+02 0.210E+02   0.929E+00 -.352E+01 -.359E+01   -.668E+00 0.440E+00 0.307E+01
   -.598E+02 0.212E+03 0.846E+00   0.637E+02 -.219E+03 -.904E+00   -.126E+01 0.266E+00 -.352E+01   -.545E+00 0.281E+01 0.260E+00
   0.597E+02 0.134E+03 -.130E+03   -.620E+02 -.136E+03 0.134E+03   0.125E+01 0.268E+00 0.374E+00   0.973E+00 0.468E+00 0.289E-01
   0.262E+03 0.158E+03 0.119E+02   -.266E+03 -.162E+03 -.115E+02   -.133E+01 -.977E-01 0.336E+01   -.918E-01 0.129E+01 -.122E+01
   0.177E+03 0.112E+03 0.211E+03   -.177E+03 -.114E+03 -.211E+03   -.906E+00 0.981E+00 -.133E+01   -.105E+01 0.108E+01 -.282E+01
   0.221E+03 0.131E+01 0.842E+02   -.222E+03 -.185E+01 -.843E+02   -.109E+01 0.159E+01 0.184E+00   -.915E+00 -.554E+00 -.201E+00
   0.329E+02 -.731E+02 -.326E+02   -.360E+02 0.732E+02 0.332E+02   0.280E+01 0.798E+00 0.990E+00   -.186E+00 -.816E+00 -.163E+00
   -.262E+03 -.576E+02 -.216E+02   0.287E+03 0.557E+02 0.272E+02   -.156E+02 0.182E+01 -.254E+01   0.324E+00 -.197E+00 -.495E+00
   -.117E+03 -.312E+02 0.702E+01   0.120E+03 0.306E+02 -.111E+02   -.319E+01 0.226E+01 0.718E+00   0.460E+00 -.188E+01 0.120E+01
   -.302E+02 -.821E+02 0.635E+02   0.259E+02 0.904E+02 -.683E+02   0.510E+01 -.725E+01 0.460E+01   -.141E+00 -.532E+00 0.586E-01
   -.135E+03 0.167E+03 -.108E+02   0.146E+03 -.191E+03 0.811E+01   -.109E+02 0.107E+02 0.592E+00   0.151E+01 -.326E+00 0.387E+00
   0.404E+02 -.798E+02 0.133E+02   -.568E+02 0.839E+02 -.141E+02   0.672E+01 -.137E+01 -.607E+00   -.769E+00 -.146E+01 0.244E+00
   -.155E+03 -.884E+02 0.122E+03   0.166E+03 0.907E+02 -.133E+03   -.440E+01 -.630E+00 0.115E+02   -.239E+01 -.394E+00 -.221E+01
   -.484E+02 -.108E+03 0.360E+02   0.512E+02 0.117E+03 -.409E+02   -.139E+01 -.494E+01 0.225E+01   -.134E+00 -.233E+01 0.219E+00
   -.179E+03 0.217E+03 -.623E+02   0.196E+03 -.231E+03 0.654E+02   -.122E+02 0.905E+01 -.337E+01   -.127E+00 0.448E+00 0.599E+00
   0.280E+02 0.134E+03 -.143E+03   -.312E+02 -.146E+03 0.150E+03   0.460E+01 0.600E+01 -.364E+01   -.146E+01 0.113E+01 -.647E+00
   0.295E+02 0.230E+03 -.128E+03   -.405E+02 -.254E+03 0.137E+03   0.887E+01 0.129E+02 -.751E+01   -.949E-01 0.137E+01 -.340E+00
   -.284E+03 -.383E+02 -.324E+02   0.306E+03 0.419E+02 0.380E+02   -.131E+02 -.188E+01 -.626E+01   -.102E+01 0.581E+00 0.135E+01
   -.241E+03 0.181E+03 -.892E+02   0.263E+03 -.200E+03 0.105E+03   -.150E+02 0.165E+02 -.875E+01   -.154E+00 0.920E+00 -.112E+01
   -.186E+02 -.499E+02 0.291E+01   0.172E+02 0.536E+02 0.879E+01   -.118E+01 -.433E+01 -.118E+02   0.202E+01 0.158E+01 0.829E-01
   0.185E+02 0.106E+03 0.160E+03   -.231E+02 -.108E+03 -.175E+03   0.444E+01 0.522E+00 0.107E+02   0.429E+00 0.531E+00 0.151E+00
   -.783E+02 0.676E+01 -.221E+02   0.859E+02 -.522E+01 0.265E+02   -.604E+01 -.355E+01 -.281E+01   -.338E-01 0.202E+01 -.135E+01
   0.440E+03 0.214E+02 -.186E+03   -.653E+03 -.259E+02 0.288E+03   0.433E+02 0.259E+01 -.169E+02   -.515E+00 0.210E+00 0.193E+01
   -.129E+03 -.171E+03 -.946E+02   0.162E+03 0.181E+03 0.104E+03   -.192E+02 -.627E+01 -.717E+01   -.202E+01 0.462E-01 -.523E+00
   0.802E+02 0.627E+02 0.123E+02   -.855E+02 -.687E+02 -.137E+02   0.566E+01 0.847E+01 0.199E+01   0.287E+00 -.396E+01 -.561E+00
   0.113E+03 -.813E+02 -.318E+02   -.125E+03 0.893E+02 0.374E+02   0.106E+02 -.734E+01 -.384E+01   0.690E-01 -.101E+01 -.153E+01
   0.170E+03 -.114E+03 -.189E+02   -.178E+03 0.120E+03 0.241E+02   0.354E+01 -.471E+01 -.297E+01   -.307E+01 -.105E+01 -.152E+01
   0.220E+03 0.556E+02 -.111E+01   -.233E+03 -.642E+02 0.515E+01   0.785E+01 0.613E+01 -.397E+01   -.107E+00 0.952E+00 0.333E+00
   0.126E+01 -.567E+02 -.989E+02   -.346E+01 0.592E+02 0.109E+03   0.117E+01 -.404E+01 -.813E+01   0.181E+01 0.146E+01 0.749E+00
   0.186E+03 -.651E+02 0.528E+02   -.197E+03 0.592E+02 -.569E+02   0.715E+01 0.586E+01 0.219E+01   0.240E+00 -.131E+00 0.129E+01
   -.259E+02 0.967E+02 -.126E+03   0.283E+02 -.106E+03 0.135E+03   -.567E+00 0.727E+01 -.496E+01   -.180E+00 -.193E+00 0.344E+00
   0.143E+03 0.686E+02 -.232E+02   -.159E+03 -.759E+02 0.286E+02   0.132E+02 0.635E+01 -.344E+01   0.369E+00 0.838E+00 0.306E+00
   0.193E+03 0.129E+03 -.731E+01   -.205E+03 -.145E+03 0.481E+01   0.888E+01 0.759E+01 0.197E+01   0.643E+00 0.405E+01 0.249E+00
   0.891E+02 0.100E+03 0.701E+02   -.854E+02 -.111E+03 -.842E+02   -.455E+01 0.625E+01 0.644E+01   0.661E+00 0.913E+00 0.384E+01
   -.400E+02 0.143E+03 0.115E+03   0.568E+02 -.157E+03 -.121E+03   -.112E+02 0.680E+01 0.409E+01   -.311E+00 0.657E+00 -.234E+00
   0.744E+02 0.538E+02 -.866E+02   -.744E+02 -.602E+02 0.884E+02   0.131E+01 0.605E+01 0.882E+00   -.166E+01 -.553E+00 -.317E+00
   0.306E+02 0.486E+02 0.108E+03   -.366E+02 -.463E+02 -.117E+03   0.546E+01 -.863E-01 0.628E+01   0.208E+00 -.203E+01 -.277E+00
   -.259E+01 0.551E+02 0.799E+02   0.374E+00 -.572E+02 -.798E+02   0.349E+01 0.208E+01 0.255E+01   0.393E+00 0.280E+00 -.402E+01
 -----------------------------------------------------------------------------------------------
   -.453E+01 -.101E+03 0.524E+02   -.121E-11 -.142E-13 0.568E-13   0.137E+02 0.101E+03 -.521E+02   -.902E+01 -.431E+00 -.245E+00
 
 
 POSITION                                       TOTAL-FORCE (eV/Angst)
 -----------------------------------------------------------------------------------
      0.34989      7.95718      7.91748        -5.962376      7.520634      0.156979
      7.48373      2.05332      1.99105       170.395887      0.072421    -85.287401
      1.94765      0.06308      2.13918         1.613299      5.465137     -0.937642
      1.84185      1.87772      7.91925         2.005150      1.898651     -0.946282
      0.12602      0.01470      4.25640         2.730081      1.542105     -0.251221
      7.88588      2.01935      6.05013         9.180475      1.681517      3.379797
      2.01410      7.91709      6.12776         1.357630      2.066872      0.569955
      1.97887      2.07277      4.12268         0.512036     -0.870914     -2.898440
      7.67757      3.87279      0.12002         3.410603      1.062708      0.011816
      0.13911      6.38246      2.16174        -5.511645     -3.317660     -0.133413
      2.13401      4.13452      2.29679        -0.483281     -0.013635     -1.871750
      1.88636      6.13654      0.07707         0.529637      4.305048     -0.406173
      0.11874      4.18405      4.37902         0.605764     -0.768991     -1.972078
      0.20319      6.28397      6.02836        -6.178106     -2.554613      4.181495
      1.91226      3.72829      6.30238        -1.299729     11.341839      3.435738
      1.69037      6.34074      4.47922         2.777451     -1.423954     -6.737653
      4.28168      7.76158      0.22297       -13.712846      5.765601      0.167311
      4.19690      2.22983      2.06930        -0.965682     -0.213565     -2.846997
      5.83711      7.88493      2.21853         1.815702      2.835818      1.293780
      6.17228      2.04523      0.35831        -3.471824     -1.147386     -2.758718
      3.80352      0.04377      4.14708        11.462329      1.587073      2.110496
      4.47650      1.82919      6.16832        -2.532021      3.373314      0.012538
      6.08003      7.98781      6.49676         0.526631      8.156906     -1.872476
      6.24065      1.96206      4.14071        -4.440802      1.627077      2.046428
      3.85046      3.96695      0.10290         0.042072      1.556461      0.562418
      4.16149      6.06557      2.15598        -1.208550      2.724342      0.497851
      6.35267      3.97494      1.94880        -6.868882      1.325236     -0.080219
      5.99095      5.93386      0.15933         2.036911     -3.689220     -3.319711
      4.12415      4.29426      4.03458        -0.138847     -1.717037      4.097482
      4.29394      6.08923      6.06712        -6.089145     -3.003188      2.580246
      6.03604      4.24977      6.22000        -2.292666     -0.158266     -3.624950
      6.20218      5.93696      4.13831        -3.012726      0.496204     -0.125967
      2.19291      2.16721      1.79386        -0.395292      0.137920      1.459882
      1.83108      0.14737      0.31493         9.969194     -0.265586      2.647918
      8.00818      1.91828      0.21913         0.846001     -0.304136     -2.151365
      7.95248      0.14515      2.36479         0.668971      0.528054     -0.209111
      2.11424      2.33553      5.85554         1.384798    -13.711120     -1.753507
      2.31410      7.96694      3.86348       -10.438898      1.285673     -1.172950
      7.97991      2.07334      4.32346         4.013710      1.267628     -2.197504
      7.80207      0.04347      6.18848         1.230589      1.705582     -2.449909
      1.73947      6.42711      1.89640         4.981428     -4.766885      0.302240
      2.04062      4.54128      7.84851        -0.063634     -4.505050      2.703092
      7.90852      6.47726      7.79835        -2.225698     -9.359482      0.854510
      7.92798      4.21316      2.14605         7.815411      2.249249      0.722264
      1.84264      6.02802      6.06967         6.041984     -1.939685      5.504567
      2.22103      3.93727      4.08384        -0.547714      0.965126     -0.035808
      7.90978      6.11466      4.36820         0.278737     -1.223970     -3.726221
      7.82155      4.12430      6.21924         1.532087      0.017610      0.260283
      6.60529      2.04756      2.44155      -169.873394     -1.742353     86.936119
      5.76620      7.60458      0.17341        11.882600      3.161831      1.700686
      4.05755      2.17077      0.10331         0.681181     -1.486088      0.081730
      4.09206      0.13643      2.08512        -1.947602     -0.340792      0.187921
      6.31815      1.85617      6.11205        -7.803665     -0.021151      0.645282
      6.47336      0.17123      4.10098        -5.165281     -1.532700      0.396776
      4.01445      2.02416      3.79973         0.776622     -0.069470      2.658959
      4.29855      0.06823      6.19257        -2.955181     -0.205289     -0.613933
      6.26692      6.23266      1.82055         1.595566     -2.696027      3.874275
      5.95572      4.09641      7.93175        -2.633896     -0.145338      2.219340
      4.13396      6.02512      0.13080        -2.508537     -4.053482     -0.279925
      4.46984      4.41927      2.37695        -0.247910     -3.340149     -3.863640
      5.87677      6.46022      6.13861         5.253560     -6.753381     -1.676669
      6.20380      4.08892      3.79315        -0.387968     -0.876142      2.380576
      3.83559      6.15925      4.40844        -0.254680      0.194053     -3.117533
      3.88690      3.96886      6.15547         1.664382      0.299014     -1.321582
 -----------------------------------------------------------------------------------
    total drift:                                0.121215      0.017683      0.073305


--------------------------------------------------------------------------------------------------------



  FREE ENERGIE OF THE ION-ELECTRON SYSTEM (eV)
  ---------------------------------------------------
  free  energy   TOTEN  =      -321.7010028469 eV

  energy  without entropy=     -321.6320206863  energy(sigma->0) =     -321.66651177
 


--------------------------------------------------------------------------------------------------------


    POTLOK:  cpu time    0.1694: real time    0.1698


--------------------------------------------------------------------------------------------------------


     LOOP+:  cpu time17696.9949: real time17739.2117
    4ORBIT:  cpu time    0.0000: real time    0.0000

volume of typ            1:    39.6 %

volume of typ            2:    10.1 %
 
total charge     
 
# of ion       s       p       d       tot
------------------------------------------
    1        0.384   0.537   8.145   9.066
    2        0.624   0.909   8.668  10.200
    3        0.283   0.372   8.045   8.700
    4        0.230   0.281   8.025   8.536
    5        0.269   0.354   8.070   8.694
    6        0.299   0.385   8.173   8.857
    7        0.191   0.196   8.149   8.536
    8        0.231   0.269   8.050   8.550
    9        0.236   0.286   8.153   8.675
   10        0.283   0.347   8.067   8.697
   11        0.207   0.197   8.016   8.420
   12        0.276   0.347   8.080   8.703
   13        0.214   0.245   8.050   8.509
   14        0.324   0.469   8.106   8.898
   15        0.334   0.451   8.097   8.883
   16        0.291   0.385   8.131   8.807
   17        0.326   0.423   8.091   8.840
   18        0.238   0.271   8.004   8.513
   19        0.267   0.324   8.073   8.664
   20        0.230   0.242   8.156   8.628
   21        0.295   0.365   8.125   8.784
   22        0.226   0.254   8.021   8.501
   23        0.342   0.495   8.089   8.926
   24        0.267   0.352   7.997   8.616
   25        0.233   0.267   8.125   8.624
   26        0.230   0.263   8.059   8.552
   27        0.301   0.396   8.079   8.776
   28        0.305   0.428   8.065   8.798
   29        0.247   0.302   7.925   8.474
   30        0.294   0.370   8.037   8.701
   31        0.251   0.277   8.100   8.628
   32        0.225   0.256   8.094   8.574
   33        1.274   2.744   0.006   4.024
   34        1.263   2.890   0.024   4.177
   35        1.264   2.837   0.014   4.114
   36        1.286   2.789   0.011   4.087
   37        1.278   2.860   0.025   4.163
   38        1.267   2.887   0.026   4.179
   39        1.273   2.832   0.015   4.120
   40        1.284   2.847   0.018   4.149
   41        1.270   2.866   0.020   4.155
   42        1.269   2.845   0.017   4.130
   43        1.283   2.855   0.020   4.158
   44        1.278   2.796   0.014   4.088
   45        1.274   2.859   0.024   4.157
   46        1.276   2.779   0.011   4.066
   47        1.262   2.877   0.024   4.163
   48        1.270   2.804   0.013   4.086
   49        1.309   3.155   0.099   4.563
   50        1.291   2.907   0.031   4.229
   51        1.266   2.768   0.009   4.044
   52        1.277   2.787   0.012   4.076
   53        1.267   2.872   0.020   4.159
   54        1.278   2.813   0.013   4.105
   55        1.273   2.766   0.009   4.048
   56        1.274   2.813   0.014   4.100
   57        1.273   2.838   0.016   4.126
   58        1.263   2.846   0.019   4.129
   59        1.274   2.806   0.014   4.094
   60        1.271   2.830   0.017   4.117
   61        1.283   2.884   0.024   4.191
   62        1.284   2.769   0.010   4.063
   63        1.275   2.798   0.012   4.085
   64        1.281   2.744   0.007   4.031
--------------------------------------------------
tot          49.76  102.08  259.67  411.51
 
magnetization (x)
 
# of ion       s       p       d       tot
------------------------------------------
    1       -0.000   0.005   0.083   0.088
    2       -0.001   0.001   0.001   0.001
    3        0.003   0.001   0.331   0.334
    4       -0.001   0.003   0.625   0.626
    5       -0.001  -0.001   0.185   0.183
    6       -0.000   0.009   0.446   0.455
    7        0.003   0.002   0.542   0.546
    8        0.001  -0.003  -0.648  -0.649
    9        0.000   0.000   0.120   0.120
   10       -0.000  -0.002  -0.042  -0.044
   11       -0.004  -0.008  -0.988  -1.000
   12        0.000  -0.001  -0.181  -0.182
   13        0.001   0.001  -0.139  -0.137
   14        0.001   0.004   0.183   0.189
   15        0.000   0.001   0.103   0.104
   16        0.000   0.005   0.338   0.343
   17        0.002   0.006   0.148   0.155
   18        0.008   0.004   0.858   0.869
   19        0.001  -0.004  -0.325  -0.328
   20        0.002   0.000  -0.286  -0.283
   21        0.001   0.000  -0.099  -0.098
   22        0.002  -0.003  -0.810  -0.811
   23       -0.000   0.003   0.074   0.077
   24       -0.001   0.001   0.332   0.332
   25        0.001   0.001  -0.046  -0.044
   26       -0.002  -0.000  -0.664  -0.667
   27       -0.000  -0.001   0.133   0.131
   28        0.001  -0.001   0.047   0.046
   29        0.000   0.001   0.229   0.230
   30        0.004   0.014   0.855   0.872
   31        0.000   0.002   0.186   0.188
   32        0.001   0.000  -0.032  -0.031
   33        0.003   0.055   0.000   0.058
   34        0.003   0.049   0.000   0.053
   35        0.002   0.019   0.000   0.022
   36        0.001   0.030   0.000   0.031
   37       -0.000   0.019   0.000   0.019
   38        0.002   0.012  -0.000   0.013
   39        0.005   0.044   0.000   0.049
   40        0.004   0.029   0.000   0.033
   41        0.000  -0.034   0.000  -0.033
   42       -0.001   0.004  -0.000   0.003
   43        0.000  -0.006   0.000  -0.005
   44        0.001  -0.013   0.000  -0.013
   45        0.003   0.104   0.000   0.108
   46       -0.006  -0.111  -0.000  -0.116
   47        0.002   0.021  -0.000   0.022
   48        0.002   0.037   0.000   0.040
   49        0.003   0.009  -0.000   0.012
   50        0.002   0.014   0.000   0.016
   51       -0.001  -0.025   0.000  -0.027
   52        0.002   0.041   0.000   0.043
   53        0.002   0.000   0.001   0.003
   54        0.002   0.009   0.000   0.011
   55        0.001   0.003   0.000   0.004
   56        0.004   0.008  -0.000   0.011
   57       -0.003  -0.049  -0.000  -0.052
   58        0.001   0.010   0.000   0.011
   59        0.001  -0.014   0.000  -0.012
   60       -0.001  -0.031  -0.000  -0.031
   61        0.006   0.088   0.000   0.095
   62        0.001   0.013   0.000   0.014
   63        0.002   0.053   0.000   0.055
   64        0.000   0.023   0.000   0.023
--------------------------------------------------
tot           0.07    0.45    1.56    2.08
 

 total amount of memory used by VASP MPI-rank0   457664. kBytes
=======================================================================

   base      :      30000. kBytes
   nonlr-proj:      38968. kBytes
   fftplans  :       4751. kBytes
   grid      :      26734. kBytes
   one-center:       1990. kBytes
   wavefun   :     355221. kBytes
 
  
  
 General timing and accounting informations for this job:
 ========================================================
  
                  Total CPU time used (sec):    17795.760
                            User time (sec):    17769.073
                          System time (sec):       26.687
                         Elapsed time (sec):    17842.632
  
                   Maximum memory used (kb):      593852.
                   Average memory used (kb):           0.
  
                          Minor page faults:        45269
                          Major page faults:           18
                 Voluntary context switches:         1207
