 vasp.5.4.4.18Apr17-6-g9f103f2a35 (build May 12 2020 04:58:55) complex          
  
 MD_VERSION_INFO: Compiled 2020-05-12T11:58:55-UTC in devlin.sd.materialsdesign.
 com:/home/medea2/data/build/wwolf/vasp-gpu5.4.4/13047/x86_64/src/src/build/std 
 from svn 13047
 
 This VASP executable licensed from Materials Design, Inc.
 
 executed on                        Lin64 date 2023.03.23  21:19:03
 running on   16 total cores
 distrk:  each k-point on   16 cores,    1 groups
 distr:  one band on NCORES_PER_BAND=   1 cores,   16 groups


--------------------------------------------------------------------------------------------------------


 INCAR:
 POTCAR:    PAW_PBE Ni 02Aug2007                  
 POTCAR:    PAW_PBE O 08Apr2002                   

 ----------------------------------------------------------------------------- 
|                                                                             |
|           W    W    AA    RRRRR   N    N  II  N    N   GGGG   !!!           |
|           W    W   A  A   R    R  NN   N  II  NN   N  G    G  !!!           |
|           W    W  A    A  R    R  N N  N  II  N N  N  G       !!!           |
|           W WW W  AAAAAA  RRRRR   N  N N  II  N  N N  G  GGG   !            |
|           WW  WW  A    A  R   R   N   NN  II  N   NN  G    G                |
|           W    W  A    A  R    R  N    N  II  N    N   GGGG   !!!           |
|                                                                             |
|      For optimal performance we recommend to set                            |
|        NCORE= 4 - approx SQRT( number of cores)                             |
|      NCORE specifies how many cores store one orbital (NPAR=cpu/NCORE).     |
|      This setting can  greatly improve the performance of VASP for DFT.     |
|      The default,   NCORE=1            might be grossly inefficient         |
|      on modern multi-core architectures or massively parallel machines.     |
|      Do your own testing !!!!                                               |
|      Unfortunately you need to use the default for GW and RPA calculations. |
|      (for HF NCORE is supported but not extensively tested yet)             |
|                                                                             |
 ----------------------------------------------------------------------------- 

 POTCAR:    PAW_PBE Ni 02Aug2007                  
  local pseudopotential read in
  partial core-charges read in
  partial kinetic energy density read in
  atomic valenz-charges read in
  non local Contribution for L=           2  read in
    real space projection operators read in
  non local Contribution for L=           2  read in
    real space projection operators read in
  non local Contribution for L=           0  read in
    real space projection operators read in
  non local Contribution for L=           0  read in
    real space projection operators read in
  non local Contribution for L=           1  read in
    real space projection operators read in
  non local Contribution for L=           1  read in
    real space projection operators read in
    PAW grid and wavefunctions read in
 
   number of l-projection  operators is LMAX  =           6
   number of lm-projection operators is LMMAX =          18
 
 POTCAR:    PAW_PBE O 08Apr2002                   
  local pseudopotential read in
  partial core-charges read in
  partial kinetic energy density read in
  kinetic energy density of atom read in
  atomic valenz-charges read in
  non local Contribution for L=           0  read in
    real space projection operators read in
  non local Contribution for L=           0  read in
    real space projection operators read in
  non local Contribution for L=           1  read in
    real space projection operators read in
  non local Contribution for L=           1  read in
    real space projection operators read in
    PAW grid and wavefunctions read in
 
   number of l-projection  operators is LMAX  =           4
   number of lm-projection operators is LMMAX =           8
 
 Optimization of the real space projectors (new method)

 maximal supplied QI-value         = 16.25
 optimisation between [QCUT,QGAM] = [ 11.38, 22.75] = [ 36.24,144.96] Ry 
 Optimized for a Real-space Cutoff    1.47 Angstroem

   l    n(q)    QCUT    max X(q) W(low)/X(q) W(high)/X(q)  e(spline) 
   2      9    11.376    60.317    0.17E-03    0.16E-04    0.16E-06
   2      9    11.376    55.921    0.17E-03    0.16E-04    0.17E-06
   0     10    11.376    51.690    0.45E-04    0.60E-04    0.21E-06
   0     10    11.376    30.015    0.37E-04    0.55E-04    0.19E-06
   1     10    11.376    18.849    0.83E-04    0.11E-03    0.92E-07
   1     10    11.376    14.624    0.69E-04    0.92E-04    0.82E-07
 Optimization of the real space projectors (new method)

 maximal supplied QI-value         = 24.76
 optimisation between [QCUT,QGAM] = [ 11.39, 22.77] = [ 36.31,145.25] Ry 
 Optimized for a Real-space Cutoff    1.10 Angstroem

   l    n(q)    QCUT    max X(q) W(low)/X(q) W(high)/X(q)  e(spline) 
   0      7    11.387    20.381    0.22E-03    0.48E-03    0.18E-06
   0      7    11.387    15.268    0.22E-03    0.52E-03    0.19E-06
   1      7    11.387     5.964    0.22E-03    0.73E-03    0.24E-06
   1      7    11.387     5.382    0.19E-03    0.60E-03    0.21E-06

 ----------------------------------------------------------------------------- 
|                                                                             |
|  ADVICE TO THIS USER RUNNING 'VASP/VAMP'   (HEAR YOUR MASTER'S VOICE ...):  |
|                                                                             |
|      You enforced a specific xc-type in the INCAR file,                     |
|      a different type was found on the POTCAR file                          |
|          I HOPE YOU KNOW, WHAT YOU ARE  DOING                               |
|                                                                             |
 ----------------------------------------------------------------------------- 

  PAW_PBE Ni 02Aug2007                  :
 energy of atom  1       EATOM=-1077.6739
 kinetic energy error for atom=    0.0030 (will be added to EATOM!!)
  PAW_PBE O 08Apr2002                   :
 energy of atom  2       EATOM= -432.3788
 kinetic energy error for atom=    0.0224 (will be added to EATOM!!)
 
 
 POSCAR: NiO_Fm-3m_scale_0_975_disp_0_10_round_1 
  positions in direct lattice
  No initial velocities read in
 exchange correlation table for  LEXCH =       14
   RHO(1)=    0.500       N(1)  =     2000
   RHO(2)=  100.500       N(2)  =     4000
 


--------------------------------------------------------------------------------------------------------


 ion  position               nearest neighbor table
   1  0.000  0.996  0.986-  50 1.75  40 1.77  43 1.86  34 2.11  36 2.21  35 2.22  28 2.55  14 2.58
                            12 2.64  23 2.65  10 2.73  19 2.74   6 2.82   3 2.87   7 2.88   4 2.94
   2  1.000  0.252  0.250-  49 1.80  36 1.93  44 1.93  35 1.95  39 2.07  33 2.10  24 2.58  19 2.70
                             4 2.71  20 2.74  11 2.75   3 2.81  27 2.87  13 2.87   8 2.90   1 2.95
   3  0.237  0.994  0.253-  36 1.91  41 2.01  38 2.09  52 2.11  34 2.14  33 2.19  10 2.71  12 2.73
                             5 2.80   2 2.81  16 2.82   4 2.86   1 2.87  26 2.91  21 2.93   8 2.96
   4  0.248  0.264  0.022-  37 1.90  34 1.98  35 2.01  42 2.03  33 2.07  51 2.21  11 2.70   2 2.71
                            25 2.85   3 2.86  15 2.93   9 2.93   1 2.94  18 2.95   7 2.96   6 2.97
   5  0.006  0.996  0.515-  47 1.82  54 1.90  40 2.04  36 2.04  39 2.14  38 2.14   7 2.68  16 2.68
                            24 2.69  32 2.71   6 2.74  14 2.78   3 2.80   8 2.82  23 2.85  19 2.86
   6  0.004  0.250  0.743-  40 1.83  39 1.89  53 1.98  48 2.12  35 2.13  37 2.17  24 2.59   8 2.65
                            23 2.67   7 2.67   5 2.74  31 2.75  13 2.75   1 2.82   9 2.92  20 2.96
   7  0.255  0.031  0.736-  38 1.83  37 1.96  45 2.00  34 2.03  56 2.03  40 2.15   8 2.51   6 2.67
                             5 2.68  16 2.70  30 2.72  21 2.78  22 2.82  12 2.86   1 2.88   4 2.96
   8  0.245  0.254  0.516-  33 1.91  39 2.02  55 2.05  38 2.11  37 2.17  46 2.18   7 2.51   6 2.65
                            13 2.79  21 2.80   5 2.82   2 2.90  15 2.93   3 2.96  11 2.99  29 2.99
   9  0.992  0.523  0.985-  58 1.75  48 1.90  43 1.94  35 2.02  42 2.12  44 2.25  14 2.56  31 2.61
                            27 2.74  10 2.74  28 2.76  20 2.81  11 2.81  15 2.82  12 2.90   6 2.92
  10  0.994  0.760  0.232-  57 1.71  43 1.87  36 2.03  44 2.20  41 2.28  47 2.35  28 2.52  19 2.60
                            27 2.62   3 2.71  11 2.71   1 2.73   9 2.74  12 2.82  32 2.95   5 2.95
  11  0.223  0.512  0.248-  44 1.56  42 1.84  41 1.95  33 2.02  46 2.06  60 2.30   4 2.70  10 2.71
                            13 2.75   2 2.75   9 2.81  12 2.99   8 2.99  25 3.00  16 3.03  26 3.06
  12  0.248  0.779  0.989-  45 1.71  41 1.90  34 1.93  43 2.04  42 2.11  59 2.20  30 2.52   1 2.64
                            14 2.65   3 2.73  15 2.74  10 2.82   7 2.86  17 2.87  25 2.90   9 2.90
  13  1.000  0.501  0.508-  62 1.82  46 1.91  39 1.92  48 1.93  44 2.00  47 2.15  24 2.57  11 2.75
                             6 2.75  31 2.79   8 2.79  27 2.83  32 2.84   2 2.87  14 2.94  15 2.95
  14  0.001  0.759  0.769-  43 1.83  48 1.96  47 1.96  61 1.97  45 2.07  40 2.13   9 2.56   1 2.58
                            12 2.65  28 2.73   5 2.78  32 2.79  16 2.82  15 2.84  31 2.90  23 2.93
  15  0.265  0.522  0.763-  37 2.03  42 2.06  46 2.09  64 2.09  45 2.10  48 2.12  25 2.62  12 2.74
                            16 2.76   9 2.82  14 2.84  30 2.86   4 2.93   8 2.93  13 2.95  29 2.98
  16  0.253  0.770  0.523-  38 1.79  46 1.97  47 1.97  45 2.02  63 2.08  41 2.43   5 2.68   7 2.70
                            15 2.76   3 2.82  14 2.82  21 2.89  30 2.90  26 2.95  13 2.96  11 3.03
  17  0.530  0.000  0.995-  56 1.80  59 1.90  51 2.00  50 2.04  34 2.15  52 2.19  30 2.33  28 2.59
                            23 2.59  22 2.70  19 2.80  20 2.80  12 2.87  26 2.90  18 2.99   7 3.04
  18  0.529  0.263  0.259-  60 1.93  49 1.98  51 2.00  33 2.16  55 2.20  52 2.35  20 2.67  29 2.69
                            21 2.71  27 2.84  24 2.86  19 2.89   4 2.95  25 2.96  17 2.99   8 3.07
  19  0.775  0.001  0.243-  57 1.77  36 1.81  50 1.85  49 2.09  52 2.22  54 2.27  28 2.53  10 2.60
                             2 2.70   1 2.74  17 2.80  20 2.83  26 2.85   5 2.86  18 2.89  24 2.89
  20  0.753  0.268  0.013-  51 1.85  35 1.96  53 2.01  58 2.04  49 2.06  50 2.12  22 2.66  18 2.67
                            31 2.70   2 2.74  23 2.75  27 2.76  17 2.80   9 2.81  19 2.83  25 2.87
  21  0.508  0.024  0.497-  55 1.85  38 1.90  52 1.91  63 1.97  54 2.12  56 2.20  18 2.71   7 2.78
                             8 2.80  26 2.83  22 2.87  16 2.89  32 2.92  23 2.93   3 2.93  24 2.95
  22  0.525  0.253  0.773-  53 1.89  51 1.90  55 1.94  56 1.94  64 2.04  37 2.04  23 2.58  20 2.66
                            31 2.67  17 2.70  25 2.76   7 2.82  21 2.87  29 2.93   4 2.98  15 3.00
  23  0.756  0.030  0.766-  40 1.87  54 1.93  53 1.95  50 2.00  56 2.01  61 2.10  22 2.58  17 2.59
                             1 2.65   6 2.67  20 2.75  28 2.82  24 2.82  30 2.83   5 2.85  32 2.92
  24  0.795  0.255  0.498-  39 1.60  49 1.84  54 1.93  62 2.11  53 2.14  55 2.38  13 2.57   2 2.58
                             6 2.59   5 2.69  23 2.82  31 2.83  18 2.86  19 2.89  29 2.90  21 2.95
  25  0.497  0.517  0.993-  64 1.71  42 1.97  60 1.97  59 2.00  51 2.15  58 2.23  15 2.62  30 2.74
                            22 2.76  31 2.82   4 2.85  20 2.87  12 2.90  26 2.92  27 2.96  18 2.96
  26  0.514  0.759  0.264-  52 1.71  63 1.86  41 1.93  59 2.04  60 2.07  57 2.16  27 2.78  29 2.82
                            21 2.83  32 2.83  28 2.85  19 2.85  17 2.90   3 2.91  25 2.92  16 2.95
  27  0.768  0.524  0.243-  58 1.92  57 2.05  60 2.08  62 2.11  44 2.12  49 2.13  10 2.62   9 2.74
                            28 2.76  20 2.76  26 2.78  13 2.83  29 2.84  18 2.84   2 2.87  32 2.92
  28  0.767  0.783  0.015-  50 1.79  43 1.83  57 1.86  61 1.94  59 1.97  58 2.10  10 2.52  19 2.53
                             1 2.55  17 2.59  14 2.73  27 2.76   9 2.76  23 2.82  30 2.83  26 2.85
  29  0.527  0.498  0.500-  62 1.99  55 1.99  60 2.10  63 2.25  64 2.25  46 2.33  18 2.69  31 2.79
                            26 2.82  27 2.84  32 2.84  24 2.90  22 2.93  15 2.98   8 2.99
  30  0.493  0.795  0.793-  56 1.75  59 1.77  45 1.89  61 2.13  64 2.32  17 2.33  63 2.38  12 2.52
                             7 2.72  25 2.74  28 2.83  23 2.83  15 2.86  16 2.90  21 3.00
  31  0.759  0.490  0.760-  53 1.74  64 1.89  48 1.95  58 1.97  62 2.05  61 2.23   9 2.61  22 2.67
                            20 2.70   6 2.75  13 2.79  29 2.79  25 2.82  24 2.83  14 2.90  32 2.92
  32  0.761  0.763  0.518-  47 1.97  62 1.98  63 2.02  54 2.04  61 2.06  57 2.18   5 2.71  14 2.79
                            26 2.83  29 2.84  13 2.84  19 2.91  27 2.92  21 2.92  23 2.92  31 2.92
  33  0.260  0.265  0.279-   8 1.91  11 2.02   4 2.07   2 2.10  18 2.16   3 2.19
  34  0.262  0.019  0.989-  12 1.93   4 1.98   7 2.03   1 2.11   3 2.14  17 2.15
  35  0.998  0.273  0.008-   2 1.95  20 1.96   4 2.01   9 2.02   6 2.13   1 2.22
  36  0.000  0.011  0.261-  19 1.81   3 1.91   2 1.93  10 2.03   5 2.04   1 2.21
  37  0.271  0.269  0.785-   4 1.90   7 1.96  15 2.03  22 2.04   6 2.17   8 2.17
  38  0.274  0.992  0.512-  16 1.79   7 1.83  21 1.90   3 2.09   8 2.11   5 2.14
  39  0.994  0.262  0.508-  24 1.60   6 1.89  13 1.92   8 2.02   2 2.07   5 2.14
  40  0.988  0.024  0.767-   1 1.77   6 1.83  23 1.87   5 2.04  14 2.13   7 2.15
  41  0.278  0.748  0.222-  12 1.90  26 1.93  11 1.95   3 2.01  10 2.28  16 2.43
  42  0.254  0.518  0.021-  11 1.84  25 1.97   4 2.03  15 2.06  12 2.11   9 2.12
  43  0.994  0.765  0.998-  28 1.83  14 1.83   1 1.86  10 1.87   9 1.94  12 2.04
  44  0.030  0.490  0.261-  11 1.56   2 1.93  13 2.00  27 2.12  10 2.20   9 2.25
  45  0.258  0.784  0.776-  12 1.71  30 1.89   7 2.00  16 2.02  14 2.07  15 2.10
  46  0.237  0.526  0.505-  13 1.91  16 1.97  11 2.06  15 2.09   8 2.18  29 2.33
  47  0.007  0.769  0.524-   5 1.82  14 1.96  32 1.97  16 1.97  13 2.15  10 2.35
  48  0.001  0.515  0.749-   9 1.90  13 1.93  31 1.95  14 1.96   6 2.12  15 2.12
  49  0.776  0.260  0.269-   2 1.80  24 1.84  18 1.98  20 2.06  19 2.09  27 2.13
  50  0.784  0.005  0.012-   1 1.75  28 1.79  19 1.85  23 2.00  17 2.04  20 2.12
  51  0.524  0.250  0.010-  20 1.85  22 1.90  18 2.00  17 2.00  25 2.15   4 2.21
  52  0.500  0.972  0.265-  26 1.71  21 1.91   3 2.11  17 2.19  19 2.22  18 2.35
  53  0.759  0.273  0.762-  31 1.74  22 1.89  23 1.95   6 1.98  20 2.01  24 2.14
  54  0.770  0.017  0.526-   5 1.90  23 1.93  24 1.93  32 2.04  21 2.12  19 2.27
  55  0.500  0.253  0.532-  21 1.85  22 1.94  29 1.99   8 2.05  18 2.20  24 2.38
  56  0.506  0.012  0.772-  30 1.75  17 1.80  22 1.94  23 2.01   7 2.03  21 2.20
  57  0.782  0.780  0.247-  10 1.71  19 1.77  28 1.86  27 2.05  26 2.16  32 2.18
  58  0.775  0.521  0.003-   9 1.75  27 1.92  31 1.97  20 2.04  28 2.10  25 2.23
  59  0.522  0.764  0.010-  30 1.77  17 1.90  28 1.97  25 2.00  26 2.04  12 2.20
  60  0.510  0.502  0.238-  18 1.93  25 1.97  26 2.07  27 2.08  29 2.10  11 2.30
  61  0.756  0.768  0.774-  28 1.94  14 1.97  32 2.06  23 2.10  30 2.13  31 2.23
  62  0.774  0.517  0.505-  13 1.82  32 1.98  29 1.99  31 2.05  24 2.11  27 2.11
  63  0.510  0.778  0.496-  26 1.86  21 1.97  32 2.02  16 2.08  29 2.25  30 2.38
  64  0.525  0.507  0.781-  25 1.71  31 1.89  22 2.04  15 2.09  29 2.25  30 2.32
 
  LATTYP: Found a simple cubic cell.
 ALAT       =     8.0143927500
  
  Lattice vectors:
  
 A1 = (   8.0143927500,   0.0000000000,   0.0000000000)
 A2 = (   0.0000000000,   8.0143927500,   0.0000000000)
 A3 = (   0.0000000000,   0.0000000000,   8.0143927500)


Analysis of symmetry for initial positions (statically):
=====================================================================
 Subroutine PRICEL returns:
 Original cell was already a primitive cell.
 

 Routine SETGRP: Setting up the symmetry group for a 
 simple cubic supercell.


 Subroutine GETGRP returns: Found  1 space group operations
 (whereof  1 operations were pure point group operations)
 out of a pool of 48 trial point group operations.


The static configuration has the point symmetry C_1 .


Analysis of symmetry for dynamics (positions and initial velocities):
=====================================================================
 Subroutine PRICEL returns:
 Original cell was already a primitive cell.
 

 Routine SETGRP: Setting up the symmetry group for a 
 simple cubic supercell.


 Subroutine GETGRP returns: Found  1 space group operations
 (whereof  1 operations were pure point group operations)
 out of a pool of 48 trial point group operations.


The dynamic configuration has the point symmetry C_1 .


Analysis of structural, dynamic, and magnetic symmetry:
=====================================================================
 Subroutine PRICEL returns:
 Original cell was already a primitive cell.
 

 Routine SETGRP: Setting up the symmetry group for a 
 simple cubic supercell.


 Subroutine GETGRP returns: Found  1 space group operations
 (whereof  1 operations were pure point group operations)
 out of a pool of 48 trial point group operations.


The magnetic configuration has the point symmetry C_1 .


 Subroutine INISYM returns: Found  1 space group operations
 (whereof  1 operations are pure point group operations),
 and found     1 'primitive' translations

 
 
 KPOINTS: Automatic mesh                          

Automatic generation of k-mesh.
Space group operators:
 irot       det(A)        alpha          n_x          n_y          n_z        tau_x        tau_y        tau_z
    1     1.000000     0.000000     1.000000     0.000000     0.000000     0.000000     0.000000     0.000000
 
 Subroutine IBZKPT returns following result:
 ===========================================
 
 Found     36 irreducible k-points:
 
 Following reciprocal coordinates:
            Coordinates               Weight
  0.000000  0.000000  0.000000      1.000000
  0.250000  0.000000  0.000000      2.000000
  0.500000  0.000000  0.000000      1.000000
  0.000000  0.250000  0.000000      2.000000
  0.250000  0.250000  0.000000      2.000000
  0.500000  0.250000  0.000000      2.000000
 -0.250000  0.250000  0.000000      2.000000
  0.000000  0.500000  0.000000      1.000000
  0.250000  0.500000  0.000000      2.000000
  0.500000  0.500000  0.000000      1.000000
  0.000000  0.000000  0.250000      2.000000
  0.250000  0.000000  0.250000      2.000000
  0.500000  0.000000  0.250000      2.000000
 -0.250000  0.000000  0.250000      2.000000
  0.000000  0.250000  0.250000      2.000000
  0.250000  0.250000  0.250000      2.000000
  0.500000  0.250000  0.250000      2.000000
 -0.250000  0.250000  0.250000      2.000000
  0.000000  0.500000  0.250000      2.000000
  0.250000  0.500000  0.250000      2.000000
  0.500000  0.500000  0.250000      2.000000
 -0.250000  0.500000  0.250000      2.000000
  0.000000 -0.250000  0.250000      2.000000
  0.250000 -0.250000  0.250000      2.000000
  0.500000 -0.250000  0.250000      2.000000
 -0.250000 -0.250000  0.250000      2.000000
  0.000000  0.000000  0.500000      1.000000
  0.250000  0.000000  0.500000      2.000000
  0.500000  0.000000  0.500000      1.000000
  0.000000  0.250000  0.500000      2.000000
  0.250000  0.250000  0.500000      2.000000
  0.500000  0.250000  0.500000      2.000000
 -0.250000  0.250000  0.500000      2.000000
  0.000000  0.500000  0.500000      1.000000
  0.250000  0.500000  0.500000      2.000000
  0.500000  0.500000  0.500000      1.000000
 
 Following cartesian coordinates:
            Coordinates               Weight
  0.000000  0.000000  0.000000      1.000000
  0.031194  0.000000  0.000000      2.000000
  0.062388  0.000000  0.000000      1.000000
  0.000000  0.031194  0.000000      2.000000
  0.031194  0.031194  0.000000      2.000000
  0.062388  0.031194  0.000000      2.000000
 -0.031194  0.031194  0.000000      2.000000
  0.000000  0.062388  0.000000      1.000000
  0.031194  0.062388  0.000000      2.000000
  0.062388  0.062388  0.000000      1.000000
  0.000000  0.000000  0.031194      2.000000
  0.031194  0.000000  0.031194      2.000000
  0.062388  0.000000  0.031194      2.000000
 -0.031194  0.000000  0.031194      2.000000
  0.000000  0.031194  0.031194      2.000000
  0.031194  0.031194  0.031194      2.000000
  0.062388  0.031194  0.031194      2.000000
 -0.031194  0.031194  0.031194      2.000000
  0.000000  0.062388  0.031194      2.000000
  0.031194  0.062388  0.031194      2.000000
  0.062388  0.062388  0.031194      2.000000
 -0.031194  0.062388  0.031194      2.000000
  0.000000 -0.031194  0.031194      2.000000
  0.031194 -0.031194  0.031194      2.000000
  0.062388 -0.031194  0.031194      2.000000
 -0.031194 -0.031194  0.031194      2.000000
  0.000000  0.000000  0.062388      1.000000
  0.031194  0.000000  0.062388      2.000000
  0.062388  0.000000  0.062388      1.000000
  0.000000  0.031194  0.062388      2.000000
  0.031194  0.031194  0.062388      2.000000
  0.062388  0.031194  0.062388      2.000000
 -0.031194  0.031194  0.062388      2.000000
  0.000000  0.062388  0.062388      1.000000
  0.031194  0.062388  0.062388      2.000000
  0.062388  0.062388  0.062388      1.000000
 


--------------------------------------------------------------------------------------------------------




 Dimension of arrays:
   k-points           NKPTS =     36   k-points in BZ     NKDIM =     36   number of bands    NBANDS=    352
   number of dos      NEDOS =    301   number of ions     NIONS =     64
   non local maximal  LDIM  =      6   non local SUM 2l+1 LMDIM =     18
   total plane-waves  NPLWV = 216000
   max r-space proj   IRMAX =   5683   max aug-charges    IRDMAX=  13799
   dimension x,y,z NGX =    60 NGY =   60 NGZ =   60
   dimension x,y,z NGXF=   120 NGYF=  120 NGZF=  120
   support grid    NGXF=   120 NGYF=  120 NGZF=  120
   ions per type =              32  32
   NGX,Y,Z   is equivalent  to a cutoff of  12.45, 12.45, 12.45 a.u.
   NGXF,Y,Z  is equivalent  to a cutoff of  24.89, 24.89, 24.89 a.u.

 SYSTEM =  unknown system                          
 POSCAR =  NiO_Fm-3m_scale_0_975_disp_0_10_round_1 

 Startparameter for this run:
   NWRITE =      1    write-flag & timer
   PREC   = accura    normal or accurate (medium, high low for compatibility)
   ISTART =      0    job   : 0-new  1-cont  2-samecut
   ICHARG =      2    charge: 1-file 2-atom 10-const
   ISPIN  =      2    spin polarized calculation?
   LNONCOLLINEAR =      F non collinear calculations
   LSORBIT =      F    spin-orbit coupling
   INIWAV =      1    electr: 0-lowe 1-rand  2-diag
   LASPH  =      F    aspherical Exc in radial PAW
   METAGGA=      F    non-selfconsistent MetaGGA calc.

 Electronic Relaxation 1
   ENCUT  =  500.0 eV  36.75 Ry    6.06 a.u.  14.61 14.61 14.61*2*pi/ulx,y,z
   ENINI  =  500.0     initial cutoff
   ENAUG  =  605.4 eV  augmentation charge cutoff
   NELM   =     80;   NELMIN=  2; NELMDL= -5     # of ELM steps 
   EDIFF  = 0.1E-04   stopping-criterion for ELM
   LREAL  =      T    real-space projection
   NLSPLINE    = F    spline interpolate recip. space projectors
   LCOMPAT=      F    compatible to vasp.4.4
   GGA_COMPAT  = T    GGA compatible to vasp.4.4-vasp.4.6
   LMAXPAW     = -100 max onsite density
   LMAXMIX     =    2 max onsite mixed and CHGCAR
   VOSKOWN=      1    Vosko Wilk Nusair interpolation
   ROPT   =   -0.00025  -0.00025
 Ionic relaxation
   EDIFFG = 0.1E-03   stopping-criterion for IOM
   NSW    =      0    number of steps for IOM
   NBLOCK =      1;   KBLOCK =      1    inner block; outer block 
   IBRION =     -1    ionic relax: 0-MD 1-quasi-New 2-CG
   NFREE  =      0    steps in history (QN), initial steepest desc. (CG)
   ISIF   =      2    stress and relaxation
   IWAVPR =     10    prediction:  0-non 1-charg 2-wave 3-comb
   ISYM   =      2    0-nonsym 1-usesym 2-fastsym
   LCORR  =      T    Harris-Foulkes like correction to forces

   POTIM  = 0.5000    time-step for ionic-motion
   TEIN   =    0.0    initial temperature
   TEBEG  =    0.0;   TEEND  =   0.0 temperature during run
   SMASS  =  -3.00    Nose mass-parameter (am)
   estimated Nose-frequenzy (Omega)   =  0.10E-29 period in steps =****** mass=  -0.147E-26a.u.
   SCALEE = 1.0000    scale energy and forces
   NPACO  =    256;   APACO  = 16.0  distance and # of slots for P.C.
   PSTRESS=    0.0 pullay stress

  Mass of Ions in am
   POMASS =  58.69 16.00
  Ionic Valenz
   ZVAL   =  10.00  6.00
  Atomic Wigner-Seitz radii
   RWIGS  =   1.15  0.73
  virtual crystal weights 
   VCA    =   1.00  1.00
   NELECT =     512.0000    total number of electrons
   NUPDOWN=      -1.0000    fix difference up-down

 DOS related values:
   EMIN   =  10.00;   EMAX   =-10.00  energy-range for DOS
   EFERMI =   0.00
   ISMEAR =     0;   SIGMA  =   0.05  broadening in eV -4-tet -1-fermi 0-gaus

 Electronic relaxation 2 (details)
   IALGO  =     38    algorithm
   LDIAG  =      T    sub-space diagonalisation (order eigenvalues)
   LSUBROT=      F    optimize rotation matrix (better conditioning)
   TURBO    =      0    0=normal 1=particle mesh
   IRESTART =      0    0=no restart 2=restart with 2 vectors
   NREBOOT  =      0    no. of reboots
   NMIN     =      0    reboot dimension
   EREF     =   0.00    reference energy to select bands
   IMIX   =      4    mixing-type and parameters
     AMIX     =   0.40;   BMIX     =  1.00
     AMIX_MAG =   1.60;   BMIX_MAG =  1.00
     AMIN     =   0.10
     WC   =   100.;   INIMIX=   1;  MIXPRE=   1;  MAXMIX= -45

 Intra band minimization:
   WEIMIN = 0.0000     energy-eigenvalue tresh-hold
   EBREAK =  0.71E-08  absolut break condition
   DEPER  =   0.30     relativ break condition  

   TIME   =   0.40     timestep for ELM

  volume/ion in A,a.u.               =       8.04        54.28
  Fermi-wavevector in a.u.,A,eV,Ry     =   1.634159  3.088112 36.334008  2.670474
  Thomas-Fermi vector in A             =   2.725844
 
 Write flags
   LWAVE        =      F    write WAVECAR
   LDOWNSAMPLE  =      F    k-point downsampling of WAVECAR
   LCHARG       =      T    write CHGCAR
   LVTOT        =      F    write LOCPOT, total local potential
   LVHAR        =      F    write LOCPOT, Hartree potential only
   LELF         =      F    write electronic localiz. function (ELF)
   LORBIT       =      0    0 simple, 1 ext, 2 COOP (PROOUT), +10 PAW based schemes


 Dipole corrections
   LMONO  =      F    monopole corrections only (constant potential shift)
   LDIPOL =      F    correct potential (dipole corrections)
   IDIPOL =      0    1-x, 2-y, 3-z, 4-all directions 
   EPSILON=  1.0000000 bulk dielectric constant

 Exchange correlation treatment:
   GGA     =    PS    GGA type
   LEXCH   =    14    internal setting for exchange type
   VOSKOWN=      1    Vosko Wilk Nusair interpolation
   LHFCALC =     F    Hartree Fock is set to
   LHFONE  =     F    Hartree Fock one center treatment
   AEXX    =    0.0000 exact exchange contribution

 Linear response parameters
   LEPSILON=     F    determine dielectric tensor
   LRPA    =     F    only Hartree local field effects (RPA)
   LNABLA  =     F    use nabla operator in PAW spheres
   LVEL    =     F    velocity operator in full k-point grid
   LINTERFAST=   F  fast interpolation
   KINTER  =     0    interpolate to denser k-point grid
   CSHIFT  =0.1000    complex shift for real part using Kramers Kronig
   OMEGAMAX=  -1.0    maximum frequency
   DEG_THRESHOLD= 0.2000000E-02 threshold for treating states as degnerate
   RTIME   =   -0.100 relaxation time in fs
  (WPLASMAI=    0.000 imaginary part of plasma frequency in eV, 0.658/RTIME)
   DFIELD  = 0.0000000 0.0000000 0.0000000 field for delta impulse in time
 
 Orbital magnetization related:
   ORBITALMAG=     F  switch on orbital magnetization
   LCHIMAG   =     F  perturbation theory with respect to B field
   DQ        =  0.001000  dq finite difference perturbation B field
   LLRAUG    =     F  two centre corrections for induced B field



--------------------------------------------------------------------------------------------------------


 Static calculation
 charge density and potential will be updated during run
 spin polarized calculation
 Variant of blocked Davidson
 Davidson routine will perform the subspace rotation
 perform sub-space diagonalisation
    after iterative eigenvector-optimisation
 modified Broyden-mixing scheme, WC =      100.0
 initial mixing is a Kerker type mixing with AMIX =  0.4000 and BMIX =      1.0000
 Hartree-type preconditioning will be used
 using additional bands           96
 real space projection scheme for non local part
 use partial core corrections
 calculate Harris-corrections to forces 
   (improved forces if not selfconsistent)
 use gradient corrections 
 use of overlap-Matrix (Vanderbilt PP)
 Gauss-broadening in eV      SIGMA  =   0.05


--------------------------------------------------------------------------------------------------------


  energy-cutoff  :      500.00
  volume of cell :      514.77
      direct lattice vectors                 reciprocal lattice vectors
     8.014392750  0.000000000  0.000000000     0.124775517  0.000000000  0.000000000
     0.000000000  8.014392750  0.000000000     0.000000000  0.124775517  0.000000000
     0.000000000  0.000000000  8.014392750     0.000000000  0.000000000  0.124775517

  length of vectors
     8.014392750  8.014392750  8.014392750     0.124775517  0.124775517  0.124775517


 
 k-points in units of 2pi/SCALE and weight: Automatic mesh                          
   0.00000000  0.00000000  0.00000000       0.016
   0.03119388  0.00000000  0.00000000       0.031
   0.06238776  0.00000000  0.00000000       0.016
   0.00000000  0.03119388  0.00000000       0.031
   0.03119388  0.03119388  0.00000000       0.031
   0.06238776  0.03119388  0.00000000       0.031
  -0.03119388  0.03119388  0.00000000       0.031
   0.00000000  0.06238776  0.00000000       0.016
   0.03119388  0.06238776  0.00000000       0.031
   0.06238776  0.06238776  0.00000000       0.016
   0.00000000  0.00000000  0.03119388       0.031
   0.03119388  0.00000000  0.03119388       0.031
   0.06238776  0.00000000  0.03119388       0.031
  -0.03119388  0.00000000  0.03119388       0.031
   0.00000000  0.03119388  0.03119388       0.031
   0.03119388  0.03119388  0.03119388       0.031
   0.06238776  0.03119388  0.03119388       0.031
  -0.03119388  0.03119388  0.03119388       0.031
   0.00000000  0.06238776  0.03119388       0.031
   0.03119388  0.06238776  0.03119388       0.031
   0.06238776  0.06238776  0.03119388       0.031
  -0.03119388  0.06238776  0.03119388       0.031
   0.00000000 -0.03119388  0.03119388       0.031
   0.03119388 -0.03119388  0.03119388       0.031
   0.06238776 -0.03119388  0.03119388       0.031
  -0.03119388 -0.03119388  0.03119388       0.031
   0.00000000  0.00000000  0.06238776       0.016
   0.03119388  0.00000000  0.06238776       0.031
   0.06238776  0.00000000  0.06238776       0.016
   0.00000000  0.03119388  0.06238776       0.031
   0.03119388  0.03119388  0.06238776       0.031
   0.06238776  0.03119388  0.06238776       0.031
  -0.03119388  0.03119388  0.06238776       0.031
   0.00000000  0.06238776  0.06238776       0.016
   0.03119388  0.06238776  0.06238776       0.031
   0.06238776  0.06238776  0.06238776       0.016
 
 k-points in reciprocal lattice and weights: Automatic mesh                          
   0.00000000  0.00000000  0.00000000       0.016
   0.25000000  0.00000000  0.00000000       0.031
   0.50000000  0.00000000  0.00000000       0.016
   0.00000000  0.25000000  0.00000000       0.031
   0.25000000  0.25000000  0.00000000       0.031
   0.50000000  0.25000000  0.00000000       0.031
  -0.25000000  0.25000000  0.00000000       0.031
   0.00000000  0.50000000  0.00000000       0.016
   0.25000000  0.50000000  0.00000000       0.031
   0.50000000  0.50000000  0.00000000       0.016
   0.00000000  0.00000000  0.25000000       0.031
   0.25000000  0.00000000  0.25000000       0.031
   0.50000000  0.00000000  0.25000000       0.031
  -0.25000000  0.00000000  0.25000000       0.031
   0.00000000  0.25000000  0.25000000       0.031
   0.25000000  0.25000000  0.25000000       0.031
   0.50000000  0.25000000  0.25000000       0.031
  -0.25000000  0.25000000  0.25000000       0.031
   0.00000000  0.50000000  0.25000000       0.031
   0.25000000  0.50000000  0.25000000       0.031
   0.50000000  0.50000000  0.25000000       0.031
  -0.25000000  0.50000000  0.25000000       0.031
   0.00000000 -0.25000000  0.25000000       0.031
   0.25000000 -0.25000000  0.25000000       0.031
   0.50000000 -0.25000000  0.25000000       0.031
  -0.25000000 -0.25000000  0.25000000       0.031
   0.00000000  0.00000000  0.50000000       0.016
   0.25000000  0.00000000  0.50000000       0.031
   0.50000000  0.00000000  0.50000000       0.016
   0.00000000  0.25000000  0.50000000       0.031
   0.25000000  0.25000000  0.50000000       0.031
   0.50000000  0.25000000  0.50000000       0.031
  -0.25000000  0.25000000  0.50000000       0.031
   0.00000000  0.50000000  0.50000000       0.016
   0.25000000  0.50000000  0.50000000       0.031
   0.50000000  0.50000000  0.50000000       0.016
 
 position of ions in fractional coordinates (direct lattice) 
   0.00001383  0.99638720  0.98607422
   0.99983925  0.25168923  0.25040687
   0.23747768  0.99387512  0.25340715
   0.24832546  0.26434462  0.02171240
   0.00644300  0.99556748  0.51542554
   0.00409777  0.25019363  0.74313052
   0.25537976  0.03063467  0.73588938
   0.24501477  0.25357393  0.51618091
   0.99203022  0.52311163  0.98489170
   0.99371873  0.76047258  0.23177619
   0.22327322  0.51210078  0.24822265
   0.24815378  0.77883035  0.98878262
   0.99971639  0.50084210  0.50804018
   0.00136667  0.75856043  0.76923353
   0.26469354  0.52217220  0.76341850
   0.25294849  0.76967372  0.52340424
   0.52988971  0.00031326  0.99506535
   0.52884652  0.26341362  0.25940144
   0.77521874  0.00077053  0.24305288
   0.75334423  0.26789055  0.01316280
   0.50780747  0.02421045  0.49729339
   0.52454080  0.25340556  0.77260978
   0.75556112  0.02996288  0.76573818
   0.79457019  0.25538785  0.49761504
   0.49728133  0.51662049  0.99253368
   0.51435607  0.75936306  0.26444448
   0.76848648  0.52421559  0.24280252
   0.76704906  0.78252284  0.01543760
   0.52663809  0.49788795  0.50000319
   0.49321667  0.79472211  0.79281315
   0.75926543  0.49005164  0.75954752
   0.76115036  0.76315003  0.51750289
   0.26011212  0.26523817  0.27915453
   0.26178520  0.01924949  0.98876121
   0.99828902  0.27260087  0.00842573
   0.00039876  0.01145621  0.26115808
   0.27051565  0.26941682  0.78549913
   0.27374658  0.99180908  0.51211856
   0.99376244  0.26185570  0.50813129
   0.98848245  0.02392259  0.76735536
   0.27754271  0.74805218  0.22155584
   0.25358845  0.51777945  0.02070904
   0.99383925  0.76453799  0.99788206
   0.03015957  0.49025061  0.26064952
   0.25844408  0.78431143  0.77550100
   0.23664803  0.52558547  0.50467245
   0.00670101  0.76913124  0.52435956
   0.00058156  0.51459257  0.74859712
   0.77597224  0.26026661  0.26852423
   0.78363890  0.00527312  0.01246768
   0.52384468  0.24979467  0.01015841
   0.50009486  0.97182273  0.26489443
   0.75916300  0.27285619  0.76201078
   0.77025458  0.01741755  0.52631972
   0.50013632  0.25276683  0.53227749
   0.50600402  0.01198582  0.77186616
   0.78195533  0.77997004  0.24727128
   0.77472370  0.52088181  0.00326803
   0.52164483  0.76378242  0.00990492
   0.50956945  0.50234361  0.23794713
   0.75630395  0.76755973  0.77403312
   0.77365278  0.51709579  0.50536766
   0.51046789  0.77796911  0.49627998
   0.52451233  0.50719701  0.78084898
 
 position of ions in cartesian coordinates  (Angst):
   0.00011084  7.98543835  7.90278608
   8.01310444  2.01713634  2.00685900
   1.90323940  7.96530556  2.03090443
   1.99017777  2.11856161  0.17401170
   0.05163673  7.97886879  4.13082271
   0.03284114  2.00515001  5.95573985
   2.04671370  0.24551828  5.89770651
   1.96364460  2.03224107  4.13687654
   7.95051980  4.19242205  7.89330890
   7.96405219  6.09472593  1.85754542
   1.78939928  4.10417678  1.98935381
   1.98880186  6.24185231  7.92449226
   8.01211979  4.01394530  4.07163354
   0.01095303  6.07940121  6.16493963
   2.12135799  4.18489309  6.11833569
   2.02722854  6.16846748  4.19476715
   4.24674425  0.00251059  7.97484453
   4.23838372  2.11110021  2.07894502
   6.21290745  0.00617533  1.94792124
   6.03759654  2.14698008  0.10549185
   4.06976851  0.19403205  3.98550454
   4.20387598  2.03089168  6.19199822
   6.05536356  0.24013429  6.13692652
   6.36799757  2.04677853  3.98808237
   3.98540789  4.14039951  7.95455473
   4.12225156  6.08583380  2.11936192
   6.15895247  4.20126962  1.94591476
   6.14743243  6.27144538  0.12372299
   4.22068449  3.99026958  4.00722194
   3.95283210  6.36921512  6.35391596
   6.08505136  3.92746631  6.08731214
   6.10015793  6.11618407  4.14747141
   2.08464069  2.12572287  2.23725404
   2.09804941  0.15427297  7.92432067
   8.00068028  2.18473044  0.06752711
   0.00319582  0.09181457  2.09302342
   2.16801866  2.15921221  6.29529853
   2.19391261  7.94874750  4.10431927
   7.96440249  2.09861442  4.07236373
   7.92208658  0.19172503  6.14988723
   2.22433628  5.99518397  1.77563552
   2.03235744  4.14968787  0.16597038
   7.96501808  6.12730772  7.99741875
   0.24171064  3.92906093  2.08894762
   2.07127236  6.28577984  6.21516959
   1.89659026  4.21224838  4.04464322
   0.05370453  6.16411983  4.20242346
   0.00466085  4.12414696  5.99955133
   6.21894629  2.08587883  2.15205864
   6.28038992  0.04226085  0.09992088
   4.19829701  2.00195259  0.08141349
   4.00795662  7.78856904  2.12296800
   6.08423044  2.18677667  6.10705367
   6.17312272  0.13959109  4.21813295
   4.00828890  2.02577265  4.26588086
   4.05531495  0.09605907  6.18603856
   6.26689713  6.25098623  1.98172915
   6.20894000  4.17455140  0.02619128
   4.18066654  6.12125229  0.07938192
   4.08388971  4.02597899  1.90700175
   6.06131689  6.15152514  6.20340543
   6.20035723  4.14420875  4.05021491
   4.09109016  6.23494999  3.97738267
   4.20364781  4.06487604  6.25803040
 


--------------------------------------------------------------------------------------------------------


 k-point  1 :   0.0000 0.0000 0.0000  plane waves:   13133
 k-point  2 :   0.2500 0.0000 0.0000  plane waves:   13089
 k-point  3 :   0.5000 0.0000 0.0000  plane waves:   13062
 k-point  4 :   0.0000 0.2500 0.0000  plane waves:   13089
 k-point  5 :   0.2500 0.2500 0.0000  plane waves:   13065
 k-point  6 :   0.5000 0.2500 0.0000  plane waves:   13058
 k-point  7 :  -0.2500 0.2500 0.0000  plane waves:   13065
 k-point  8 :   0.0000 0.5000 0.0000  plane waves:   13062
 k-point  9 :   0.2500 0.5000 0.0000  plane waves:   13058
 k-point 10 :   0.5000 0.5000 0.0000  plane waves:   13176
 k-point 11 :   0.0000 0.0000 0.2500  plane waves:   13089
 k-point 12 :   0.2500 0.0000 0.2500  plane waves:   13065
 k-point 13 :   0.5000 0.0000 0.2500  plane waves:   13058
 k-point 14 :  -0.2500 0.0000 0.2500  plane waves:   13065
 k-point 15 :   0.0000 0.2500 0.2500  plane waves:   13065
 k-point 16 :   0.2500 0.2500 0.2500  plane waves:   13052
 k-point 17 :   0.5000 0.2500 0.2500  plane waves:   13072
 k-point 18 :  -0.2500 0.2500 0.2500  plane waves:   13052
 k-point 19 :   0.0000 0.5000 0.2500  plane waves:   13058
 k-point 20 :   0.2500 0.5000 0.2500  plane waves:   13072
 k-point 21 :   0.5000 0.5000 0.2500  plane waves:   13060
 k-point 22 :  -0.2500 0.5000 0.2500  plane waves:   13072
 k-point 23 :   0.0000-0.2500 0.2500  plane waves:   13065
 k-point 24 :   0.2500-0.2500 0.2500  plane waves:   13052
 k-point 25 :   0.5000-0.2500 0.2500  plane waves:   13072
 k-point 26 :  -0.2500-0.2500 0.2500  plane waves:   13052
 k-point 27 :   0.0000 0.0000 0.5000  plane waves:   13062
 k-point 28 :   0.2500 0.0000 0.5000  plane waves:   13058
 k-point 29 :   0.5000 0.0000 0.5000  plane waves:   13176
 k-point 30 :   0.0000 0.2500 0.5000  plane waves:   13058
 k-point 31 :   0.2500 0.2500 0.5000  plane waves:   13072
 k-point 32 :   0.5000 0.2500 0.5000  plane waves:   13060
 k-point 33 :  -0.2500 0.2500 0.5000  plane waves:   13072
 k-point 34 :   0.0000 0.5000 0.5000  plane waves:   13176
 k-point 35 :   0.2500 0.5000 0.5000  plane waves:   13060
 k-point 36 :   0.5000 0.5000 0.5000  plane waves:   13096

 maximum and minimum number of plane-waves per node :     13176    13052

 maximum number of plane-waves:     13176
 maximum index in each direction: 
   IXMAX=   14   IYMAX=   14   IZMAX=   14
   IXMIN=  -15   IYMIN=  -15   IZMIN=  -15

 The following grids will avoid any aliasing or wrap around errors in the Hartre
 e energy
  - symmetry arguments have not been applied
  - exchange correlation energies might require even more grid points
  - we recommend to set PREC=Normal or Accurate and rely on VASP defaults
 NGX is ok and might be reduce to    60
 NGY is ok and might be reduce to    60
 NGZ is ok and might be reduce to    60

 serial   3D FFT for wavefunctions
 parallel 3D FFT for charge:
    minimum data exchange during FFTs selected (reduces bandwidth)


 total amount of memory used by VASP MPI-rank0   457648. kBytes
=======================================================================

   base      :      30000. kBytes
   nonlr-proj:      38952. kBytes
   fftplans  :       4751. kBytes
   grid      :      26734. kBytes
   one-center:       1990. kBytes
   wavefun   :     355221. kBytes
 
     INWAV:  cpu time    0.0000: real time    0.0000
 Broyden mixing: mesh for mixing (old mesh)
   NGX = 29   NGY = 29   NGZ = 29
  (NGX  =120   NGY  =120   NGZ  =120)
  gives a total of  24389 points

 initial charge density was supplied:
 charge density of overlapping atoms calculated
 number of electron     512.0000000 magnetization      80.0000000
 keeping initial charge density in first step


--------------------------------------------------------------------------------------------------------


 Maximum index for non-local projection operator         5494
 Maximum index for augmentation-charges         1193 (set IRDMAX)


--------------------------------------------------------------------------------------------------------


 First call to EWALD:  gamma=   0.221
 Maximum number of real-space cells 3x 3x 3
 Maximum number of reciprocal cells 3x 3x 3

    FEWALD:  cpu time    0.0029: real time    0.0029


--------------------------------------- Iteration      1(   1)  ---------------------------------------


    POTLOK:  cpu time    0.1390: real time    0.1830
    SETDIJ:  cpu time    0.0249: real time    0.0250
     EDDAV:  cpu time  136.0085: real time  136.3309
    --------------------------------------------
      LOOP:  cpu time  136.1769: real time  136.5434

 eigenvalue-minimisations  : 50688
 total energy-change (2. order) : 0.6511719E+04  (-0.2040362E+05)
 number of electron     512.0000000 magnetization      80.0000000
 augmentation part      512.0000000 magnetization      80.0000000

 Free energy of the ion-electron system (eV)
  ---------------------------------------------------
  alpha Z        PSCENC =      2360.30907921
  Ewald energy   TEWEN  =    -42619.54307842
  -Hartree energ DENC   =    -10328.86781432
  -exchange      EXHF   =         0.00000000
  -V(xc)+E(xc)   XCENC  =      1976.18745732
  PAW double counting   =     41846.49563633   -44035.77946198
  entropy T*S    EENTRO =        -0.01061950
  eigenvalues    EBANDS =      9065.84662628
  atomic energy  EATOM  =     48247.08154143
  Solvation  Ediel_sol  =         0.00000000
  ---------------------------------------------------
  free energy    TOTEN  =      6511.71936635 eV

  energy without entropy =     6511.72998586  energy(sigma->0) =     6511.72467610


--------------------------------------------------------------------------------------------------------




--------------------------------------- Iteration      1(   2)  ---------------------------------------


     EDDAV:  cpu time  136.3744: real time  136.6975
    --------------------------------------------
      LOOP:  cpu time  136.3741: real time  136.6973

 eigenvalue-minimisations  : 50688
 total energy-change (2. order) :-0.5509853E+04  (-0.4972218E+04)
 number of electron     512.0000000 magnetization      80.0000000
 augmentation part      512.0000000 magnetization      80.0000000

 Free energy of the ion-electron system (eV)
  ---------------------------------------------------
  alpha Z        PSCENC =      2360.30907921
  Ewald energy   TEWEN  =    -42619.54307842
  -Hartree energ DENC   =    -10328.86781432
  -exchange      EXHF   =         0.00000000
  -V(xc)+E(xc)   XCENC  =      1976.18745732
  PAW double counting   =     41846.49563633   -44035.77946198
  entropy T*S    EENTRO =        -0.02790383
  eigenvalues    EBANDS =      3556.01083920
  atomic energy  EATOM  =     48247.08154143
  Solvation  Ediel_sol  =         0.00000000
  ---------------------------------------------------
  free energy    TOTEN  =      1001.86629495 eV

  energy without entropy =     1001.89419878  energy(sigma->0) =     1001.88024687


--------------------------------------------------------------------------------------------------------




--------------------------------------- Iteration      1(   3)  ---------------------------------------


     EDDAV:  cpu time  139.4984: real time  139.8288
    --------------------------------------------
      LOOP:  cpu time  139.4992: real time  139.8296

 eigenvalue-minimisations  : 51552
 total energy-change (2. order) :-0.1300462E+04  (-0.1160209E+04)
 number of electron     512.0000000 magnetization      80.0000000
 augmentation part      512.0000000 magnetization      80.0000000

 Free energy of the ion-electron system (eV)
  ---------------------------------------------------
  alpha Z        PSCENC =      2360.30907921
  Ewald energy   TEWEN  =    -42619.54307842
  -Hartree energ DENC   =    -10328.86781432
  -exchange      EXHF   =         0.00000000
  -V(xc)+E(xc)   XCENC  =      1976.18745732
  PAW double counting   =     41846.49563633   -44035.77946198
  entropy T*S    EENTRO =        -0.10234756
  eigenvalues    EBANDS =      2255.62353284
  atomic energy  EATOM  =     48247.08154143
  Solvation  Ediel_sol  =         0.00000000
  ---------------------------------------------------
  free energy    TOTEN  =      -298.59545514 eV

  energy without entropy =     -298.49310758  energy(sigma->0) =     -298.54428136


--------------------------------------------------------------------------------------------------------




--------------------------------------- Iteration      1(   4)  ---------------------------------------


     EDDAV:  cpu time  154.5987: real time  154.9648
    --------------------------------------------
      LOOP:  cpu time  154.5987: real time  154.9647

 eigenvalue-minimisations  : 58608
 total energy-change (2. order) :-0.1491750E+03  (-0.1418535E+03)
 number of electron     512.0000000 magnetization      80.0000000
 augmentation part      512.0000000 magnetization      80.0000000

 Free energy of the ion-electron system (eV)
  ---------------------------------------------------
  alpha Z        PSCENC =      2360.30907921
  Ewald energy   TEWEN  =    -42619.54307842
  -Hartree energ DENC   =    -10328.86781432
  -exchange      EXHF   =         0.00000000
  -V(xc)+E(xc)   XCENC  =      1976.18745732
  PAW double counting   =     41846.49563633   -44035.77946198
  entropy T*S    EENTRO =        -0.10355805
  eigenvalues    EBANDS =      2106.44975450
  atomic energy  EATOM  =     48247.08154143
  Solvation  Ediel_sol  =         0.00000000
  ---------------------------------------------------
  free energy    TOTEN  =      -447.77044397 eV

  energy without entropy =     -447.66688592  energy(sigma->0) =     -447.71866495


--------------------------------------------------------------------------------------------------------




--------------------------------------- Iteration      1(   5)  ---------------------------------------


     EDDAV:  cpu time  151.7050: real time  152.0644
    CHARGE:  cpu time    4.1482: real time    4.1581
    MIXING:  cpu time    0.0031: real time    0.0031
    --------------------------------------------
      LOOP:  cpu time  155.8514: real time  156.2206

 eigenvalue-minimisations  : 57744
 total energy-change (2. order) :-0.4099165E+01  (-0.4054845E+01)
 number of electron     511.9999969 magnetization      70.5173136
 augmentation part      207.3798048 magnetization      55.6403264

 Broyden mixing:
  rms(total) = 0.11225E+02    rms(broyden)= 0.11221E+02
  rms(prec ) = 0.13259E+02
  weight for this iteration     100.00

 Free energy of the ion-electron system (eV)
  ---------------------------------------------------
  alpha Z        PSCENC =      2360.30907921
  Ewald energy   TEWEN  =    -42619.54307842
  -Hartree energ DENC   =    -10328.86781432
  -exchange      EXHF   =         0.00000000
  -V(xc)+E(xc)   XCENC  =      1976.18745732
  PAW double counting   =     41846.49563633   -44035.77946198
  entropy T*S    EENTRO =        -0.10284561
  eigenvalues    EBANDS =      2102.34987722
  atomic energy  EATOM  =     48247.08154143
  Solvation  Ediel_sol  =         0.00000000
  ---------------------------------------------------
  free energy    TOTEN  =      -451.86960881 eV

  energy without entropy =     -451.76676320  energy(sigma->0) =     -451.81818600


--------------------------------------------------------------------------------------------------------




--------------------------------------- Iteration      1(   6)  ---------------------------------------


    POTLOK:  cpu time    0.1253: real time    0.1256
    SETDIJ:  cpu time    0.0254: real time    0.0254
     EDDAV:  cpu time  191.7307: real time  192.1849
    CHARGE:  cpu time    4.0414: real time    4.0510
    MIXING:  cpu time    0.0031: real time    0.0031
    --------------------------------------------
      LOOP:  cpu time  195.9259: real time  196.3901

 eigenvalue-minimisations  : 74208
 total energy-change (2. order) : 0.2542898E+02  (-0.4229890E+02)
 number of electron     511.9999987 magnetization      59.1870694
 augmentation part      229.6706377 magnetization      51.5927522

 Broyden mixing:
  rms(total) = 0.12997E+02    rms(broyden)= 0.12996E+02
  rms(prec ) = 0.15388E+02
  weight for this iteration     100.00

 eigenvalues of (default mixing * dielectric matrix)
  average eigenvalue GAMMA=   0.3277
  0.3277

 Free energy of the ion-electron system (eV)
  ---------------------------------------------------
  alpha Z        PSCENC =      2360.30907921
  Ewald energy   TEWEN  =    -42619.54307842
  -Hartree energ DENC   =     -9984.41304691
  -exchange      EXHF   =         0.00000000
  -V(xc)+E(xc)   XCENC  =      1971.89843503
  PAW double counting   =     46598.70977752   -48638.87731615
  entropy T*S    EENTRO =        -0.04113678
  eigenvalues    EBANDS =      1638.43511376
  atomic energy  EATOM  =     48247.08154143
  Solvation  Ediel_sol  =         0.00000000
  ---------------------------------------------------
  free energy    TOTEN  =      -426.44063130 eV

  energy without entropy =     -426.39949452  energy(sigma->0) =     -426.42006291


--------------------------------------------------------------------------------------------------------




--------------------------------------- Iteration      1(   7)  ---------------------------------------


    POTLOK:  cpu time    0.1253: real time    0.1256
    SETDIJ:  cpu time    0.0253: real time    0.0254
     EDDAV:  cpu time  160.2459: real time  160.6255
    CHARGE:  cpu time    4.0937: real time    4.1035
    MIXING:  cpu time    0.0038: real time    0.0038
    --------------------------------------------
      LOOP:  cpu time  164.4941: real time  164.8838

 eigenvalue-minimisations  : 60160
 total energy-change (2. order) : 0.3109543E+01  (-0.2706637E+02)
 number of electron     511.9999928 magnetization      52.3143375
 augmentation part      220.8142757 magnetization      43.4831888

 Broyden mixing:
  rms(total) = 0.12586E+02    rms(broyden)= 0.12584E+02
  rms(prec ) = 0.17526E+02
  weight for this iteration     100.00

 eigenvalues of (default mixing * dielectric matrix)
  average eigenvalue GAMMA=   0.3568
  0.3857  0.3279

 Free energy of the ion-electron system (eV)
  ---------------------------------------------------
  alpha Z        PSCENC =      2360.30907921
  Ewald energy   TEWEN  =    -42619.54307842
  -Hartree energ DENC   =    -10064.48160704
  -exchange      EXHF   =         0.00000000
  -V(xc)+E(xc)   XCENC  =      1962.65585163
  PAW double counting   =     48513.89565323   -50671.10501136
  entropy T*S    EENTRO =        -0.07389128
  eigenvalues    EBANDS =      1847.93037458
  atomic energy  EATOM  =     48247.08154143
  Solvation  Ediel_sol  =         0.00000000
  ---------------------------------------------------
  free energy    TOTEN  =      -423.33108803 eV

  energy without entropy =     -423.25719675  energy(sigma->0) =     -423.29414239


--------------------------------------------------------------------------------------------------------




--------------------------------------- Iteration      1(   8)  ---------------------------------------


    POTLOK:  cpu time    0.1182: real time    0.1185
    SETDIJ:  cpu time    0.0252: real time    0.0253
     EDDAV:  cpu time  167.9954: real time  168.3934
    CHARGE:  cpu time    4.0166: real time    4.0262
    MIXING:  cpu time    0.0033: real time    0.0033
    --------------------------------------------
      LOOP:  cpu time  172.1587: real time  172.5666

 eigenvalue-minimisations  : 63744
 total energy-change (2. order) : 0.1398623E+02  (-0.1036729E+02)
 number of electron     511.9999997 magnetization      43.9275821
 augmentation part      219.4239357 magnetization      36.7912692

 Broyden mixing:
  rms(total) = 0.82647E+01    rms(broyden)= 0.82611E+01
  rms(prec ) = 0.11652E+02
  weight for this iteration     100.00

 eigenvalues of (default mixing * dielectric matrix)
  average eigenvalue GAMMA=   0.4831
  0.6496  0.6496  0.1501

 Free energy of the ion-electron system (eV)
  ---------------------------------------------------
  alpha Z        PSCENC =      2360.30907921
  Ewald energy   TEWEN  =    -42619.54307842
  -Hartree energ DENC   =    -10114.73742403
  -exchange      EXHF   =         0.00000000
  -V(xc)+E(xc)   XCENC  =      1959.85394158
  PAW double counting   =     49905.48714243   -52119.09569064
  entropy T*S    EENTRO =        -0.07041993
  eigenvalues    EBANDS =      1971.37004804
  atomic energy  EATOM  =     48247.08154143
  Solvation  Ediel_sol  =         0.00000000
  ---------------------------------------------------
  free energy    TOTEN  =      -409.34486033 eV

  energy without entropy =     -409.27444040  energy(sigma->0) =     -409.30965036


--------------------------------------------------------------------------------------------------------




--------------------------------------- Iteration      1(   9)  ---------------------------------------


    POTLOK:  cpu time    0.1251: real time    0.1254
    SETDIJ:  cpu time    0.0253: real time    0.0254
     EDDAV:  cpu time  173.1068: real time  173.5169
    CHARGE:  cpu time    3.9822: real time    3.9917
    MIXING:  cpu time    0.0032: real time    0.0032
    --------------------------------------------
      LOOP:  cpu time  177.2424: real time  177.6624

 eigenvalue-minimisations  : 66208
 total energy-change (2. order) :-0.3051275E+02  (-0.1176600E+02)
 number of electron     511.9999965 magnetization      32.0155516
 augmentation part      218.4654957 magnetization      25.9357060

 Broyden mixing:
  rms(total) = 0.12013E+02    rms(broyden)= 0.12010E+02
  rms(prec ) = 0.19345E+02
  weight for this iteration     100.00

 eigenvalues of (default mixing * dielectric matrix)
  average eigenvalue GAMMA=   0.5129
  1.1091  0.6377  0.1717  0.1331

 Free energy of the ion-electron system (eV)
  ---------------------------------------------------
  alpha Z        PSCENC =      2360.30907921
  Ewald energy   TEWEN  =    -42619.54307842
  -Hartree energ DENC   =    -10099.27778643
  -exchange      EXHF   =         0.00000000
  -V(xc)+E(xc)   XCENC  =      1957.31755421
  PAW double counting   =     51401.49431475   -53651.07327559
  entropy T*S    EENTRO =        -0.06181403
  eigenvalues    EBANDS =      1963.89585860
  atomic energy  EATOM  =     48247.08154143
  Solvation  Ediel_sol  =         0.00000000
  ---------------------------------------------------
  free energy    TOTEN  =      -439.85760627 eV

  energy without entropy =     -439.79579223  energy(sigma->0) =     -439.82669925


--------------------------------------------------------------------------------------------------------




--------------------------------------- Iteration      1(  10)  ---------------------------------------


    POTLOK:  cpu time    0.1248: real time    0.1251
    SETDIJ:  cpu time    0.0255: real time    0.0256
     EDDAV:  cpu time  174.1313: real time  174.5436
    CHARGE:  cpu time    4.1808: real time    4.1908
    MIXING:  cpu time    0.0038: real time    0.0038
    --------------------------------------------
      LOOP:  cpu time  178.4662: real time  178.8888

 eigenvalue-minimisations  : 65936
 total energy-change (2. order) : 0.2377124E+02  (-0.1206118E+02)
 number of electron     511.9999975 magnetization      25.3490709
 augmentation part      218.9661625 magnetization      20.0871370

 Broyden mixing:
  rms(total) = 0.82290E+01    rms(broyden)= 0.82254E+01
  rms(prec ) = 0.12760E+02
  weight for this iteration     100.00

 eigenvalues of (default mixing * dielectric matrix)
  average eigenvalue GAMMA=   0.5435
  1.5086  0.6198  0.3377  0.1256  0.1256

 Free energy of the ion-electron system (eV)
  ---------------------------------------------------
  alpha Z        PSCENC =      2360.30907921
  Ewald energy   TEWEN  =    -42619.54307842
  -Hartree energ DENC   =    -10060.55453488
  -exchange      EXHF   =         0.00000000
  -V(xc)+E(xc)   XCENC  =      1954.76452832
  PAW double counting   =     53499.66540702   -55787.53912017
  entropy T*S    EENTRO =        -0.06573691
  eigenvalues    EBANDS =      1989.79555095
  atomic energy  EATOM  =     48247.08154143
  Solvation  Ediel_sol  =         0.00000000
  ---------------------------------------------------
  free energy    TOTEN  =      -416.08636344 eV

  energy without entropy =     -416.02062653  energy(sigma->0) =     -416.05349498


--------------------------------------------------------------------------------------------------------




--------------------------------------- Iteration      1(  11)  ---------------------------------------


    POTLOK:  cpu time    0.1266: real time    0.1269
    SETDIJ:  cpu time    0.0265: real time    0.0265
     EDDAV:  cpu time  167.8316: real time  168.2292
    CHARGE:  cpu time    4.0907: real time    4.1004
    MIXING:  cpu time    0.0046: real time    0.0046
    --------------------------------------------
      LOOP:  cpu time  172.0799: real time  172.4876

 eigenvalue-minimisations  : 62896
 total energy-change (2. order) : 0.2522312E+01  (-0.1381420E+02)
 number of electron     511.9999940 magnetization      19.9842250
 augmentation part      218.4723489 magnetization      15.2938745

 Broyden mixing:
  rms(total) = 0.93925E+01    rms(broyden)= 0.93896E+01
  rms(prec ) = 0.15525E+02
  weight for this iteration     100.00

 eigenvalues of (default mixing * dielectric matrix)
  average eigenvalue GAMMA=   0.5439
  1.8280  0.5710  0.4784  0.1404  0.1404  0.1048

 Free energy of the ion-electron system (eV)
  ---------------------------------------------------
  alpha Z        PSCENC =      2360.30907921
  Ewald energy   TEWEN  =    -42619.54307842
  -Hartree energ DENC   =    -10043.07464956
  -exchange      EXHF   =         0.00000000
  -V(xc)+E(xc)   XCENC  =      1953.43093540
  PAW double counting   =     54607.70264816   -56915.55121484
  entropy T*S    EENTRO =        -0.07477102
  eigenvalues    EBANDS =      1996.15545842
  atomic energy  EATOM  =     48247.08154143
  Solvation  Ediel_sol  =         0.00000000
  ---------------------------------------------------
  free energy    TOTEN  =      -413.56405122 eV

  energy without entropy =     -413.48928019  energy(sigma->0) =     -413.52666571


--------------------------------------------------------------------------------------------------------




--------------------------------------- Iteration      1(  12)  ---------------------------------------


    POTLOK:  cpu time    0.1235: real time    0.1238
    SETDIJ:  cpu time    0.0249: real time    0.0249
     EDDAV:  cpu time  166.2823: real time  166.6761
    CHARGE:  cpu time    4.0734: real time    4.0831
    MIXING:  cpu time    0.0043: real time    0.0043
    --------------------------------------------
      LOOP:  cpu time  170.5083: real time  170.9122

 eigenvalue-minimisations  : 61840
 total energy-change (2. order) :-0.3807632E+01  (-0.1784327E+02)
 number of electron     511.9999962 magnetization      16.7301436
 augmentation part      218.4231386 magnetization      13.6451855

 Broyden mixing:
  rms(total) = 0.10332E+02    rms(broyden)= 0.10330E+02
  rms(prec ) = 0.17015E+02
  weight for this iteration     100.00

 eigenvalues of (default mixing * dielectric matrix)
  average eigenvalue GAMMA=   0.5089
  1.9755  0.5752  0.5012  0.1473  0.1473  0.1080  0.1080

 Free energy of the ion-electron system (eV)
  ---------------------------------------------------
  alpha Z        PSCENC =      2360.30907921
  Ewald energy   TEWEN  =    -42619.54307842
  -Hartree energ DENC   =    -10040.07664441
  -exchange      EXHF   =         0.00000000
  -V(xc)+E(xc)   XCENC  =      1952.40989532
  PAW double counting   =     55437.11634529   -57757.31216796
  entropy T*S    EENTRO =        -0.07359859
  eigenvalues    EBANDS =      2002.71694476
  atomic energy  EATOM  =     48247.08154143
  Solvation  Ediel_sol  =         0.00000000
  ---------------------------------------------------
  free energy    TOTEN  =      -417.37168336 eV

  energy without entropy =     -417.29808477  energy(sigma->0) =     -417.33488407


--------------------------------------------------------------------------------------------------------




--------------------------------------- Iteration      1(  13)  ---------------------------------------


    POTLOK:  cpu time    0.1250: real time    0.1253
    SETDIJ:  cpu time    0.0252: real time    0.0253
     EDDAV:  cpu time  174.7507: real time  175.1647
    CHARGE:  cpu time    4.0402: real time    4.0498
    MIXING:  cpu time    0.0045: real time    0.0045
    --------------------------------------------
      LOOP:  cpu time  178.9457: real time  179.3696

 eigenvalue-minimisations  : 67120
 total energy-change (2. order) : 0.2057490E+02  (-0.1160350E+02)
 number of electron     511.9999976 magnetization      14.6343426
 augmentation part      219.5660651 magnetization      11.6222101

 Broyden mixing:
  rms(total) = 0.63298E+01    rms(broyden)= 0.63282E+01
  rms(prec ) = 0.10106E+02
  weight for this iteration     100.00

 eigenvalues of (default mixing * dielectric matrix)
  average eigenvalue GAMMA=   0.4828
  2.0256  0.6253  0.3793  0.3793  0.1362  0.1362  0.0901  0.0901

 Free energy of the ion-electron system (eV)
  ---------------------------------------------------
  alpha Z        PSCENC =      2360.30907921
  Ewald energy   TEWEN  =    -42619.54307842
  -Hartree energ DENC   =    -10035.23829719
  -exchange      EXHF   =         0.00000000
  -V(xc)+E(xc)   XCENC  =      1951.91113956
  PAW double counting   =     55875.50636189   -58201.54943077
  entropy T*S    EENTRO =        -0.07199228
  eigenvalues    EBANDS =      2024.79789682
  atomic energy  EATOM  =     48247.08154143
  Solvation  Ediel_sol  =         0.00000000
  ---------------------------------------------------
  free energy    TOTEN  =      -396.79677975 eV

  energy without entropy =     -396.72478747  energy(sigma->0) =     -396.76078361


--------------------------------------------------------------------------------------------------------




--------------------------------------- Iteration      1(  14)  ---------------------------------------


    POTLOK:  cpu time    0.1252: real time    0.1255
    SETDIJ:  cpu time    0.0259: real time    0.0260
     EDDAV:  cpu time  166.7041: real time  167.0990
    CHARGE:  cpu time    4.0515: real time    4.0611
    MIXING:  cpu time    0.0040: real time    0.0040
    --------------------------------------------
      LOOP:  cpu time  170.9108: real time  171.3156

 eigenvalue-minimisations  : 63280
 total energy-change (2. order) : 0.7309267E+01  (-0.8644447E+01)
 number of electron     511.9999987 magnetization      14.4106851
 augmentation part      220.3272562 magnetization      11.8391666

 Broyden mixing:
  rms(total) = 0.37791E+01    rms(broyden)= 0.37754E+01
  rms(prec ) = 0.57283E+01
  weight for this iteration     100.00

 eigenvalues of (default mixing * dielectric matrix)
  average eigenvalue GAMMA=   0.4675
  1.9218  0.7322  0.4835  0.4835  0.1453  0.1453  0.1144  0.0907  0.0907

 Free energy of the ion-electron system (eV)
  ---------------------------------------------------
  alpha Z        PSCENC =      2360.30907921
  Ewald energy   TEWEN  =    -42619.54307842
  -Hartree energ DENC   =    -10029.63433483
  -exchange      EXHF   =         0.00000000
  -V(xc)+E(xc)   XCENC  =      1951.46811955
  PAW double counting   =     56105.45647508   -58433.74948899
  entropy T*S    EENTRO =        -0.05911784
  eigenvalues    EBANDS =      2029.18329236
  atomic energy  EATOM  =     48247.08154143
  Solvation  Ediel_sol  =         0.00000000
  ---------------------------------------------------
  free energy    TOTEN  =      -389.48751246 eV

  energy without entropy =     -389.42839461  energy(sigma->0) =     -389.45795354


--------------------------------------------------------------------------------------------------------




--------------------------------------- Iteration      1(  15)  ---------------------------------------


    POTLOK:  cpu time    0.1247: real time    0.1250
    SETDIJ:  cpu time    0.0254: real time    0.0255
     EDDAV:  cpu time  169.6596: real time  170.0615
    CHARGE:  cpu time    4.0476: real time    4.0572
    MIXING:  cpu time    0.0043: real time    0.0043
    --------------------------------------------
      LOOP:  cpu time  173.8616: real time  174.2735

 eigenvalue-minimisations  : 64672
 total energy-change (2. order) : 0.4395552E+01  (-0.1875309E+01)
 number of electron     511.9999980 magnetization      14.5739615
 augmentation part      220.1237436 magnetization      11.8685490

 Broyden mixing:
  rms(total) = 0.30193E+01    rms(broyden)= 0.30168E+01
  rms(prec ) = 0.46133E+01
  weight for this iteration     100.00

 eigenvalues of (default mixing * dielectric matrix)
  average eigenvalue GAMMA=   0.4384
  1.8493  0.7903  0.5042  0.5042  0.1480  0.1480  0.1441  0.0999  0.0999  0.0962

 Free energy of the ion-electron system (eV)
  ---------------------------------------------------
  alpha Z        PSCENC =      2360.30907921
  Ewald energy   TEWEN  =    -42619.54307842
  -Hartree energ DENC   =    -10029.26846493
  -exchange      EXHF   =         0.00000000
  -V(xc)+E(xc)   XCENC  =      1951.15430426
  PAW double counting   =     55973.55595609   -58297.97051925
  entropy T*S    EENTRO =        -0.07448455
  eigenvalues    EBANDS =      2029.66370569
  atomic energy  EATOM  =     48247.08154143
  Solvation  Ediel_sol  =         0.00000000
  ---------------------------------------------------
  free energy    TOTEN  =      -385.09196046 eV

  energy without entropy =     -385.01747591  energy(sigma->0) =     -385.05471819


--------------------------------------------------------------------------------------------------------




--------------------------------------- Iteration      1(  16)  ---------------------------------------


    POTLOK:  cpu time    0.1258: real time    0.1261
    SETDIJ:  cpu time    0.0252: real time    0.0252
     EDDAV:  cpu time  176.3602: real time  176.7779
    CHARGE:  cpu time    3.9249: real time    3.9342
    MIXING:  cpu time    0.0051: real time    0.0051
    --------------------------------------------
      LOOP:  cpu time  180.4412: real time  180.8686

 eigenvalue-minimisations  : 67568
 total energy-change (2. order) : 0.2485878E+01  (-0.9623726E+00)
 number of electron     511.9999983 magnetization      14.3815149
 augmentation part      219.9822908 magnetization      12.1048560

 Broyden mixing:
  rms(total) = 0.21204E+01    rms(broyden)= 0.21185E+01
  rms(prec ) = 0.30386E+01
  weight for this iteration     100.00

 eigenvalues of (default mixing * dielectric matrix)
  average eigenvalue GAMMA=   0.4155
  1.7763  0.8505  0.4739  0.4739  0.2989  0.1496  0.1496  0.0978  0.0978  0.1012
  0.1012

 Free energy of the ion-electron system (eV)
  ---------------------------------------------------
  alpha Z        PSCENC =      2360.30907921
  Ewald energy   TEWEN  =    -42619.54307842
  -Hartree energ DENC   =    -10031.76761373
  -exchange      EXHF   =         0.00000000
  -V(xc)+E(xc)   XCENC  =      1950.92807589
  PAW double counting   =     55812.43082386   -58132.22502973
  entropy T*S    EENTRO =        -0.06411376
  eigenvalues    EBANDS =      2030.24423278
  atomic energy  EATOM  =     48247.08154143
  Solvation  Ediel_sol  =         0.00000000
  ---------------------------------------------------
  free energy    TOTEN  =      -382.60608248 eV

  energy without entropy =     -382.54196872  energy(sigma->0) =     -382.57402560


--------------------------------------------------------------------------------------------------------




--------------------------------------- Iteration      1(  17)  ---------------------------------------


    POTLOK:  cpu time    0.1257: real time    0.1260
    SETDIJ:  cpu time    0.0258: real time    0.0258
     EDDAV:  cpu time  169.1400: real time  169.5407
    CHARGE:  cpu time    3.9497: real time    3.9590
    MIXING:  cpu time    0.0049: real time    0.0049
    --------------------------------------------
      LOOP:  cpu time  173.2460: real time  173.6564

 eigenvalue-minimisations  : 64208
 total energy-change (2. order) : 0.4832036E+00  (-0.3974776E+00)
 number of electron     511.9999972 magnetization      14.0171588
 augmentation part      219.7530511 magnetization      11.5774706

 Broyden mixing:
  rms(total) = 0.17823E+01    rms(broyden)= 0.17810E+01
  rms(prec ) = 0.25724E+01
  weight for this iteration     100.00

 eigenvalues of (default mixing * dielectric matrix)
  average eigenvalue GAMMA=   0.3927
  1.7338  0.8727  0.4810  0.4810  0.3315  0.1551  0.1551  0.1176  0.1176  0.0925
  0.0925  0.0820

 Free energy of the ion-electron system (eV)
  ---------------------------------------------------
  alpha Z        PSCENC =      2360.30907921
  Ewald energy   TEWEN  =    -42619.54307842
  -Hartree energ DENC   =    -10032.84895872
  -exchange      EXHF   =         0.00000000
  -V(xc)+E(xc)   XCENC  =      1950.78760334
  PAW double counting   =     55738.37340138   -58054.68775806
  entropy T*S    EENTRO =        -0.06706308
  eigenvalues    EBANDS =      2028.47235401
  atomic energy  EATOM  =     48247.08154143
  Solvation  Ediel_sol  =         0.00000000
  ---------------------------------------------------
  free energy    TOTEN  =      -382.12287892 eV

  energy without entropy =     -382.05581583  energy(sigma->0) =     -382.08934738


--------------------------------------------------------------------------------------------------------




--------------------------------------- Iteration      1(  18)  ---------------------------------------


    POTLOK:  cpu time    0.1254: real time    0.1257
    SETDIJ:  cpu time    0.0253: real time    0.0253
     EDDAV:  cpu time  173.8813: real time  174.2931
    CHARGE:  cpu time    3.9257: real time    3.9350
    MIXING:  cpu time    0.0050: real time    0.0050
    --------------------------------------------
      LOOP:  cpu time  177.9626: real time  178.3841

 eigenvalue-minimisations  : 66416
 total energy-change (2. order) : 0.5234275E+00  (-0.2721130E+00)
 number of electron     511.9999978 magnetization      13.5319711
 augmentation part      219.6966400 magnetization      11.3042182

 Broyden mixing:
  rms(total) = 0.13140E+01    rms(broyden)= 0.13130E+01
  rms(prec ) = 0.17096E+01
  weight for this iteration     100.00

 eigenvalues of (default mixing * dielectric matrix)
  average eigenvalue GAMMA=   0.3827
  1.6971  0.8991  0.4408  0.4408  0.3569  0.3569  0.1437  0.1437  0.1241  0.0983
  0.0983  0.0951  0.0801

 Free energy of the ion-electron system (eV)
  ---------------------------------------------------
  alpha Z        PSCENC =      2360.30907921
  Ewald energy   TEWEN  =    -42619.54307842
  -Hartree energ DENC   =    -10033.20285383
  -exchange      EXHF   =         0.00000000
  -V(xc)+E(xc)   XCENC  =      1950.64976097
  PAW double counting   =     55695.60863890   -58008.10292299
  entropy T*S    EENTRO =        -0.06699244
  eigenvalues    EBANDS =      2025.66737573
  atomic energy  EATOM  =     48247.08154143
  Solvation  Ediel_sol  =         0.00000000
  ---------------------------------------------------
  free energy    TOTEN  =      -381.59945143 eV

  energy without entropy =     -381.53245899  energy(sigma->0) =     -381.56595521


--------------------------------------------------------------------------------------------------------




--------------------------------------- Iteration      1(  19)  ---------------------------------------


    POTLOK:  cpu time    0.1252: real time    0.1255
    SETDIJ:  cpu time    0.0254: real time    0.0255
     EDDAV:  cpu time  172.6344: real time  173.0434
    CHARGE:  cpu time    3.9671: real time    3.9765
    MIXING:  cpu time    0.0057: real time    0.0057
    --------------------------------------------
      LOOP:  cpu time  176.7577: real time  177.1765

 eigenvalue-minimisations  : 65808
 total energy-change (2. order) : 0.7661036E-01  (-0.1507146E+00)
 number of electron     511.9999975 magnetization      12.5165377
 augmentation part      219.6481735 magnetization      10.3243074

 Broyden mixing:
  rms(total) = 0.12316E+01    rms(broyden)= 0.12310E+01
  rms(prec ) = 0.15555E+01
  weight for this iteration     100.00

 eigenvalues of (default mixing * dielectric matrix)
  average eigenvalue GAMMA=   0.3886
  1.6951  0.8957  0.4960  0.4960  0.4760  0.4760  0.1489  0.1489  0.1388  0.0978
  0.0978  0.1016  0.1016  0.0709

 Free energy of the ion-electron system (eV)
  ---------------------------------------------------
  alpha Z        PSCENC =      2360.30907921
  Ewald energy   TEWEN  =    -42619.54307842
  -Hartree energ DENC   =    -10032.91192787
  -exchange      EXHF   =         0.00000000
  -V(xc)+E(xc)   XCENC  =      1950.56595138
  PAW double counting   =     55683.02912639   -57992.40121029
  entropy T*S    EENTRO =        -0.06885623
  eigenvalues    EBANDS =      2022.41653333
  atomic energy  EATOM  =     48247.08154143
  Solvation  Ediel_sol  =         0.00000000
  ---------------------------------------------------
  free energy    TOTEN  =      -381.52284107 eV

  energy without entropy =     -381.45398484  energy(sigma->0) =     -381.48841295


--------------------------------------------------------------------------------------------------------




--------------------------------------- Iteration      1(  20)  ---------------------------------------


    POTLOK:  cpu time    0.1247: real time    0.1249
    SETDIJ:  cpu time    0.0253: real time    0.0253
     EDDAV:  cpu time  172.5766: real time  172.9854
    CHARGE:  cpu time    3.9136: real time    3.9229
    MIXING:  cpu time    0.0052: real time    0.0052
    --------------------------------------------
      LOOP:  cpu time  176.6454: real time  177.0638

 eigenvalue-minimisations  : 65840
 total energy-change (2. order) :-0.3356813E+00  (-0.1445834E+00)
 number of electron     511.9999976 magnetization      11.0658117
 augmentation part      219.6415772 magnetization       9.1946897

 Broyden mixing:
  rms(total) = 0.13993E+01    rms(broyden)= 0.13985E+01
  rms(prec ) = 0.19696E+01
  weight for this iteration     100.00

 eigenvalues of (default mixing * dielectric matrix)
  average eigenvalue GAMMA=   0.4032
  1.7254  0.8717  0.6806  0.6806  0.4853  0.4853  0.2487  0.1457  0.1457  0.1138
  0.1138  0.0960  0.0960  0.0892  0.0707

 Free energy of the ion-electron system (eV)
  ---------------------------------------------------
  alpha Z        PSCENC =      2360.30907921
  Ewald energy   TEWEN  =    -42619.54307842
  -Hartree energ DENC   =    -10033.78964510
  -exchange      EXHF   =         0.00000000
  -V(xc)+E(xc)   XCENC  =      1950.50153602
  PAW double counting   =     55705.65790636   -58011.09323501
  entropy T*S    EENTRO =        -0.06318670
  eigenvalues    EBANDS =      2019.08055979
  atomic energy  EATOM  =     48247.08154143
  Solvation  Ediel_sol  =         0.00000000
  ---------------------------------------------------
  free energy    TOTEN  =      -381.85852241 eV

  energy without entropy =     -381.79533571  energy(sigma->0) =     -381.82692906


--------------------------------------------------------------------------------------------------------




--------------------------------------- Iteration      1(  21)  ---------------------------------------


    POTLOK:  cpu time    0.1272: real time    0.1275
    SETDIJ:  cpu time    0.0257: real time    0.0258
     EDDAV:  cpu time  171.6976: real time  172.1044
    CHARGE:  cpu time    4.0140: real time    4.0235
    MIXING:  cpu time    0.0056: real time    0.0057
    --------------------------------------------
      LOOP:  cpu time  175.8702: real time  176.2868

 eigenvalue-minimisations  : 65520
 total energy-change (2. order) :-0.2786589E+00  (-0.2297951E+00)
 number of electron     511.9999976 magnetization       8.5235506
 augmentation part      219.6814342 magnetization       6.8123574

 Broyden mixing:
  rms(total) = 0.13339E+01    rms(broyden)= 0.13327E+01
  rms(prec ) = 0.19788E+01
  weight for this iteration     100.00

 eigenvalues of (default mixing * dielectric matrix)
  average eigenvalue GAMMA=   0.4424
  1.7462  1.0365  1.0365  0.8661  0.4949  0.4949  0.4113  0.1466  0.1466  0.1332
  0.1197  0.0970  0.0970  0.0984  0.0845  0.0689

 Free energy of the ion-electron system (eV)
  ---------------------------------------------------
  alpha Z        PSCENC =      2360.30907921
  Ewald energy   TEWEN  =    -42619.54307842
  -Hartree energ DENC   =    -10033.89654209
  -exchange      EXHF   =         0.00000000
  -V(xc)+E(xc)   XCENC  =      1950.51568105
  PAW double counting   =     55785.55784894   -58088.00208591
  entropy T*S    EENTRO =        -0.06375606
  eigenvalues    EBANDS =      2015.90413053
  atomic energy  EATOM  =     48247.08154143
  Solvation  Ediel_sol  =         0.00000000
  ---------------------------------------------------
  free energy    TOTEN  =      -382.13718131 eV

  energy without entropy =     -382.07342526  energy(sigma->0) =     -382.10530329


--------------------------------------------------------------------------------------------------------




[...]
   0.126E+03 -.112E+03 -.207E+03   -.130E+03 0.115E+03 0.211E+03   0.214E+01 -.129E+01 0.436E-01   0.175E+00 0.145E+00 -.258E+00
   0.126E+03 0.415E+02 -.773E+02   -.129E+03 -.396E+02 0.765E+02   0.964E+00 -.260E+01 0.131E+01   0.191E-02 0.279E-01 -.623E-03
   0.194E+03 -.125E+03 -.179E+03   -.197E+03 0.127E+03 0.181E+03   -.142E+01 0.970E+00 0.511E+00   0.990E+00 -.140E+00 -.116E+00
   0.322E+02 -.306E+02 -.847E+02   -.317E+02 0.317E+02 0.847E+02   0.519E+00 -.114E+01 -.546E-01   0.275E+00 0.818E-02 0.226E+00
   -.442E+02 -.201E+02 0.420E+02   0.445E+02 0.191E+02 -.443E+02   0.936E+00 -.131E+00 0.276E+01   0.685E-01 0.231E+00 0.221E+00
   0.132E+03 -.897E+02 0.948E+02   -.136E+03 0.916E+02 -.968E+02   0.132E+01 -.927E+00 0.102E+01   0.737E-01 -.911E-02 0.134E-01
   0.990E+02 0.395E+02 0.104E+03   -.988E+02 -.412E+02 -.107E+03   -.136E+01 0.855E+00 0.298E+01   0.185E+00 -.469E+00 0.119E+00
   0.290E+03 -.404E+02 0.171E+02   -.298E+03 0.390E+02 -.177E+02   -.126E+01 0.186E+01 0.189E+01   -.154E-01 -.467E-01 -.370E+00
   0.317E+02 0.385E+02 -.105E+03   -.325E+02 -.378E+02 0.108E+03   0.129E+01 -.626E+00 0.111E+01   0.298E-01 -.131E+00 -.191E+00
   0.305E+02 0.162E+03 -.786E+02   -.338E+02 -.164E+03 0.794E+02   0.320E+01 -.217E+01 -.189E+01   0.179E+00 -.715E-01 -.173E-01
   0.106E+03 0.192E+02 -.109E+03   -.108E+03 -.203E+02 0.109E+03   0.163E+01 0.562E+00 0.105E+01   0.893E+00 0.151E+00 -.154E+00
   0.162E+03 0.159E+03 0.211E+02   -.168E+03 -.163E+03 -.246E+02   0.158E+01 0.185E+00 0.195E+01   0.127E+01 -.388E-01 -.936E-01
   0.141E+03 -.655E+02 -.603E+01   -.141E+03 0.648E+02 0.536E+01   -.758E+00 0.146E+01 0.750E+00   0.340E-01 -.189E+00 0.166E+00
   -.352E+02 0.219E+03 0.264E+03   0.370E+02 -.223E+03 -.267E+03   -.820E+00 -.425E+00 -.200E+00   0.337E-01 -.132E-01 -.700E-01
   0.103E+03 -.145E+03 0.105E+03   -.104E+03 0.148E+03 -.106E+03   0.119E+01 0.838E+00 0.626E-01   0.259E+00 0.485E+00 0.151E+00
   0.123E+03 0.519E+02 0.154E+02   -.126E+03 -.523E+02 -.135E+02   0.677E+00 0.554E+00 -.203E+01   0.927E+00 -.863E-03 0.177E+00
   -.104E+03 0.275E+02 0.512E+00   0.108E+03 -.281E+02 -.729E+00   -.383E+01 -.290E+00 -.708E+00   -.251E+00 0.193E-01 -.882E-01
   -.394E+02 -.717E+02 -.767E+02   0.437E+02 0.749E+02 0.766E+02   -.452E+01 -.282E+01 0.770E+00   -.286E+00 -.103E+00 -.273E-02
   -.667E+02 0.378E+01 0.132E+02   0.677E+02 -.540E+01 -.175E+02   -.827E+00 0.125E+01 0.259E+01   -.518E-01 0.140E+00 0.777E+00
   -.978E+02 -.101E+02 -.364E+02   0.101E+03 0.104E+02 0.368E+02   -.106E+01 0.399E+00 -.124E+00   -.112E+00 -.427E+00 -.152E+00
   -.130E+02 -.689E+02 0.344E+02   0.141E+02 0.726E+02 -.350E+02   -.142E+01 -.299E+01 -.728E+00   0.219E+00 0.237E-01 0.858E-01
   -.101E+02 -.369E+02 0.990E+02   0.111E+02 0.405E+02 -.106E+03   -.178E+01 -.167E+01 0.549E+01   -.305E+00 -.104E+00 0.241E-01
   -.153E+03 0.950E+01 0.367E+02   0.169E+03 -.120E+02 -.400E+02   -.779E+01 0.171E+01 0.393E+01   0.698E-01 -.498E-01 -.821E+00
   -.766E+02 0.214E+02 0.660E+02   0.797E+02 -.255E+02 -.723E+02   -.196E+01 0.408E+01 0.374E+01   -.806E-01 -.108E+01 0.162E+00
   -.594E+01 0.188E+02 -.105E+03   0.855E+01 -.208E+02 0.109E+03   -.309E+01 0.283E+01 -.300E+01   -.111E+01 -.101E+00 -.485E-01
   -.278E+02 0.257E+02 0.181E+02   0.277E+02 -.238E+02 -.196E+02   -.802E-01 -.229E+01 -.447E+00   -.487E+00 0.103E+00 0.311E-01
   -.989E+02 0.578E+02 -.270E+02   0.104E+03 -.611E+02 0.286E+02   -.319E+01 0.241E+01 -.157E+01   0.421E-01 -.131E+00 0.200E+00
   0.756E+02 -.312E+02 -.162E+02   -.929E+02 0.305E+02 0.154E+02   0.767E+01 0.740E-01 0.154E+01   -.132E+00 0.288E+00 -.282E+00
   -.115E+02 0.680E+02 0.119E+03   0.933E+01 -.676E+02 -.128E+03   0.179E+01 -.118E+01 0.575E+01   -.626E+00 -.628E-01 -.237E-02
   -.144E+03 0.907E+01 0.344E+01   0.150E+03 -.115E+02 -.502E+01   -.459E+01 0.188E+01 0.215E+01   -.191E+00 0.154E+00 -.605E-01
   -.298E+02 0.818E+02 0.771E+02   0.303E+02 -.902E+02 -.820E+02   -.410E+00 0.669E+01 0.447E+01   -.103E-01 -.432E-01 0.643E-01
   -.850E+02 0.211E+02 0.425E+02   0.888E+02 -.239E+02 -.456E+02   -.297E+01 0.884E+00 0.229E+01   -.602E-01 0.103E+01 0.287E+00
   0.117E+03 -.245E+02 0.430E+01   -.123E+03 0.263E+02 -.640E+01   0.331E+01 -.169E+01 0.857E+00   0.365E+00 -.918E-01 -.131E+00
   0.797E+02 -.114E+03 -.138E+02   -.851E+02 0.123E+03 0.119E+02   0.206E+01 -.609E+01 0.101E+01   0.366E+00 -.166E+00 0.397E-01
   0.119E+03 -.233E+02 -.911E+02   -.128E+03 0.247E+02 0.942E+02   0.765E+01 -.123E+01 -.225E+01   0.235E-01 -.128E-01 0.530E-01
   0.398E+02 -.135E+03 0.153E+02   -.420E+02 0.145E+03 -.195E+02   0.217E+01 -.661E+01 0.270E+01   0.773E-01 0.601E+00 -.928E-01
   0.250E+02 0.346E+01 0.449E+02   -.226E+02 -.792E+01 -.475E+02   -.174E+01 0.188E+01 0.227E+01   -.303E+00 -.580E-02 0.996E-01
   0.104E+03 0.398E+02 0.637E+02   -.109E+03 -.418E+02 -.670E+02   0.319E+01 0.142E+01 0.235E+01   0.246E+00 -.126E+00 -.674E-02
   0.157E+02 -.794E+02 0.661E+02   -.153E+02 0.827E+02 -.664E+02   -.330E+00 -.214E+01 -.193E+00   0.341E-01 0.125E+00 -.285E-01
   0.306E+02 -.387E+02 0.121E+03   -.336E+02 0.448E+02 -.131E+03   0.332E+01 -.364E+01 0.751E+01   0.957E-01 -.228E-01 0.368E-01
   0.118E+03 0.891E+02 -.153E+03   -.130E+03 -.942E+02 0.161E+03   0.698E+01 0.257E+01 -.664E+01   0.147E+01 0.391E-01 -.139E+00
   0.119E+03 0.446E+01 -.245E+02   -.130E+03 -.224E+01 0.233E+02   0.744E+01 -.231E+01 0.165E+01   0.535E+00 0.174E+00 -.530E-01
   0.447E+02 0.844E+02 -.881E+02   -.470E+02 -.906E+02 0.984E+02   0.268E+01 0.530E+01 -.700E+01   0.118E+00 0.126E-01 -.431E+00
   0.612E+02 -.799E-02 -.724E+02   -.673E+02 0.187E+01 0.720E+02   0.604E+01 -.237E+00 0.972E+00   -.306E-01 -.470E+00 0.372E-01
   0.923E+02 0.699E+02 0.111E+03   -.973E+02 -.729E+02 -.113E+03   0.372E+01 0.285E+01 0.144E+01   0.686E+00 0.387E-02 0.796E-01
   0.113E+03 -.341E+02 0.283E+02   -.117E+03 0.341E+02 -.289E+02   0.254E+01 -.116E+00 0.436E-02   0.154E+00 0.108E+00 0.176E-01
   0.188E+02 0.105E+03 -.757E+02   -.208E+02 -.107E+03 0.829E+02   0.214E+01 0.544E+00 -.637E+01   -.202E-01 -.853E-01 0.489E+00
   0.640E+02 -.610E+02 0.164E+03   -.654E+02 0.649E+02 -.175E+03   0.442E+00 -.372E+01 0.772E+01   0.852E-01 0.229E-01 -.816E-01
 -----------------------------------------------------------------------------------------------
   -.408E+02 -.160E+01 -.562E+02   -.142E-12 -.142E-13 0.512E-12   0.397E+02 0.216E+01 0.562E+02   0.100E+01 -.536E+00 -.413E-01
 
 
 POSITION                                       TOTAL-FORCE (eV/Angst)
 -----------------------------------------------------------------------------------
      0.00011      7.98544      7.90279         4.171932      2.459343      2.772292
      8.01310      2.01714      2.00686         2.666318      0.069782      0.190258
      1.90324      7.96531      2.03090         1.799027      0.571764      0.063556
      1.99018      2.11856      0.17401         0.793564     -0.305402      0.264094
      0.05164      7.97887      4.13082         1.035779      1.792549     -0.642502
      0.03284      2.00515      5.95574         1.255621      2.099395      1.633083
      2.04671      0.24552      5.89771        -0.087249      0.186766      2.295732
      1.96364      2.03224      4.13688         0.651013      0.778196      0.363265
      7.95052      4.19242      7.89331         3.782060     -1.073058      1.604743
      7.96405      6.09473      1.85755         4.736111     -1.245264      2.016195
      1.78940      4.10418      1.98935        10.584571      1.231104      1.300927
      1.98880      6.24185      7.92449         0.607499     -1.221737      3.588707
      8.01212      4.01395      4.07163         1.634969      1.642370     -0.341213
      0.01095      6.07940      6.16494         0.526924      0.437577     -2.148359
      2.12136      4.18489      6.11834        -0.035416     -0.336441     -0.834491
      2.02723      6.16847      4.19477         0.661842     -2.733138     -1.140359
      4.24674      0.00251      7.97484        -1.364922      1.740174      3.533826
      4.23838      2.11110      2.07895        -1.228023     -0.603166      0.554571
      6.21291      0.00618      1.94792        -3.087257      3.278536      2.522420
      6.03760      2.14698      0.10549         1.296253     -0.037228      0.156659
      4.06977      0.19403      3.98550         1.358903     -0.876883      0.693050
      4.20388      2.03089      6.19200        -1.900880      0.868738     -0.988822
      6.05536      0.24013      6.13693        -1.038814     -1.331121     -0.447330
      6.36800      2.04678      3.98808        -9.098599      0.427106      0.979453
      3.98541      4.14040      7.95455         0.504602     -0.104094      4.272624
      4.12225      6.08583      2.11936         0.113379     -3.888354     -1.107775
      6.15895      4.20127      1.94591        -0.404585     -0.302657      1.049681
      6.14743      6.27145      0.12372        -2.539961     -3.998319     -1.612602
      4.22068      3.99027      4.00722        -1.135839      0.580761      0.243832
      3.95283      6.36922      6.35392         1.052492     -3.719040     -4.026151
      6.08505      3.92747      6.08731        -0.201798      4.492711     -0.436610
      6.10016      6.11618      4.14747        -0.773627      0.171011      0.051160
      2.08464      2.12572      2.23725         0.314372     -0.868028     -1.013468
      2.09805      0.15427      7.92432        -0.492676      0.331612      0.657427
      8.00068      2.18473      0.06753         0.126881     -0.226846     -0.930124
      0.00320      0.09181      2.09302         1.806397      0.217700      0.124502
      2.16802      2.15921      6.29530        -0.106602      0.705157     -1.209361
      2.19391      7.94875      4.10432        -1.119970      1.853105     -1.709466
      7.96440      2.09861      4.07236         8.165068     -0.875751     -0.213502
      7.92209      0.19173      6.14989         1.020533     -1.159401     -2.402442
      2.22434      5.99518      1.77564        -1.588085      0.720885      0.988993
      2.03236      4.14969      0.16597        -0.719473     -0.311968     -1.918438
      7.96502      6.12731      7.99742         1.552769     -1.082744      0.241366
      0.24171      3.92906      2.08895        -9.829000     -0.294303      0.399414
      2.07127      6.28578      6.21517        -0.968365     -0.858020     -3.258985
      1.89659      4.21225      4.04464         1.331748     -0.370478      0.514395
      0.05370      6.16412      4.20242         0.057070     -1.722882     -0.322330
      0.00466      4.12415      5.99955         0.798665     -0.889749     -0.537514
      6.21895      2.08588      2.15206        -2.335358      0.038885     -1.371643
      6.28039      0.04226      0.09992        -3.018826      2.725894     -0.881029
      4.19830      2.00195      0.08141        -1.278852      0.077255      0.814426
      4.00796      7.78857      2.12297         0.082788      4.066287     -1.562166
      6.08423      2.18678      6.10705         0.387766     -2.586802     -0.289290
      6.17312      0.13959      4.21813        -1.471531     -0.769418     -0.914972
      4.00829      2.02577      4.26588         0.193826      1.226354     -0.591312
      4.05531      0.09606      6.18604         0.389575      2.386057     -2.596659
      6.26690      6.25099      1.98173        -3.733424     -2.448860      1.862442
      6.20894      4.17455      0.02619        -3.129389      0.089443      0.450570
      4.18067      6.12125      0.07938         0.494759     -0.974667      2.876863
      4.08389      4.02598      1.90700        -0.041201      1.159349      0.605659
      6.06132      6.15153      6.20341        -0.551708     -0.160429     -0.833421
      6.20036      4.14421      4.05021        -1.844085     -0.009870     -0.630288
      4.09109      6.23495      3.97738         0.133039     -1.225925      1.358895
      4.20365      4.06488      6.25803        -0.962597      0.186181     -4.132457
 -----------------------------------------------------------------------------------
    total drift:                               -0.005904      0.018037     -0.019279


--------------------------------------------------------------------------------------------------------



  FREE ENERGIE OF THE ION-ELECTRON SYSTEM (eV)
  ---------------------------------------------------
  free  energy   TOTEN  =      -383.8329852856 eV

  energy  without entropy=     -383.8103179812  energy(sigma->0) =     -383.82165163
 


--------------------------------------------------------------------------------------------------------


    POTLOK:  cpu time    0.1599: real time    0.1603


--------------------------------------------------------------------------------------------------------


     LOOP+:  cpu time14425.2679: real time14460.0141
    4ORBIT:  cpu time    0.0000: real time    0.0000

volume of typ            1:    39.6 %

volume of typ            2:    10.1 %
 
total charge     
 
# of ion       s       p       d       tot
------------------------------------------
    1        0.259   0.330   8.058   8.647
    2        0.244   0.304   8.004   8.552
    3        0.203   0.222   7.990   8.415
    4        0.213   0.244   7.976   8.434
    5        0.228   0.272   8.028   8.528
    6        0.227   0.272   8.071   8.571
    7        0.234   0.282   8.014   8.530
    8        0.204   0.227   8.000   8.431
    9        0.246   0.303   8.027   8.575
   10        0.234   0.277   8.061   8.572
   11        0.296   0.387   8.018   8.701
   12        0.254   0.323   8.041   8.617
   13        0.248   0.313   8.004   8.565
   14        0.232   0.282   8.016   8.531
   15        0.193   0.208   8.002   8.402
   16        0.228   0.268   8.001   8.497
   17        0.232   0.285   8.036   8.553
   18        0.195   0.213   8.012   8.420
   19        0.248   0.310   8.047   8.605
   20        0.226   0.270   8.024   8.521
   21        0.239   0.286   7.980   8.505
   22        0.239   0.301   8.002   8.542
   23        0.234   0.291   8.024   8.549
   24        0.274   0.354   8.075   8.704
   25        0.246   0.299   8.005   8.550
   26        0.259   0.322   8.021   8.602
   27        0.201   0.224   8.025   8.450
   28        0.266   0.357   8.050   8.674
   29        0.180   0.185   7.990   8.355
   30        0.251   0.315   8.064   8.629
   31        0.247   0.313   8.015   8.575
   32        0.207   0.234   7.995   8.436
   33        1.262   2.781   0.007   4.050
   34        1.265   2.786   0.008   4.058
   35        1.266   2.791   0.008   4.065
   36        1.257   2.833   0.012   4.102
   37        1.262   2.790   0.009   4.061
   38        1.256   2.841   0.013   4.110
   39        1.258   2.879   0.020   4.157
   40        1.261   2.848   0.015   4.124
   41        1.272   2.785   0.009   4.065
   42        1.264   2.804   0.010   4.078
   43        1.254   2.872   0.018   4.143
   44        1.270   2.852   0.018   4.141
   45        1.256   2.845   0.014   4.116
   46        1.261   2.783   0.007   4.051
   47        1.262   2.809   0.010   4.081
   48        1.262   2.815   0.011   4.088
   49        1.255   2.837   0.012   4.104
   50        1.258   2.873   0.017   4.149
   51        1.258   2.815   0.010   4.083
   52        1.268   2.804   0.011   4.082
   53        1.259   2.851   0.015   4.124
   54        1.262   2.808   0.010   4.080
   55        1.257   2.802   0.009   4.068
   56        1.258   2.850   0.016   4.124
   57        1.258   2.864   0.017   4.140
   58        1.263   2.827   0.012   4.103
   59        1.263   2.829   0.013   4.105
   60        1.259   2.783   0.007   4.049
   61        1.268   2.782   0.008   4.058
   62        1.254   2.821   0.010   4.086
   63        1.265   2.781   0.008   4.054
   64        1.260   2.825   0.012   4.096
--------------------------------------------------
tot          47.84   99.34  257.05  404.23
 
magnetization (x)
 
# of ion       s       p       d       tot
------------------------------------------
    1        0.003  -0.003  -0.960  -0.960
    2       -0.003  -0.004  -0.769  -0.776
    3        0.004   0.004  -1.152  -1.144
    4       -0.003  -0.003   1.156   1.150
    5       -0.005  -0.002   1.105   1.099
    6       -0.000  -0.001  -0.602  -0.604
    7       -0.001  -0.004   1.079   1.074
    8        0.004   0.003  -1.172  -1.164
    9       -0.003  -0.001   0.977   0.974
   10        0.003   0.006   0.763   0.772
   11        0.001   0.009   0.906   0.916
   12       -0.001   0.006  -0.825  -0.820
   13        0.001   0.005  -0.980  -0.974
   14        0.002   0.001   0.779   0.782
   15        0.006   0.006  -1.153  -1.141
   16        0.000  -0.003   1.041   1.038
   17       -0.003  -0.002   1.013   1.007
   18       -0.002  -0.004  -0.897  -0.903
   19       -0.004   0.003   1.062   1.061
   20        0.002   0.006  -1.046  -1.038
   21        0.001   0.002  -1.127  -1.124
   22       -0.003  -0.005   0.913   0.905
   23        0.004   0.006  -1.043  -1.034
   24       -0.002   0.010   0.936   0.944
   25       -0.003   0.002  -1.024  -1.025
   26       -0.002  -0.003   0.018   0.013
   27        0.006   0.005  -1.085  -1.075
   28       -0.003  -0.004   0.868   0.860
   29       -0.006  -0.002   1.195   1.187
   30        0.005  -0.006  -0.824  -0.825
   31       -0.004  -0.002   1.019   1.013
   32        0.004   0.005  -1.085  -1.076
   33       -0.004  -0.060  -0.000  -0.064
   34        0.001   0.002   0.000   0.003
   35       -0.001  -0.005  -0.000  -0.006
   36        0.005   0.052   0.000   0.057
   37        0.004   0.023   0.000   0.027
   38       -0.003  -0.024   0.000  -0.027
   39       -0.006  -0.040   0.000  -0.046
   40       -0.004  -0.036  -0.000  -0.041
   41       -0.002  -0.000  -0.000  -0.003
   42        0.001  -0.006   0.000  -0.005
   43        0.007   0.009   0.000   0.016
   44       -0.001   0.024   0.001   0.023
   45        0.005   0.007  -0.000   0.011
   46       -0.002  -0.028   0.000  -0.029
   47        0.003   0.058   0.000   0.061
   48        0.003   0.037   0.000   0.040
   49       -0.008  -0.028  -0.000  -0.036
   50        0.002   0.042  -0.000   0.044
   51        0.001  -0.020  -0.000  -0.019
   52       -0.003  -0.050  -0.000  -0.054
   53       -0.002  -0.018   0.000  -0.020
   54       -0.000   0.020   0.000   0.020
   55       -0.000  -0.022  -0.000  -0.023
   56        0.004   0.032  -0.000   0.036
   57        0.004   0.032   0.000   0.037
   58        0.003  -0.001   0.000   0.002
   59       -0.003  -0.032   0.000  -0.035
   60       -0.004  -0.040  -0.000  -0.045
   61        0.002  -0.014   0.000  -0.012
   62       -0.000   0.018  -0.000   0.018
   63       -0.001  -0.014   0.000  -0.016
   64        0.003   0.014  -0.000   0.016
--------------------------------------------------
tot          -0.00   -0.04   -0.91   -0.95
 

 total amount of memory used by VASP MPI-rank0   457648. kBytes
=======================================================================

   base      :      30000. kBytes
   nonlr-proj:      38952. kBytes
   fftplans  :       4751. kBytes
   grid      :      26734. kBytes
   one-center:       1990. kBytes
   wavefun   :     355221. kBytes
 
  
  
 General timing and accounting informations for this job:
 ========================================================
  
                  Total CPU time used (sec):    14515.723
                            User time (sec):    14497.228
                          System time (sec):       18.494
                         Elapsed time (sec):    14554.209
  
                   Maximum memory used (kb):      587660.
                   Average memory used (kb):           0.
  
                          Minor page faults:        45383
                          Major page faults:           19
                 Voluntary context switches:         1166
