 vasp.5.4.4.18Apr17-6-g9f103f2a35 (build May 12 2020 04:58:55) complex          
  
 MD_VERSION_INFO: Compiled 2020-05-12T11:58:55-UTC in devlin.sd.materialsdesign.
 com:/home/medea2/data/build/wwolf/vasp-gpu5.4.4/13047/x86_64/src/src/build/std 
 from svn 13047
 
 This VASP executable licensed from Materials Design, Inc.
 
 executed on                        Lin64 date 2023.03.23  23:56:13
 running on   16 total cores
 distrk:  each k-point on   16 cores,    1 groups
 distr:  one band on NCORES_PER_BAND=   1 cores,   16 groups


--------------------------------------------------------------------------------------------------------


 INCAR:
 POTCAR:    PAW_PBE Ni 02Aug2007                  
 POTCAR:    PAW_PBE O 08Apr2002                   

 ----------------------------------------------------------------------------- 
|                                                                             |
|           W    W    AA    RRRRR   N    N  II  N    N   GGGG   !!!           |
|           W    W   A  A   R    R  NN   N  II  NN   N  G    G  !!!           |
|           W    W  A    A  R    R  N N  N  II  N N  N  G       !!!           |
|           W WW W  AAAAAA  RRRRR   N  N N  II  N  N N  G  GGG   !            |
|           WW  WW  A    A  R   R   N   NN  II  N   NN  G    G                |
|           W    W  A    A  R    R  N    N  II  N    N   GGGG   !!!           |
|                                                                             |
|      For optimal performance we recommend to set                            |
|        NCORE= 4 - approx SQRT( number of cores)                             |
|      NCORE specifies how many cores store one orbital (NPAR=cpu/NCORE).     |
|      This setting can  greatly improve the performance of VASP for DFT.     |
|      The default,   NCORE=1            might be grossly inefficient         |
|      on modern multi-core architectures or massively parallel machines.     |
|      Do your own testing !!!!                                               |
|      Unfortunately you need to use the default for GW and RPA calculations. |
|      (for HF NCORE is supported but not extensively tested yet)             |
|                                                                             |
 ----------------------------------------------------------------------------- 

 POTCAR:    PAW_PBE Ni 02Aug2007                  
  local pseudopotential read in
  partial core-charges read in
  partial kinetic energy density read in
  atomic valenz-charges read in
  non local Contribution for L=           2  read in
    real space projection operators read in
  non local Contribution for L=           2  read in
    real space projection operators read in
  non local Contribution for L=           0  read in
    real space projection operators read in
  non local Contribution for L=           0  read in
    real space projection operators read in
  non local Contribution for L=           1  read in
    real space projection operators read in
  non local Contribution for L=           1  read in
    real space projection operators read in
    PAW grid and wavefunctions read in
 
   number of l-projection  operators is LMAX  =           6
   number of lm-projection operators is LMMAX =          18
 
 POTCAR:    PAW_PBE O 08Apr2002                   
  local pseudopotential read in
  partial core-charges read in
  partial kinetic energy density read in
  kinetic energy density of atom read in
  atomic valenz-charges read in
  non local Contribution for L=           0  read in
    real space projection operators read in
  non local Contribution for L=           0  read in
    real space projection operators read in
  non local Contribution for L=           1  read in
    real space projection operators read in
  non local Contribution for L=           1  read in
    real space projection operators read in
    PAW grid and wavefunctions read in
 
   number of l-projection  operators is LMAX  =           4
   number of lm-projection operators is LMMAX =           8
 
 Optimization of the real space projectors (new method)

 maximal supplied QI-value         = 16.25
 optimisation between [QCUT,QGAM] = [ 11.38, 22.75] = [ 36.24,144.96] Ry 
 Optimized for a Real-space Cutoff    1.47 Angstroem

   l    n(q)    QCUT    max X(q) W(low)/X(q) W(high)/X(q)  e(spline) 
   2      9    11.376    60.317    0.17E-03    0.16E-04    0.16E-06
   2      9    11.376    55.921    0.17E-03    0.16E-04    0.17E-06
   0     10    11.376    51.690    0.45E-04    0.60E-04    0.21E-06
   0     10    11.376    30.015    0.37E-04    0.55E-04    0.19E-06
   1     10    11.376    18.849    0.83E-04    0.11E-03    0.92E-07
   1     10    11.376    14.624    0.69E-04    0.92E-04    0.82E-07
 Optimization of the real space projectors (new method)

 maximal supplied QI-value         = 24.76
 optimisation between [QCUT,QGAM] = [ 11.39, 22.77] = [ 36.31,145.25] Ry 
 Optimized for a Real-space Cutoff    1.10 Angstroem

   l    n(q)    QCUT    max X(q) W(low)/X(q) W(high)/X(q)  e(spline) 
   0      7    11.387    20.381    0.22E-03    0.48E-03    0.18E-06
   0      7    11.387    15.268    0.22E-03    0.52E-03    0.19E-06
   1      7    11.387     5.964    0.22E-03    0.73E-03    0.24E-06
   1      7    11.387     5.382    0.19E-03    0.60E-03    0.21E-06

 ----------------------------------------------------------------------------- 
|                                                                             |
|  ADVICE TO THIS USER RUNNING 'VASP/VAMP'   (HEAR YOUR MASTER'S VOICE ...):  |
|                                                                             |
|      You enforced a specific xc-type in the INCAR file,                     |
|      a different type was found on the POTCAR file                          |
|          I HOPE YOU KNOW, WHAT YOU ARE  DOING                               |
|                                                                             |
 ----------------------------------------------------------------------------- 

  PAW_PBE Ni 02Aug2007                  :
 energy of atom  1       EATOM=-1077.6739
 kinetic energy error for atom=    0.0030 (will be added to EATOM!!)
  PAW_PBE O 08Apr2002                   :
 energy of atom  2       EATOM= -432.3788
 kinetic energy error for atom=    0.0224 (will be added to EATOM!!)
 
 
 POSCAR: NiO_Cmmm_scale_1_050_disp_0_20_round_2  
  positions in direct lattice
  No initial velocities read in
 exchange correlation table for  LEXCH =       14
   RHO(1)=    0.500       N(1)  =     2000
   RHO(2)=  100.500       N(2)  =     4000
 


--------------------------------------------------------------------------------------------------------


 ion  position               nearest neighbor table
   1  0.033  0.006  0.997-  30 2.03  28 2.25  10 2.64  13 2.75
   2  0.928  0.939  0.329-  28 1.55  29 1.85   8 2.62  26 2.80  20 2.85
   3  0.979  0.018  0.654-  30 1.78  29 1.81   6 2.60  21 2.91
   4  0.978  0.316  0.980-  31 1.99  33 2.20   7 3.03
   5  0.989  0.367  0.356-  32 1.43  31 2.21  17 2.61   8 3.02
   6  0.899  0.251  0.649-  33 1.53  32 1.94  24 2.25  21 2.43   3 2.60
   7  0.918  0.609  0.008-  34 1.55  36 2.52  25 2.56  22 2.84   4 3.03
   8  0.949  0.667  0.305-  34 1.71  35 1.88   2 2.62   5 3.02  26 3.08
   9  0.953  0.653  0.614-  35 1.47  36 1.83  24 2.92  27 3.02
  10  0.323  0.015  0.020-  37 1.67  39 2.44   1 2.64  22 2.65  19 2.68  13 2.78
  11  0.309  0.009  0.367-  38 1.06  37 2.10  14 2.86  23 2.88  12 2.89
  12  0.334  0.017  0.633-  39 1.78  38 1.84  11 2.89  15 2.97  24 3.00  21 3.09
  13  0.315  0.311  0.041-  40 1.48   1 2.75  14 2.76  10 2.78  16 2.83  22 2.85  25 2.92
  14  0.275  0.288  0.293-  40 1.31  41 2.00  13 2.76  11 2.86  17 3.06
  15  0.330  0.337  0.627-  41 1.72  42 1.72  27 2.55  18 2.85  12 2.97
  16  0.340  0.623  0.982-  43 2.06  45 2.11  13 2.83  25 2.85
  17  0.287  0.625  0.323-  43 1.71  44 1.96   5 2.61  26 2.86  14 3.06
  18  0.327  0.645  0.628-  44 1.53  45 1.78  27 2.75  15 2.85  21 3.02
  19  0.611  0.014  0.984-  46 1.72  48 1.75  22 2.61  10 2.68
  20  0.664  0.014  0.308-  46 1.88  47 1.90  23 2.68   2 2.85
  21  0.648  0.979  0.623-  47 1.53  48 2.22   6 2.43  24 2.84   3 2.91  18 3.02  12 3.09
  22  0.614  0.298  0.999-  49 1.45  51 1.88  19 2.61  10 2.65  25 2.78   7 2.84  13 2.85  23 3.07

  23  0.623  0.280  0.281-  49 1.64  50 2.34  20 2.68  11 2.88  22 3.07
  24  0.687  0.304  0.632-  50 1.65  51 2.15   6 2.25  21 2.84   9 2.92  12 3.00
  25  0.642  0.613  0.015-  52 1.42  54 2.26   7 2.56  22 2.78  16 2.85  13 2.92
  26  0.610  0.652  0.337-  53 1.69  52 2.20   2 2.80  17 2.86  27 2.93   8 3.08
  27  0.607  0.612  0.605-  53 1.33  54 2.27  15 2.55  18 2.75  26 2.93   9 3.02
  28  0.010  0.015  0.203-   2 1.55   1 2.25
  29  0.002  0.996  0.490-   3 1.81   2 1.85
  30  0.994  0.976  0.813-   3 1.78   1 2.03
  31  0.943  0.283  0.161-   4 1.99   5 2.21
  32  0.978  0.343  0.486-   5 1.43   6 1.94
  33  0.966  0.324  0.777-   6 1.53   4 2.20
  34  0.945  0.650  0.147-   7 1.55   8 1.71
  35  0.948  0.659  0.478-   9 1.47   8 1.88
  36  0.908  0.591  0.776-   9 1.83   7 2.52
  37  0.300  0.013  0.173-  10 1.67  11 2.10
  38  0.313  0.025  0.464-  11 1.06  12 1.84
  39  0.348  0.038  0.796-  12 1.78  10 2.44
  40  0.318  0.324  0.177-  14 1.31  13 1.48
  41  0.320  0.286  0.474-  15 1.72  14 2.00
  42  0.294  0.314  0.784-  15 1.72
  43  0.318  0.657  0.167-  17 1.71  16 2.06
  44  0.286  0.571  0.498-  18 1.53  17 1.96
  45  0.297  0.612  0.790-  18 1.78  16 2.11
  46  0.631  0.979  0.137-  19 1.72  20 1.88
  47  0.660  0.009  0.484-  21 1.53  20 1.90
  48  0.612  0.987  0.825-  19 1.75  21 2.22
  49  0.628  0.278  0.130-  22 1.45  23 1.64
  50  0.632  0.329  0.493-  24 1.65  23 2.34
  51  0.660  0.306  0.829-  22 1.88  24 2.15
  52  0.611  0.655  0.134-  25 1.42  26 2.20
  53  0.649  0.638  0.487-  27 1.33  26 1.69
  54  0.653  0.668  0.810-  25 2.26  27 2.27
 
  LATTYP: Found a hexagonal cell.
 ALAT       =     9.2132460023
 C/A-ratio  =     1.1769065427
  
  Lattice vectors:
  
 A1 = (   9.2132460000,   0.0000000000,   0.0000000000)
 A2 = (  -4.6066230000,   7.9789050900,   0.0000000000)
 A3 = (   0.0000000000,   0.0000000000,  10.8431295000)


Analysis of symmetry for initial positions (statically):
=====================================================================
 Subroutine PRICEL returns:
 Original cell was already a primitive cell.
 

 Routine SETGRP: Setting up the symmetry group for a 
 hexagonal supercell.


 Subroutine GETGRP returns: Found  1 space group operations
 (whereof  1 operations were pure point group operations)
 out of a pool of 24 trial point group operations.


The static configuration has the point symmetry C_1 .


Analysis of symmetry for dynamics (positions and initial velocities):
=====================================================================
 Subroutine PRICEL returns:
 Original cell was already a primitive cell.
 

 Routine SETGRP: Setting up the symmetry group for a 
 hexagonal supercell.


 Subroutine GETGRP returns: Found  1 space group operations
 (whereof  1 operations were pure point group operations)
 out of a pool of 24 trial point group operations.


The dynamic configuration has the point symmetry C_1 .


Analysis of structural, dynamic, and magnetic symmetry:
=====================================================================
 Subroutine PRICEL returns:
 Original cell was already a primitive cell.
 

 Routine SETGRP: Setting up the symmetry group for a 
 hexagonal supercell.


 Subroutine GETGRP returns: Found  1 space group operations
 (whereof  1 operations were pure point group operations)
 out of a pool of 24 trial point group operations.


The magnetic configuration has the point symmetry C_1 .


 Subroutine INISYM returns: Found  1 space group operations
 (whereof  1 operations are pure point group operations),
 and found     1 'primitive' translations

 
 
 KPOINTS: Automatic mesh                          

Automatic generation of k-mesh.
Space group operators:
 irot       det(A)        alpha          n_x          n_y          n_z        tau_x        tau_y        tau_z
    1     1.000000     0.000000     1.000000     0.000000     0.000000     0.000000     0.000000     0.000000
 
 Subroutine IBZKPT returns following result:
 ===========================================
 
 Found     26 irreducible k-points:
 
 Following reciprocal coordinates:
            Coordinates               Weight
  0.000000  0.000000  0.000000      1.000000
  0.250000 -0.000000  0.000000      2.000000
  0.500000 -0.000000  0.000000      1.000000
  0.000000  0.250000  0.000000      2.000000
  0.250000  0.250000  0.000000      2.000000
  0.500000  0.250000  0.000000      2.000000
 -0.250000  0.250000  0.000000      2.000000
  0.000000  0.500000  0.000000      1.000000
  0.250000  0.500000  0.000000      2.000000
  0.500000  0.500000  0.000000      1.000000
  0.000000  0.000000  0.333333      2.000000
  0.250000 -0.000000  0.333333      2.000000
  0.500000 -0.000000  0.333333      2.000000
 -0.250000  0.000000  0.333333      2.000000
  0.000000  0.250000  0.333333      2.000000
  0.250000  0.250000  0.333333      2.000000
  0.500000  0.250000  0.333333      2.000000
 -0.250000  0.250000  0.333333      2.000000
  0.000000  0.500000  0.333333      2.000000
  0.250000  0.500000  0.333333      2.000000
  0.500000  0.500000  0.333333      2.000000
 -0.250000  0.500000  0.333333      2.000000
  0.000000 -0.250000  0.333333      2.000000
  0.250000 -0.250000  0.333333      2.000000
  0.500000 -0.250000  0.333333      2.000000
 -0.250000 -0.250000  0.333333      2.000000
 
 Following cartesian coordinates:
            Coordinates               Weight
  0.000000  0.000000  0.000000      1.000000
  0.027135  0.015666  0.000000      2.000000
  0.054270  0.031333  0.000000      1.000000
  0.000000  0.031333  0.000000      2.000000
  0.027135  0.046999  0.000000      2.000000
  0.054270  0.062665  0.000000      2.000000
 -0.027135  0.015666  0.000000      2.000000
  0.000000  0.062665  0.000000      1.000000
  0.027135  0.078332  0.000000      2.000000
  0.054270  0.093998  0.000000      1.000000
  0.000000  0.000000  0.030741      2.000000
  0.027135  0.015666  0.030741      2.000000
  0.054270  0.031333  0.030741      2.000000
 -0.027135 -0.015666  0.030741      2.000000
  0.000000  0.031333  0.030741      2.000000
  0.027135  0.046999  0.030741      2.000000
  0.054270  0.062665  0.030741      2.000000
 -0.027135  0.015666  0.030741      2.000000
  0.000000  0.062665  0.030741      2.000000
  0.027135  0.078332  0.030741      2.000000
  0.054270  0.093998  0.030741      2.000000
 -0.027135  0.046999  0.030741      2.000000
  0.000000 -0.031333  0.030741      2.000000
  0.027135 -0.015666  0.030741      2.000000
  0.054270  0.000000  0.030741      2.000000
 -0.027135 -0.046999  0.030741      2.000000
 


--------------------------------------------------------------------------------------------------------




 Dimension of arrays:
   k-points           NKPTS =     26   k-points in BZ     NKDIM =     26   number of bands    NBANDS=    304
   number of dos      NEDOS =    301   number of ions     NIONS =     54
   non local maximal  LDIM  =      6   non local SUM 2l+1 LMDIM =     18
   total plane-waves  NPLWV = 392000
   max r-space proj   IRMAX =   6652   max aug-charges    IRDMAX=  16139
   dimension x,y,z NGX =    70 NGY =   70 NGZ =   80
   dimension x,y,z NGXF=   140 NGYF=  140 NGZF=  160
   support grid    NGXF=   140 NGYF=  140 NGZF=  160
   ions per type =              27  27
   NGX,Y,Z   is equivalent  to a cutoff of  12.63, 12.63, 12.27 a.u.
   NGXF,Y,Z  is equivalent  to a cutoff of  25.26, 25.26, 24.53 a.u.

 SYSTEM =  unknown system                          
 POSCAR =  NiO_Cmmm_scale_1_050_disp_0_20_round_2  

 Startparameter for this run:
   NWRITE =      1    write-flag & timer
   PREC   = accura    normal or accurate (medium, high low for compatibility)
   ISTART =      0    job   : 0-new  1-cont  2-samecut
   ICHARG =      2    charge: 1-file 2-atom 10-const
   ISPIN  =      2    spin polarized calculation?
   LNONCOLLINEAR =      F non collinear calculations
   LSORBIT =      F    spin-orbit coupling
   INIWAV =      1    electr: 0-lowe 1-rand  2-diag
   LASPH  =      F    aspherical Exc in radial PAW
   METAGGA=      F    non-selfconsistent MetaGGA calc.

 Electronic Relaxation 1
   ENCUT  =  500.0 eV  36.75 Ry    6.06 a.u.  16.80 16.80 19.77*2*pi/ulx,y,z
   ENINI  =  500.0     initial cutoff
   ENAUG  =  605.4 eV  augmentation charge cutoff
   NELM   =     80;   NELMIN=  2; NELMDL= -5     # of ELM steps 
   EDIFF  = 0.1E-04   stopping-criterion for ELM
   LREAL  =      T    real-space projection
   NLSPLINE    = F    spline interpolate recip. space projectors
   LCOMPAT=      F    compatible to vasp.4.4
   GGA_COMPAT  = T    GGA compatible to vasp.4.4-vasp.4.6
   LMAXPAW     = -100 max onsite density
   LMAXMIX     =    2 max onsite mixed and CHGCAR
   VOSKOWN=      1    Vosko Wilk Nusair interpolation
   ROPT   =   -0.00025  -0.00025
 Ionic relaxation
   EDIFFG = 0.1E-03   stopping-criterion for IOM
   NSW    =      0    number of steps for IOM
   NBLOCK =      1;   KBLOCK =      1    inner block; outer block 
   IBRION =     -1    ionic relax: 0-MD 1-quasi-New 2-CG
   NFREE  =      0    steps in history (QN), initial steepest desc. (CG)
   ISIF   =      2    stress and relaxation
   IWAVPR =     10    prediction:  0-non 1-charg 2-wave 3-comb
   ISYM   =      2    0-nonsym 1-usesym 2-fastsym
   LCORR  =      T    Harris-Foulkes like correction to forces

   POTIM  = 0.5000    time-step for ionic-motion
   TEIN   =    0.0    initial temperature
   TEBEG  =    0.0;   TEEND  =   0.0 temperature during run
   SMASS  =  -3.00    Nose mass-parameter (am)
   estimated Nose-frequenzy (Omega)   =  0.10E-29 period in steps =****** mass=  -0.194E-26a.u.
   SCALEE = 1.0000    scale energy and forces
   NPACO  =    256;   APACO  = 16.0  distance and # of slots for P.C.
   PSTRESS=    0.0 pullay stress

  Mass of Ions in am
   POMASS =  58.69 16.00
  Ionic Valenz
   ZVAL   =  10.00  6.00
  Atomic Wigner-Seitz radii
   RWIGS  =   1.15  0.73
  virtual crystal weights 
   VCA    =   1.00  1.00
   NELECT =     432.0000    total number of electrons
   NUPDOWN=      -1.0000    fix difference up-down

 DOS related values:
   EMIN   =  10.00;   EMAX   =-10.00  energy-range for DOS
   EFERMI =   0.00
   ISMEAR =     0;   SIGMA  =   0.05  broadening in eV -4-tet -1-fermi 0-gaus

 Electronic relaxation 2 (details)
   IALGO  =     38    algorithm
   LDIAG  =      T    sub-space diagonalisation (order eigenvalues)
   LSUBROT=      F    optimize rotation matrix (better conditioning)
   TURBO    =      0    0=normal 1=particle mesh
   IRESTART =      0    0=no restart 2=restart with 2 vectors
   NREBOOT  =      0    no. of reboots
   NMIN     =      0    reboot dimension
   EREF     =   0.00    reference energy to select bands
   IMIX   =      4    mixing-type and parameters
     AMIX     =   0.40;   BMIX     =  1.00
     AMIX_MAG =   1.60;   BMIX_MAG =  1.00
     AMIN     =   0.10
     WC   =   100.;   INIMIX=   1;  MIXPRE=   1;  MAXMIX= -45

 Intra band minimization:
   WEIMIN = 0.0000     energy-eigenvalue tresh-hold
   EBREAK =  0.82E-08  absolut break condition
   DEPER  =   0.30     relativ break condition  

   TIME   =   0.40     timestep for ELM

  volume/ion in A,a.u.               =      14.76        99.61
  Fermi-wavevector in a.u.,A,eV,Ry     =   1.334748  2.522308 24.239482  1.781552
  Thomas-Fermi vector in A             =   2.463505
 
 Write flags
   LWAVE        =      F    write WAVECAR
   LDOWNSAMPLE  =      F    k-point downsampling of WAVECAR
   LCHARG       =      T    write CHGCAR
   LVTOT        =      F    write LOCPOT, total local potential
   LVHAR        =      F    write LOCPOT, Hartree potential only
   LELF         =      F    write electronic localiz. function (ELF)
   LORBIT       =      0    0 simple, 1 ext, 2 COOP (PROOUT), +10 PAW based schemes


 Dipole corrections
   LMONO  =      F    monopole corrections only (constant potential shift)
   LDIPOL =      F    correct potential (dipole corrections)
   IDIPOL =      0    1-x, 2-y, 3-z, 4-all directions 
   EPSILON=  1.0000000 bulk dielectric constant

 Exchange correlation treatment:
   GGA     =    PS    GGA type
   LEXCH   =    14    internal setting for exchange type
   VOSKOWN=      1    Vosko Wilk Nusair interpolation
   LHFCALC =     F    Hartree Fock is set to
   LHFONE  =     F    Hartree Fock one center treatment
   AEXX    =    0.0000 exact exchange contribution

 Linear response parameters
   LEPSILON=     F    determine dielectric tensor
   LRPA    =     F    only Hartree local field effects (RPA)
   LNABLA  =     F    use nabla operator in PAW spheres
   LVEL    =     F    velocity operator in full k-point grid
   LINTERFAST=   F  fast interpolation
   KINTER  =     0    interpolate to denser k-point grid
   CSHIFT  =0.1000    complex shift for real part using Kramers Kronig
   OMEGAMAX=  -1.0    maximum frequency
   DEG_THRESHOLD= 0.2000000E-02 threshold for treating states as degnerate
   RTIME   =   -0.100 relaxation time in fs
  (WPLASMAI=    0.000 imaginary part of plasma frequency in eV, 0.658/RTIME)
   DFIELD  = 0.0000000 0.0000000 0.0000000 field for delta impulse in time
 
 Orbital magnetization related:
   ORBITALMAG=     F  switch on orbital magnetization
   LCHIMAG   =     F  perturbation theory with respect to B field
   DQ        =  0.001000  dq finite difference perturbation B field
   LLRAUG    =     F  two centre corrections for induced B field



--------------------------------------------------------------------------------------------------------


 Static calculation
 charge density and potential will be updated during run
 spin polarized calculation
 Variant of blocked Davidson
 Davidson routine will perform the subspace rotation
 perform sub-space diagonalisation
    after iterative eigenvector-optimisation
 modified Broyden-mixing scheme, WC =      100.0
 initial mixing is a Kerker type mixing with AMIX =  0.4000 and BMIX =      1.0000
 Hartree-type preconditioning will be used
 using additional bands           88
 real space projection scheme for non local part
 use partial core corrections
 calculate Harris-corrections to forces 
   (improved forces if not selfconsistent)
 use gradient corrections 
 use of overlap-Matrix (Vanderbilt PP)
 Gauss-broadening in eV      SIGMA  =   0.05


--------------------------------------------------------------------------------------------------------


  energy-cutoff  :      500.00
  volume of cell :      797.10
      direct lattice vectors                 reciprocal lattice vectors
     9.213246000  0.000000000  0.000000000     0.108539379  0.062665240  0.000000000
    -4.606623000  7.978905090  0.000000000     0.000000000  0.125330479  0.000000000
     0.000000000  0.000000000 10.843129500     0.000000000  0.000000000  0.092224297

  length of vectors
     9.213246000  9.213246002 10.843129500     0.125330479  0.125330479  0.092224297


 
 k-points in units of 2pi/SCALE and weight: Automatic mesh                          
   0.00000000  0.00000000  0.00000000       0.021
   0.02713484  0.01566631  0.00000000       0.042
   0.05426969  0.03133262  0.00000000       0.021
   0.00000000  0.03133262  0.00000000       0.042
   0.02713484  0.04699893  0.00000000       0.042
   0.05426969  0.06266524  0.00000000       0.042
  -0.02713484  0.01566631  0.00000000       0.042
   0.00000000  0.06266524  0.00000000       0.021
   0.02713484  0.07833155  0.00000000       0.042
   0.05426969  0.09399786  0.00000000       0.021
   0.00000000  0.00000000  0.03074143       0.042
   0.02713484  0.01566631  0.03074143       0.042
   0.05426969  0.03133262  0.03074143       0.042
  -0.02713484 -0.01566631  0.03074143       0.042
   0.00000000  0.03133262  0.03074143       0.042
   0.02713484  0.04699893  0.03074143       0.042
   0.05426969  0.06266524  0.03074143       0.042
  -0.02713484  0.01566631  0.03074143       0.042
   0.00000000  0.06266524  0.03074143       0.042
   0.02713484  0.07833155  0.03074143       0.042
   0.05426969  0.09399786  0.03074143       0.042
  -0.02713484  0.04699893  0.03074143       0.042
   0.00000000 -0.03133262  0.03074143       0.042
   0.02713484 -0.01566631  0.03074143       0.042
   0.05426969  0.00000000  0.03074143       0.042
  -0.02713484 -0.04699893  0.03074143       0.042
 
 k-points in reciprocal lattice and weights: Automatic mesh                          
   0.00000000  0.00000000  0.00000000       0.021
   0.25000000 -0.00000000  0.00000000       0.042
   0.50000000 -0.00000000  0.00000000       0.021
   0.00000000  0.25000000  0.00000000       0.042
   0.25000000  0.25000000  0.00000000       0.042
   0.50000000  0.25000000  0.00000000       0.042
  -0.25000000  0.25000000  0.00000000       0.042
   0.00000000  0.50000000  0.00000000       0.021
   0.25000000  0.50000000  0.00000000       0.042
   0.50000000  0.50000000  0.00000000       0.021
   0.00000000  0.00000000  0.33333333       0.042
   0.25000000 -0.00000000  0.33333333       0.042
   0.50000000 -0.00000000  0.33333333       0.042
  -0.25000000  0.00000000  0.33333333       0.042
   0.00000000  0.25000000  0.33333333       0.042
   0.25000000  0.25000000  0.33333333       0.042
   0.50000000  0.25000000  0.33333333       0.042
  -0.25000000  0.25000000  0.33333333       0.042
   0.00000000  0.50000000  0.33333333       0.042
   0.25000000  0.50000000  0.33333333       0.042
   0.50000000  0.50000000  0.33333333       0.042
  -0.25000000  0.50000000  0.33333333       0.042
   0.00000000 -0.25000000  0.33333333       0.042
   0.25000000 -0.25000000  0.33333333       0.042
   0.50000000 -0.25000000  0.33333333       0.042
  -0.25000000 -0.25000000  0.33333333       0.042
 
 position of ions in fractional coordinates (direct lattice) 
   0.03326740  0.00554264  0.99731946
   0.92803285  0.93927670  0.32937795
   0.97932383  0.01758932  0.65435223
   0.97819907  0.31616173  0.97955808
   0.98907764  0.36653723  0.35551860
   0.89896398  0.25074297  0.64943586
   0.91819902  0.60892428  0.00750305
   0.94927944  0.66729031  0.30458696
   0.95300974  0.65349336  0.61351793
   0.32329901  0.01530858  0.02034620
   0.30891055  0.00853447  0.36720248
   0.33362472  0.01679937  0.63280103
   0.31509760  0.31137218  0.04072250
   0.27471567  0.28792859  0.29349627
   0.32976170  0.33704018  0.62715381
   0.33993389  0.62266066  0.98189884
   0.28743099  0.62491621  0.32298812
   0.32730476  0.64490479  0.62836197
   0.61092389  0.01444444  0.98448407
   0.66427420  0.01382104  0.30848914
   0.64787818  0.97897021  0.62298878
   0.61384105  0.29828054  0.99856713
   0.62341696  0.27984122  0.28067545
   0.68730782  0.30436690  0.63243028
   0.64201790  0.61299781  0.01466192
   0.60982438  0.65188620  0.33680015
   0.60686148  0.61153342  0.60539243
   0.01026976  0.01519073  0.20342099
   0.00241006  0.99607181  0.49043075
   0.99369134  0.97566447  0.81297565
   0.94250575  0.28332305  0.16083198
   0.97753881  0.34254848  0.48610962
   0.96644090  0.32396236  0.77717141
   0.94542075  0.65003465  0.14739418
   0.94826002  0.65874635  0.47801421
   0.90767036  0.59096077  0.77571185
   0.29983609  0.01301947  0.17334064
   0.31336019  0.02486148  0.46438947
   0.34812260  0.03824362  0.79580149
   0.31842338  0.32396413  0.17720259
   0.31995055  0.28577502  0.47356048
   0.29383222  0.31448808  0.78386606
   0.31796630  0.65728650  0.16719659
   0.28637833  0.57095604  0.49838889
   0.29701332  0.61228910  0.79037960
   0.63087124  0.97907015  0.13742174
   0.65977572  0.00905955  0.48377488
   0.61193771  0.98719728  0.82464474
   0.62797571  0.27796369  0.12952360
   0.63165212  0.32914671  0.49257053
   0.65969254  0.30575679  0.82931378
   0.61069567  0.65454347  0.13370751
   0.64948658  0.63760438  0.48710686
   0.65326976  0.66785261  0.81036750
 
 position of ions in cartesian coordinates  (Angst):
   0.28096789  0.04422420 10.81406406
   4.22330129  7.49439964  3.57148777
   8.94172399  0.14034351  7.09522597
   7.55595077  2.52262444 10.62147511
   7.42411678  2.92456577  3.85493422
   7.12729796  2.00065436  7.04191713
   5.65450885  4.85854904  0.08135654
   5.67199011  5.32424605  3.30267585
   5.76991563  5.21416150  6.65245437
   2.90811245  0.12214571  0.22061648
   2.80675380  0.06809573  3.98162404
   2.99637825  0.13404058  6.86154352
   1.46869746  2.48440907  0.44155934
   1.20464458  2.29735489  3.18241806
   1.48555862  2.68921161  6.80030998
   0.26353163  4.96815031 10.64685628
  -0.23058097  4.98614713  3.50220201
   0.04470603  5.14563411  6.81341021
   5.56205200  0.11525082 10.67488826
   6.05645330  0.11027677  3.34498769
   1.45931436  7.81111039  6.75514802
   4.28140260  2.37995212 10.82759271
   4.45457081  2.23282653  3.04340025
   4.93023246  2.42851461  6.85752343
   3.09121904  4.89105135  0.15898110
   2.61546807  5.20133812  3.65196764
   2.77406019  4.87936712  6.56434852
   0.02463986  0.12120539  2.20572014
  -4.56632283  7.94756243  5.31780413
   4.66060438  7.78473421  8.81520025
   7.37837485  2.26060773  1.74392199
   7.42831382  2.73316181  5.27094956
   7.41168530  2.58486492  8.42697024
   5.71592937  5.18656478  1.59821418
   5.70195675  5.25607461  5.18316998
   5.64025684  4.71521990  8.41114404
   2.70248787  0.10388112  1.87955501
   2.77253705  0.19836739  5.03543516
   3.03116521  0.30514221  8.62897861
   1.44133232  2.58487905  1.92143063
   1.63132535  2.28017176  5.13487761
   1.25842050  2.50927054  8.49956120
  -0.09836937  5.24442660  1.81293428
   0.00829478  4.55560405  5.40409528
  -0.08412827  4.88539662  8.57018836
   1.30216486  7.81190780  1.49008172
   6.03694208  0.07228529  5.24563367
   1.09028696  7.87675340  8.94172971
   4.50522077  2.21784590  1.40444117
   4.30331156  2.62623036  5.34100604
   4.66940339  2.43960441  8.99235671
   2.61125444  5.22254022  1.44980785
   3.04667663  5.08738483  5.28176276
   2.94218981  5.32873259  8.78691975
 


--------------------------------------------------------------------------------------------------------


 k-point  1 :   0.0000 0.0000 0.0000  plane waves:   20211
 k-point  2 :   0.2500-0.0000 0.0000  plane waves:   20227
 k-point  3 :   0.5000-0.0000 0.0000  plane waves:   20202
 k-point  4 :   0.0000 0.2500 0.0000  plane waves:   20227
 k-point  5 :   0.2500 0.2500 0.0000  plane waves:   20249
 k-point  6 :   0.5000 0.2500 0.0000  plane waves:   20249
 k-point  7 :  -0.2500 0.2500 0.0000  plane waves:   20227
 k-point  8 :   0.0000 0.5000 0.0000  plane waves:   20202
 k-point  9 :   0.2500 0.5000 0.0000  plane waves:   20249
 k-point 10 :   0.5000 0.5000 0.0000  plane waves:   20202
 k-point 11 :   0.0000 0.0000 0.3333  plane waves:   20248
 k-point 12 :   0.2500-0.0000 0.3333  plane waves:   20240
 k-point 13 :   0.5000-0.0000 0.3333  plane waves:   20236
 k-point 14 :  -0.2500 0.0000 0.3333  plane waves:   20240
 k-point 15 :   0.0000 0.2500 0.3333  plane waves:   20240
 k-point 16 :   0.2500 0.2500 0.3333  plane waves:   20245
 k-point 17 :   0.5000 0.2500 0.3333  plane waves:   20245
 k-point 18 :  -0.2500 0.2500 0.3333  plane waves:   20240
 k-point 19 :   0.0000 0.5000 0.3333  plane waves:   20236
 k-point 20 :   0.2500 0.5000 0.3333  plane waves:   20245
 k-point 21 :   0.5000 0.5000 0.3333  plane waves:   20236
 k-point 22 :  -0.2500 0.5000 0.3333  plane waves:   20245
 k-point 23 :   0.0000-0.2500 0.3333  plane waves:   20240
 k-point 24 :   0.2500-0.2500 0.3333  plane waves:   20240
 k-point 25 :   0.5000-0.2500 0.3333  plane waves:   20245
 k-point 26 :  -0.2500-0.2500 0.3333  plane waves:   20245

 maximum and minimum number of plane-waves per node :     20249    20202

 maximum number of plane-waves:     20249
 maximum index in each direction: 
   IXMAX=   17   IYMAX=   17   IZMAX=   19
   IXMIN=  -17   IYMIN=  -17   IZMIN=  -20

 The following grids will avoid any aliasing or wrap around errors in the Hartre
 e energy
  - symmetry arguments have not been applied
  - exchange correlation energies might require even more grid points
  - we recommend to set PREC=Normal or Accurate and rely on VASP defaults
 NGX is ok and might be reduce to    70
 NGY is ok and might be reduce to    70
 NGZ is ok and might be reduce to    80

 serial   3D FFT for wavefunctions
 parallel 3D FFT for charge:
    minimum data exchange during FFTs selected (reduces bandwidth)


 total amount of memory used by VASP MPI-rank0   457770. kBytes
=======================================================================

   base      :      30000. kBytes
   nonlr-proj:      38531. kBytes
   fftplans  :       8419. kBytes
   grid      :      47806. kBytes
   one-center:       1679. kBytes
   wavefun   :     331335. kBytes
 
     INWAV:  cpu time    0.0000: real time    0.0000
 Broyden mixing: mesh for mixing (old mesh)
   NGX = 33   NGY = 33   NGZ = 39
  (NGX  =140   NGY  =140   NGZ  =160)
  gives a total of  42471 points

 initial charge density was supplied:
 charge density of overlapping atoms calculated
 number of electron     432.0000000 magnetization      67.5000000
 keeping initial charge density in first step


--------------------------------------------------------------------------------------------------------


 Maximum index for non-local projection operator         6429
 Maximum index for augmentation-charges         1185 (set IRDMAX)


--------------------------------------------------------------------------------------------------------


 First call to EWALD:  gamma=   0.191
 Maximum number of real-space cells 3x 3x 2
 Maximum number of reciprocal cells 3x 3x 3

    FEWALD:  cpu time    0.0025: real time    0.0025


--------------------------------------- Iteration      1(   1)  ---------------------------------------


    POTLOK:  cpu time    0.2836: real time    0.3238
    SETDIJ:  cpu time    0.0395: real time    0.0396
     EDDAV:  cpu time  137.0927: real time  137.4175
    --------------------------------------------
      LOOP:  cpu time  137.4187: real time  137.7838

 eigenvalue-minimisations  : 31616
 total energy-change (2. order) : 0.4797795E+04  (-0.1807125E+05)
 number of electron     432.0000000 magnetization      67.5000000
 augmentation part      432.0000000 magnetization      67.5000000

 Free energy of the ion-electron system (eV)
  ---------------------------------------------------
  alpha Z        PSCENC =      1085.16980774
  Ewald energy   TEWEN  =    -26194.05025974
  -Hartree energ DENC   =    -14796.79942858
  -exchange      EXHF   =         0.00000000
  -V(xc)+E(xc)   XCENC  =      1619.92462037
  PAW double counting   =     35307.98069315   -37155.18892105
  entropy T*S    EENTRO =        -0.01274534
  eigenvalues    EBANDS =      4222.29624389
  atomic energy  EATOM  =     40708.47505058
  Solvation  Ediel_sol  =         0.00000000
  ---------------------------------------------------
  free energy    TOTEN  =      4797.79506104 eV

  energy without entropy =     4797.80780638  energy(sigma->0) =     4797.80143371


--------------------------------------------------------------------------------------------------------




--------------------------------------- Iteration      1(   2)  ---------------------------------------


     EDDAV:  cpu time  136.8066: real time  137.1306
    --------------------------------------------
      LOOP:  cpu time  136.8079: real time  137.1319

 eigenvalue-minimisations  : 31616
 total energy-change (2. order) :-0.4048139E+04  (-0.3679388E+04)
 number of electron     432.0000000 magnetization      67.5000000
 augmentation part      432.0000000 magnetization      67.5000000

 Free energy of the ion-electron system (eV)
  ---------------------------------------------------
  alpha Z        PSCENC =      1085.16980774
  Ewald energy   TEWEN  =    -26194.05025974
  -Hartree energ DENC   =    -14796.79942858
  -exchange      EXHF   =         0.00000000
  -V(xc)+E(xc)   XCENC  =      1619.92462037
  PAW double counting   =     35307.98069315   -37155.18892105
  entropy T*S    EENTRO =        -0.03863198
  eigenvalues    EBANDS =       174.18356123
  atomic energy  EATOM  =     40708.47505058
  Solvation  Ediel_sol  =         0.00000000
  ---------------------------------------------------
  free energy    TOTEN  =       749.65649174 eV

  energy without entropy =      749.69512371  energy(sigma->0) =      749.67580773


--------------------------------------------------------------------------------------------------------




--------------------------------------- Iteration      1(   3)  ---------------------------------------


     EDDAV:  cpu time  133.9652: real time  134.2825
    --------------------------------------------
      LOOP:  cpu time  133.9641: real time  134.2813

 eigenvalue-minimisations  : 32880
 total energy-change (2. order) :-0.1002232E+04  (-0.8841663E+03)
 number of electron     432.0000000 magnetization      67.5000000
 augmentation part      432.0000000 magnetization      67.5000000

 Free energy of the ion-electron system (eV)
  ---------------------------------------------------
  alpha Z        PSCENC =      1085.16980774
  Ewald energy   TEWEN  =    -26194.05025974
  -Hartree energ DENC   =    -14796.79942858
  -exchange      EXHF   =         0.00000000
  -V(xc)+E(xc)   XCENC  =      1619.92462037
  PAW double counting   =     35307.98069315   -37155.18892105
  entropy T*S    EENTRO =        -0.07415301
  eigenvalues    EBANDS =      -828.01310650
  atomic energy  EATOM  =     40708.47505058
  Solvation  Ediel_sol  =         0.00000000
  ---------------------------------------------------
  free energy    TOTEN  =      -252.57569703 eV

  energy without entropy =     -252.50154402  energy(sigma->0) =     -252.53862053


--------------------------------------------------------------------------------------------------------




--------------------------------------- Iteration      1(   4)  ---------------------------------------


     EDDAV:  cpu time  129.3773: real time  129.6837
    --------------------------------------------
      LOOP:  cpu time  129.3773: real time  129.6837

 eigenvalue-minimisations  : 34880
 total energy-change (2. order) :-0.1219842E+03  (-0.1178008E+03)
 number of electron     432.0000000 magnetization      67.5000000
 augmentation part      432.0000000 magnetization      67.5000000

 Free energy of the ion-electron system (eV)
  ---------------------------------------------------
  alpha Z        PSCENC =      1085.16980774
  Ewald energy   TEWEN  =    -26194.05025974
  -Hartree energ DENC   =    -14796.79942858
  -exchange      EXHF   =         0.00000000
  -V(xc)+E(xc)   XCENC  =      1619.92462037
  PAW double counting   =     35307.98069315   -37155.18892105
  entropy T*S    EENTRO =        -0.08064265
  eigenvalues    EBANDS =      -949.99079872
  atomic energy  EATOM  =     40708.47505058
  Solvation  Ediel_sol  =         0.00000000
  ---------------------------------------------------
  free energy    TOTEN  =      -374.55987888 eV

  energy without entropy =     -374.47923623  energy(sigma->0) =     -374.51955756


--------------------------------------------------------------------------------------------------------




--------------------------------------- Iteration      1(   5)  ---------------------------------------


     EDDAV:  cpu time  134.0502: real time  134.3676
    CHARGE:  cpu time    5.6208: real time    5.6341
    MIXING:  cpu time    0.0048: real time    0.0050
    --------------------------------------------
      LOOP:  cpu time  139.6727: real time  140.0036

 eigenvalue-minimisations  : 34336
 total energy-change (2. order) :-0.3205624E+01  (-0.3193666E+01)
 number of electron     432.0000024 magnetization      63.0860383
 augmentation part      159.0847837 magnetization      50.3755761

 Broyden mixing:
  rms(total) = 0.14440E+02    rms(broyden)= 0.14439E+02
  rms(prec ) = 0.16260E+02
  weight for this iteration     100.00

 Free energy of the ion-electron system (eV)
  ---------------------------------------------------
  alpha Z        PSCENC =      1085.16980774
  Ewald energy   TEWEN  =    -26194.05025974
  -Hartree energ DENC   =    -14796.79942858
  -exchange      EXHF   =         0.00000000
  -V(xc)+E(xc)   XCENC  =      1619.92462037
  PAW double counting   =     35307.98069315   -37155.18892105
  entropy T*S    EENTRO =        -0.08132117
  eigenvalues    EBANDS =      -953.19574415
  atomic energy  EATOM  =     40708.47505058
  Solvation  Ediel_sol  =         0.00000000
  ---------------------------------------------------
  free energy    TOTEN  =      -377.76550284 eV

  energy without entropy =     -377.68418167  energy(sigma->0) =     -377.72484225


--------------------------------------------------------------------------------------------------------




--------------------------------------- Iteration      1(   6)  ---------------------------------------


    POTLOK:  cpu time    0.2357: real time    0.2363
    SETDIJ:  cpu time    0.0251: real time    0.0252
     EDDAV:  cpu time  150.0154: real time  150.3707
    CHARGE:  cpu time    5.4218: real time    5.4347
    MIXING:  cpu time    0.0053: real time    0.0053
    --------------------------------------------
      LOOP:  cpu time  155.7034: real time  156.0721

 eigenvalue-minimisations  : 43088
 total energy-change (2. order) :-0.1570923E+03  (-0.9279530E+02)
 number of electron     432.0000006 magnetization      55.4742008
 augmentation part      208.5549382 magnetization      52.1029261

 Broyden mixing:
  rms(total) = 0.21017E+02    rms(broyden)= 0.21015E+02
  rms(prec ) = 0.24307E+02
  weight for this iteration     100.00

 eigenvalues of (default mixing * dielectric matrix)
  average eigenvalue GAMMA=   0.2727
  0.2727

 Free energy of the ion-electron system (eV)
  ---------------------------------------------------
  alpha Z        PSCENC =      1085.16980774
  Ewald energy   TEWEN  =    -26194.05025974
  -Hartree energ DENC   =    -13979.40720554
  -exchange      EXHF   =         0.00000000
  -V(xc)+E(xc)   XCENC  =      1599.86824070
  PAW double counting   =     38414.92278117   -40028.88385122
  entropy T*S    EENTRO =        -0.03976132
  eigenvalues    EBANDS =     -2140.91262660
  atomic energy  EATOM  =     40708.47505058
  Solvation  Ediel_sol  =         0.00000000
  ---------------------------------------------------
  free energy    TOTEN  =      -534.85782423 eV

  energy without entropy =     -534.81806291  energy(sigma->0) =     -534.83794357


--------------------------------------------------------------------------------------------------------




--------------------------------------- Iteration      1(   7)  ---------------------------------------


    POTLOK:  cpu time    0.2206: real time    0.2211
    SETDIJ:  cpu time    0.0247: real time    0.0247
     EDDAV:  cpu time  141.0586: real time  141.3926
    CHARGE:  cpu time    5.4808: real time    5.4938
    MIXING:  cpu time    0.0053: real time    0.0053
    --------------------------------------------
      LOOP:  cpu time  146.7900: real time  147.1376

 eigenvalue-minimisations  : 37936
 total energy-change (2. order) : 0.2308994E+03  (-0.4137833E+02)
 number of electron     432.0000019 magnetization      49.5823986
 augmentation part      192.8605188 magnetization      42.5897170

 Broyden mixing:
  rms(total) = 0.12391E+02    rms(broyden)= 0.12388E+02
  rms(prec ) = 0.14198E+02
  weight for this iteration     100.00

 eigenvalues of (default mixing * dielectric matrix)
  average eigenvalue GAMMA=   0.3978
  0.3978  0.3978

 Free energy of the ion-electron system (eV)
  ---------------------------------------------------
  alpha Z        PSCENC =      1085.16980774
  Ewald energy   TEWEN  =    -26194.05025974
  -Hartree energ DENC   =    -14273.95864890
  -exchange      EXHF   =         0.00000000
  -V(xc)+E(xc)   XCENC  =      1594.87306938
  PAW double counting   =     40136.91999463   -41930.27968429
  entropy T*S    EENTRO =        -0.04073991
  eigenvalues    EBANDS =     -1431.06705132
  atomic energy  EATOM  =     40708.47505058
  Solvation  Ediel_sol  =         0.00000000
  ---------------------------------------------------
  free energy    TOTEN  =      -303.95846183 eV

  energy without entropy =     -303.91772192  energy(sigma->0) =     -303.93809188


--------------------------------------------------------------------------------------------------------




--------------------------------------- Iteration      1(   8)  ---------------------------------------


    POTLOK:  cpu time    0.2378: real time    0.2384
    SETDIJ:  cpu time    0.0252: real time    0.0253
     EDDAV:  cpu time  142.2663: real time  142.6031
    CHARGE:  cpu time    5.5796: real time    5.5929
    MIXING:  cpu time    0.0052: real time    0.0052
    --------------------------------------------
      LOOP:  cpu time  148.1142: real time  148.4649

 eigenvalue-minimisations  : 40272
 total energy-change (2. order) : 0.1863433E+02  (-0.1420623E+02)
 number of electron     432.0000021 magnetization      42.6877018
 augmentation part      181.8447936 magnetization      33.0650695

 Broyden mixing:
  rms(total) = 0.11344E+02    rms(broyden)= 0.11343E+02
  rms(prec ) = 0.15120E+02
  weight for this iteration     100.00

 eigenvalues of (default mixing * dielectric matrix)
  average eigenvalue GAMMA=   0.4842
  0.8503  0.3981  0.2041

 Free energy of the ion-electron system (eV)
  ---------------------------------------------------
  alpha Z        PSCENC =      1085.16980774
  Ewald energy   TEWEN  =    -26194.05025974
  -Hartree energ DENC   =    -14362.05177650
  -exchange      EXHF   =         0.00000000
  -V(xc)+E(xc)   XCENC  =      1595.53119221
  PAW double counting   =     41178.00414441   -43042.49675862
  entropy T*S    EENTRO =        -0.06315588
  eigenvalues    EBANDS =     -1253.84237834
  atomic energy  EATOM  =     40708.47505058
  Solvation  Ediel_sol  =         0.00000000
  ---------------------------------------------------
  free energy    TOTEN  =      -285.32413415 eV

  energy without entropy =     -285.26097826  energy(sigma->0) =     -285.29255621


--------------------------------------------------------------------------------------------------------




--------------------------------------- Iteration      1(   9)  ---------------------------------------


    POTLOK:  cpu time    0.2282: real time    0.2287
    SETDIJ:  cpu time    0.0243: real time    0.0244
     EDDAV:  cpu time  141.0893: real time  141.4234
    CHARGE:  cpu time    5.5642: real time    5.5774
    MIXING:  cpu time    0.0059: real time    0.0059
    --------------------------------------------
      LOOP:  cpu time  146.9120: real time  147.2598

 eigenvalue-minimisations  : 39856
 total energy-change (2. order) :-0.6854697E+02  (-0.4729243E+02)
 number of electron     432.0000016 magnetization      35.4732756
 augmentation part      172.4776092 magnetization      28.2374411

 Broyden mixing:
  rms(total) = 0.13033E+02    rms(broyden)= 0.13032E+02
  rms(prec ) = 0.17911E+02
  weight for this iteration     100.00

 eigenvalues of (default mixing * dielectric matrix)
  average eigenvalue GAMMA=   0.5257
  1.3229  0.3364  0.2879  0.1555

 Free energy of the ion-electron system (eV)
  ---------------------------------------------------
  alpha Z        PSCENC =      1085.16980774
  Ewald energy   TEWEN  =    -26194.05025974
  -Hartree energ DENC   =    -14431.14263562
  -exchange      EXHF   =         0.00000000
  -V(xc)+E(xc)   XCENC  =      1596.96112562
  PAW double counting   =     42577.55351010   -44501.01965579
  entropy T*S    EENTRO =        -0.06470582
  eigenvalues    EBANDS =     -1195.75334425
  atomic energy  EATOM  =     40708.47505058
  Solvation  Ediel_sol  =         0.00000000
  ---------------------------------------------------
  free energy    TOTEN  =      -353.87110717 eV

  energy without entropy =     -353.80640136  energy(sigma->0) =     -353.83875426


--------------------------------------------------------------------------------------------------------




--------------------------------------- Iteration      1(  10)  ---------------------------------------


    POTLOK:  cpu time    0.2327: real time    0.2333
    SETDIJ:  cpu time    0.0248: real time    0.0249
     EDDAV:  cpu time  145.8366: real time  146.1819
    CHARGE:  cpu time    5.5603: real time    5.5735
    MIXING:  cpu time    0.0062: real time    0.0062
    --------------------------------------------
      LOOP:  cpu time  151.6607: real time  152.0198

 eigenvalue-minimisations  : 41472
 total energy-change (2. order) :-0.5017803E+02  (-0.1452305E+02)
 number of electron     432.0000015 magnetization      29.2398915
 augmentation part      170.0816438 magnetization      21.0095439

 Broyden mixing:
  rms(total) = 0.14011E+02    rms(broyden)= 0.14010E+02
  rms(prec ) = 0.19433E+02
  weight for this iteration     100.00

 eigenvalues of (default mixing * dielectric matrix)
  average eigenvalue GAMMA=   0.5037
  1.5998  0.3123  0.3123  0.1471  0.1471

 Free energy of the ion-electron system (eV)
  ---------------------------------------------------
  alpha Z        PSCENC =      1085.16980774
  Ewald energy   TEWEN  =    -26194.05025974
  -Hartree energ DENC   =    -14390.82761433
  -exchange      EXHF   =         0.00000000
  -V(xc)+E(xc)   XCENC  =      1594.47426047
  PAW double counting   =     43770.30395178   -45713.65187901
  entropy T*S    EENTRO =        -0.07099524
  eigenvalues    EBANDS =     -1263.87145604
  atomic energy  EATOM  =     40708.47505058
  Solvation  Ediel_sol  =         0.00000000
  ---------------------------------------------------
  free energy    TOTEN  =      -404.04913379 eV

  energy without entropy =     -403.97813856  energy(sigma->0) =     -404.01363617


--------------------------------------------------------------------------------------------------------




--------------------------------------- Iteration      1(  11)  ---------------------------------------


    POTLOK:  cpu time    0.2324: real time    0.2329
    SETDIJ:  cpu time    0.0251: real time    0.0252
     EDDAV:  cpu time  143.5566: real time  143.8966
    CHARGE:  cpu time    5.5156: real time    5.5287
    MIXING:  cpu time    0.0063: real time    0.0063
    --------------------------------------------
      LOOP:  cpu time  149.3360: real time  149.6897

 eigenvalue-minimisations  : 40528
 total energy-change (2. order) : 0.5571132E+02  (-0.8833228E+01)
 number of electron     432.0000021 magnetization      27.1349905
 augmentation part      176.9587632 magnetization      21.3382441

 Broyden mixing:
  rms(total) = 0.12740E+02    rms(broyden)= 0.12740E+02
  rms(prec ) = 0.18217E+02
  weight for this iteration     100.00

 eigenvalues of (default mixing * dielectric matrix)
  average eigenvalue GAMMA=   0.4571
  1.6628  0.3456  0.2204  0.2204  0.1787  0.1149

 Free energy of the ion-electron system (eV)
  ---------------------------------------------------
  alpha Z        PSCENC =      1085.16980774
  Ewald energy   TEWEN  =    -26194.05025974
  -Hartree energ DENC   =    -14328.17353567
  -exchange      EXHF   =         0.00000000
  -V(xc)+E(xc)   XCENC  =      1592.42201998
  PAW double counting   =     44788.44327668   -46745.02511860
  entropy T*S    EENTRO =        -0.05693245
  eigenvalues    EBANDS =     -1255.54212301
  atomic energy  EATOM  =     40708.47505058
  Solvation  Ediel_sol  =         0.00000000
  ---------------------------------------------------
  free energy    TOTEN  =      -348.33781449 eV

  energy without entropy =     -348.28088204  energy(sigma->0) =     -348.30934827


--------------------------------------------------------------------------------------------------------




--------------------------------------- Iteration      1(  12)  ---------------------------------------


    POTLOK:  cpu time    0.2332: real time    0.2337
    SETDIJ:  cpu time    0.0257: real time    0.0258
     EDDAV:  cpu time  145.6787: real time  146.0236
    CHARGE:  cpu time    5.5355: real time    5.5486
    MIXING:  cpu time    0.0061: real time    0.0062
    --------------------------------------------
      LOOP:  cpu time  151.4792: real time  151.8379

 eigenvalue-minimisations  : 41184
 total energy-change (2. order) : 0.5599900E+02  (-0.1344659E+02)
 number of electron     432.0000014 magnetization      26.1259037
 augmentation part      185.0743178 magnetization      19.0828794

 Broyden mixing:
  rms(total) = 0.71665E+01    rms(broyden)= 0.71649E+01
  rms(prec ) = 0.98416E+01
  weight for this iteration     100.00

 eigenvalues of (default mixing * dielectric matrix)
  average eigenvalue GAMMA=   0.4335
  1.5848  0.4935  0.2845  0.2845  0.1487  0.1487  0.0898

 Free energy of the ion-electron system (eV)
  ---------------------------------------------------
  alpha Z        PSCENC =      1085.16980774
  Ewald energy   TEWEN  =    -26194.05025974
  -Hartree energ DENC   =    -14309.30518235
  -exchange      EXHF   =         0.00000000
  -V(xc)+E(xc)   XCENC  =      1591.75377223
  PAW double counting   =     45028.57563310   -46986.34078567
  entropy T*S    EENTRO =        -0.06599804
  eigenvalues    EBANDS =     -1216.55085244
  atomic energy  EATOM  =     40708.47505058
  Solvation  Ediel_sol  =         0.00000000
  ---------------------------------------------------
  free energy    TOTEN  =      -292.33881459 eV

  energy without entropy =     -292.27281655  energy(sigma->0) =     -292.30581557


--------------------------------------------------------------------------------------------------------




--------------------------------------- Iteration      1(  13)  ---------------------------------------


    POTLOK:  cpu time    0.2354: real time    0.2359
    SETDIJ:  cpu time    0.0259: real time    0.0259
     EDDAV:  cpu time  133.2777: real time  133.5934
    CHARGE:  cpu time    5.5734: real time    5.5866
    MIXING:  cpu time    0.0063: real time    0.0063
    --------------------------------------------
      LOOP:  cpu time  139.1187: real time  139.4482

 eigenvalue-minimisations  : 36848
 total energy-change (2. order) : 0.1951895E+02  (-0.7218475E+01)
 number of electron     432.0000019 magnetization      25.3619565
 augmentation part      183.4549436 magnetization      18.4496429

 Broyden mixing:
  rms(total) = 0.60384E+01    rms(broyden)= 0.60368E+01
  rms(prec ) = 0.81627E+01
  weight for this iteration     100.00

 eigenvalues of (default mixing * dielectric matrix)
  average eigenvalue GAMMA=   0.4090
  1.4561  0.6451  0.3242  0.3242  0.1574  0.1574  0.1036  0.1036

 Free energy of the ion-electron system (eV)
  ---------------------------------------------------
  alpha Z        PSCENC =      1085.16980774
  Ewald energy   TEWEN  =    -26194.05025974
  -Hartree energ DENC   =    -14319.35408531
  -exchange      EXHF   =         0.00000000
  -V(xc)+E(xc)   XCENC  =      1591.03444195
  PAW double counting   =     45045.99622600   -47003.49962701
  entropy T*S    EENTRO =        -0.08838116
  eigenvalues    EBANDS =     -1186.50303527
  atomic energy  EATOM  =     40708.47505058
  Solvation  Ediel_sol  =         0.00000000
  ---------------------------------------------------
  free energy    TOTEN  =      -272.81986223 eV

  energy without entropy =     -272.73148107  energy(sigma->0) =     -272.77567165


--------------------------------------------------------------------------------------------------------




--------------------------------------- Iteration      1(  14)  ---------------------------------------


    POTLOK:  cpu time    0.2338: real time    0.2343
    SETDIJ:  cpu time    0.0254: real time    0.0255
     EDDAV:  cpu time  152.3279: real time  152.6886
    CHARGE:  cpu time    5.5905: real time    5.6038
    MIXING:  cpu time    0.0059: real time    0.0059
    --------------------------------------------
      LOOP:  cpu time  158.1835: real time  158.5580

 eigenvalue-minimisations  : 43600
 total energy-change (2. order) : 0.8908269E+01  (-0.3890273E+01)
 number of electron     432.0000009 magnetization      24.4232579
 augmentation part      179.7351987 magnetization      17.8373306

 Broyden mixing:
  rms(total) = 0.67781E+01    rms(broyden)= 0.67770E+01
  rms(prec ) = 0.95849E+01
  weight for this iteration     100.00

 eigenvalues of (default mixing * dielectric matrix)
  average eigenvalue GAMMA=   0.3824
  1.5007  0.6309  0.3257  0.3257  0.1803  0.1395  0.1395  0.0998  0.0998

 Free energy of the ion-electron system (eV)
  ---------------------------------------------------
  alpha Z        PSCENC =      1085.16980774
  Ewald energy   TEWEN  =    -26194.05025974
  -Hartree energ DENC   =    -14350.21960278
  -exchange      EXHF   =         0.00000000
  -V(xc)+E(xc)   XCENC  =      1590.81426932
  PAW double counting   =     44972.21193118   -46930.82886419
  entropy T*S    EENTRO =        -0.08195165
  eigenvalues    EBANDS =     -1145.40197344
  atomic energy  EATOM  =     40708.47505058
  Solvation  Ediel_sol  =         0.00000000
  ---------------------------------------------------
  free energy    TOTEN  =      -263.91159297 eV

  energy without entropy =     -263.82964132  energy(sigma->0) =     -263.87061714


--------------------------------------------------------------------------------------------------------




--------------------------------------- Iteration      1(  15)  ---------------------------------------


    POTLOK:  cpu time    0.2291: real time    0.2296
    SETDIJ:  cpu time    0.0256: real time    0.0257
     EDDAV:  cpu time  147.8550: real time  148.2051
    CHARGE:  cpu time    5.5009: real time    5.5140
    MIXING:  cpu time    0.0070: real time    0.0070
    --------------------------------------------
      LOOP:  cpu time  153.6176: real time  153.9814

 eigenvalue-minimisations  : 41936
 total energy-change (2. order) : 0.7892295E+01  (-0.2683370E+01)
 number of electron     432.0000019 magnetization      23.0768373
 augmentation part      181.1472570 magnetization      15.8550474

 Broyden mixing:
  rms(total) = 0.36748E+01    rms(broyden)= 0.36738E+01
  rms(prec ) = 0.49252E+01
  weight for this iteration     100.00

 eigenvalues of (default mixing * dielectric matrix)
  average eigenvalue GAMMA=   0.3852
  1.6105  0.5057  0.5057  0.3097  0.3097  0.1583  0.1583  0.1066  0.1066  0.0814

 Free energy of the ion-electron system (eV)
  ---------------------------------------------------
  alpha Z        PSCENC =      1085.16980774
  Ewald energy   TEWEN  =    -26194.05025974
  -Hartree energ DENC   =    -14352.80907016
  -exchange      EXHF   =         0.00000000
  -V(xc)+E(xc)   XCENC  =      1590.70547879
  PAW double counting   =     45050.04744607   -47009.00407337
  entropy T*S    EENTRO =        -0.09660459
  eigenvalues    EBANDS =     -1134.45707344
  atomic energy  EATOM  =     40708.47505058
  Solvation  Ediel_sol  =         0.00000000
  ---------------------------------------------------
  free energy    TOTEN  =      -256.01929812 eV

  energy without entropy =     -255.92269353  energy(sigma->0) =     -255.97099583


--------------------------------------------------------------------------------------------------------




--------------------------------------- Iteration      1(  16)  ---------------------------------------


    POTLOK:  cpu time    0.2320: real time    0.2325
    SETDIJ:  cpu time    0.0243: real time    0.0244
     EDDAV:  cpu time  140.8377: real time  141.1713
    CHARGE:  cpu time    5.5876: real time    5.6009
    MIXING:  cpu time    0.0074: real time    0.0074
    --------------------------------------------
      LOOP:  cpu time  146.6890: real time  147.0364

 eigenvalue-minimisations  : 39600
 total energy-change (2. order) :-0.5333929E+01  (-0.1552434E+01)
 number of electron     432.0000022 magnetization      21.9529371
 augmentation part      181.4436665 magnetization      14.5154401

 Broyden mixing:
  rms(total) = 0.63002E+01    rms(broyden)= 0.62996E+01
  rms(prec ) = 0.89454E+01
  weight for this iteration     100.00

 eigenvalues of (default mixing * dielectric matrix)
  average eigenvalue GAMMA=   0.3764
  1.6675  0.5781  0.5781  0.3146  0.3146  0.1610  0.1349  0.1349  0.0902  0.0833
  0.0833

 Free energy of the ion-electron system (eV)
  ---------------------------------------------------
  alpha Z        PSCENC =      1085.16980774
  Ewald energy   TEWEN  =    -26194.05025974
  -Hartree energ DENC   =    -14341.82146184
  -exchange      EXHF   =         0.00000000
  -V(xc)+E(xc)   XCENC  =      1590.28750961
  PAW double counting   =     45196.57268518   -47152.15939077
  entropy T*S    EENTRO =        -0.09335577
  eigenvalues    EBANDS =     -1153.73381194
  atomic energy  EATOM  =     40708.47505058
  Solvation  Ediel_sol  =         0.00000000
  ---------------------------------------------------
  free energy    TOTEN  =      -261.35322695 eV

  energy without entropy =     -261.25987118  energy(sigma->0) =     -261.30654906


--------------------------------------------------------------------------------------------------------




--------------------------------------- Iteration      1(  17)  ---------------------------------------


    POTLOK:  cpu time    0.2334: real time    0.2339
    SETDIJ:  cpu time    0.0254: real time    0.0254
     EDDAV:  cpu time  144.9476: real time  145.2909
    CHARGE:  cpu time    5.5804: real time    5.5936
    MIXING:  cpu time    0.0074: real time    0.0074
    --------------------------------------------
      LOOP:  cpu time  150.7942: real time  151.1513

 eigenvalue-minimisations  : 41088
 total energy-change (2. order) : 0.4806281E+01  (-0.1371868E+01)
 number of electron     432.0000019 magnetization      21.4844007
 augmentation part      183.7039913 magnetization      14.2979566

 Broyden mixing:
  rms(total) = 0.33880E+01    rms(broyden)= 0.33871E+01
  rms(prec ) = 0.45071E+01
  weight for this iteration     100.00

 eigenvalues of (default mixing * dielectric matrix)
  average eigenvalue GAMMA=   0.3685
  1.6297  0.6285  0.6285  0.3129  0.3129  0.2493  0.1541  0.1541  0.0987  0.0987
  0.0771  0.0771

 Free energy of the ion-electron system (eV)
  ---------------------------------------------------
  alpha Z        PSCENC =      1085.16980774
  Ewald energy   TEWEN  =    -26194.05025974
  -Hartree energ DENC   =    -14340.54745528
  -exchange      EXHF   =         0.00000000
  -V(xc)+E(xc)   XCENC  =      1590.21261822
  PAW double counting   =     45322.81148638   -47276.92448044
  entropy T*S    EENTRO =        -0.08751230
  eigenvalues    EBANDS =     -1151.60620142
  atomic energy  EATOM  =     40708.47505058
  Solvation  Ediel_sol  =         0.00000000
  ---------------------------------------------------
  free energy    TOTEN  =      -256.54694626 eV

  energy without entropy =     -256.45943397  energy(sigma->0) =     -256.50319012


--------------------------------------------------------------------------------------------------------




--------------------------------------- Iteration      1(  18)  ---------------------------------------


    POTLOK:  cpu time    0.2363: real time    0.2369
    SETDIJ:  cpu time    0.0254: real time    0.0255
     EDDAV:  cpu time  136.2235: real time  136.5461
    CHARGE:  cpu time    5.4914: real time    5.5044
    MIXING:  cpu time    0.0082: real time    0.0082
    --------------------------------------------
      LOOP:  cpu time  141.9848: real time  142.3211

 eigenvalue-minimisations  : 37984
 total energy-change (2. order) : 0.1091877E+01  (-0.8312983E+00)
 number of electron     432.0000017 magnetization      21.3121366
 augmentation part      183.7281757 magnetization      13.2724071

 Broyden mixing:
  rms(total) = 0.31103E+01    rms(broyden)= 0.31095E+01
  rms(prec ) = 0.42541E+01
  weight for this iteration     100.00

 eigenvalues of (default mixing * dielectric matrix)
  average eigenvalue GAMMA=   0.3640
  1.5657  0.7030  0.7030  0.3868  0.2966  0.2966  0.1640  0.1640  0.1043  0.1043
  0.0844  0.0794  0.0794

 Free energy of the ion-electron system (eV)
  ---------------------------------------------------
  alpha Z        PSCENC =      1085.16980774
  Ewald energy   TEWEN  =    -26194.05025974
  -Hartree energ DENC   =    -14336.56089371
  -exchange      EXHF   =         0.00000000
  -V(xc)+E(xc)   XCENC  =      1590.11146169
  PAW double counting   =     45333.04748755   -47282.96525446
  entropy T*S    EENTRO =        -0.10577671
  eigenvalues    EBANDS =     -1158.57669180
  atomic energy  EATOM  =     40708.47505058
  Solvation  Ediel_sol  =         0.00000000
  ---------------------------------------------------
  free energy    TOTEN  =      -255.45506887 eV

  energy without entropy =     -255.34929216  energy(sigma->0) =     -255.40218052


--------------------------------------------------------------------------------------------------------




--------------------------------------- Iteration      1(  19)  ---------------------------------------


    POTLOK:  cpu time    0.2312: real time    0.2317
    SETDIJ:  cpu time    0.0254: real time    0.0255
     EDDAV:  cpu time  142.2776: real time  142.6145
    CHARGE:  cpu time    5.6380: real time    5.6514
    MIXING:  cpu time    0.0085: real time    0.0085
    --------------------------------------------
      LOOP:  cpu time  148.1806: real time  148.5315

 eigenvalue-minimisations  : 39120
 total energy-change (2. order) : 0.1346023E+01  (-0.4251440E+00)
 number of electron     432.0000018 magnetization      21.1690841
 augmentation part      183.2365425 magnetization      13.0359954

 Broyden mixing:
  rms(total) = 0.23672E+01    rms(broyden)= 0.23667E+01
  rms(prec ) = 0.31501E+01
  weight for this iteration     100.00

 eigenvalues of (default mixing * dielectric matrix)
  average eigenvalue GAMMA=   0.3545
  1.5533  0.7464  0.7464  0.4106  0.2941  0.2941  0.1733  0.1733  0.1254  0.1083
  0.1083  0.0804  0.0804  0.0685

 Free energy of the ion-electron system (eV)
  ---------------------------------------------------
  alpha Z        PSCENC =      1085.16980774
  Ewald energy   TEWEN  =    -26194.05025974
  -Hartree energ DENC   =    -14343.28935084
  -exchange      EXHF   =         0.00000000
  -V(xc)+E(xc)   XCENC  =      1590.12747783
  PAW double counting   =     45316.69436214   -47263.86731316
  entropy T*S    EENTRO =        -0.10034682
  eigenvalues    EBANDS =     -1153.26847399
  atomic energy  EATOM  =     40708.47505058
  Solvation  Ediel_sol  =         0.00000000
  ---------------------------------------------------
  free energy    TOTEN  =      -254.10904626 eV

  energy without entropy =     -254.00869945  energy(sigma->0) =     -254.05887285


--------------------------------------------------------------------------------------------------------




--------------------------------------- Iteration      1(  20)  ---------------------------------------


    POTLOK:  cpu time    0.2313: real time    0.2318
    SETDIJ:  cpu time    0.0259: real time    0.0260
     EDDAV:  cpu time  144.3081: real time  144.6497
    CHARGE:  cpu time    5.5726: real time    5.5858
    MIXING:  cpu time    0.0088: real time    0.0089
    --------------------------------------------
      LOOP:  cpu time  150.1466: real time  150.5021

 eigenvalue-minimisations  : 40736
 total energy-change (2. order) : 0.7708635E+00  (-0.2295925E+00)
 number of electron     432.0000019 magnetization      20.6678603
 augmentation part      182.6317967 magnetization      12.6115585

 Broyden mixing:
  rms(total) = 0.19567E+01    rms(broyden)= 0.19562E+01
  rms(prec ) = 0.25682E+01
  weight for this iteration     100.00

 eigenvalues of (default mixing * dielectric matrix)
  average eigenvalue GAMMA=   0.3779
  1.5956  0.9044  0.9044  0.4183  0.4183  0.2835  0.2835  0.1583  0.1583  0.1095
  0.0954  0.0954  0.0946  0.0745  0.0745

 Free energy of the ion-electron system (eV)
  ---------------------------------------------------
  alpha Z        PSCENC =      1085.16980774
  Ewald energy   TEWEN  =    -26194.05025974
  -Hartree energ DENC   =    -14347.99568987
  -exchange      EXHF   =         0.00000000
  -V(xc)+E(xc)   XCENC  =      1590.14835124
  PAW double counting   =     45323.81304800   -47269.31827323
  entropy T*S    EENTRO =        -0.10121634
  eigenvalues    EBANDS =     -1149.47900118
  atomic energy  EATOM  =     40708.47505058
  Solvation  Ediel_sol  =         0.00000000
  ---------------------------------------------------
  free energy    TOTEN  =      -253.33818279 eV

  energy without entropy =     -253.23696645  energy(sigma->0) =     -253.28757462


--------------------------------------------------------------------------------------------------------




--------------------------------------- Iteration      1(  21)  ---------------------------------------


    POTLOK:  cpu time    0.2325: real time    0.2330
    SETDIJ:  cpu time    0.0254: real time    0.0254
     EDDAV:  cpu time  143.8712: real time  144.2120
    CHARGE:  cpu time    5.6163: real time    5.6297
    MIXING:  cpu time    0.0088: real time    0.0088
    --------------------------------------------
      LOOP:  cpu time  149.7542: real time  150.1090

 eigenvalue-minimisations  : 40624
 total energy-change (2. order) :-0.1883782E+01  (-0.4467096E+00)
 number of electron     432.0000019 magnetization      20.3696187
 augmentation part      182.0338469 magnetization      12.0940571

 Broyden mixing:
  rms(total) = 0.28763E+01    rms(broyden)= 0.28757E+01
  rms(prec ) = 0.39376E+01
  weight for this iteration     100.00

 eigenvalues of (default mixing * dielectric matrix)
  average eigenvalue GAMMA=   0.3871
  1.6278  1.0341  1.0341  0.4573  0.4573  0.2930  0.2930  0.1586  0.1586  0.1566
  0.1039  0.1039  0.0806  0.0806  0.0844  0.0703

 Free energy of the ion-electron system (eV)
  ---------------------------------------------------
  alpha Z        PSCENC =      1085.16980774
  Ewald energy   TEWEN  =    -26194.05025974
  -Hartree energ DENC   =    -14354.03155760
  -exchange      EXHF   =         0.00000000
  -V(xc)+E(xc)   XCENC  =      1590.32533436
  PAW double counting   =     45405.60071364   -47348.06740443
  entropy T*S    EENTRO =        -0.08052044
  eigenvalues    EBANDS =     -1148.56312871
  atomic energy  EATOM  =     40708.47505058
  Solvation  Ediel_sol  =         0.00000000
  ---------------------------------------------------
  free energy    TOTEN  =      -255.22196460 eV

  energy without entropy =     -255.14144416  energy(sigma->0) =     -255.18170438


--------------------------------------------------------------------------------------------------------




--------------------------------------- Iteration      1(  22)  ---------------------------------------


    POTLOK:  cpu time    0.2324: real time    0.2330
    SETDIJ:  cpu time    0.0253: real time    0.0254
     EDDAV:  cpu time  138.4259: real time  138.7537
    CHARGE:  cpu time    5.6299: real time    5.6432
    MIXING:  cpu time    0.0089: real time    0.0089
    --------------------------------------------
      LOOP:  cpu time  144.3224: real time  144.6642

 eigenvalue-minimisations  : 38832
 total energy-change (2. order) : 0.3359659E+00  (-0.3933771E+00)
 number of electron     432.0000018 magnetization      20.2960708
 augmentation part      182.1945286 magnetization      11.6150863

 Broyden mixing:
  rms(total) = 0.23961E+01    rms(broyden)= 0.23955E+01
  rms(prec ) = 0.32606E+01
  weight for this iteration     100.00

 eigenvalues of (default mixing * dielectric matrix)
  average eigenvalue GAMMA=   0.3837
  1.6096  1.1048  1.1048  0.4653  0.4653  0.2924  0.2924  0.2617  0.1595  0.1595
  0.1048  0.1048  0.0919  0.0827  0.0827  0.0738  0.0662

 Free energy of the ion-electron system (eV)
  ---------------------------------------------------
  alpha Z        PSCENC =      1085.16980774
  Ewald energy   TEWEN  =    -26194.05025974
  -Hartree energ DENC   =    -14353.97623854
  -exchange      EXHF   =         0.00000000
  -V(xc)+E(xc)   XCENC  =      1590.55848531
  PAW double counting   =     45467.71914078   -47406.16986840
  entropy T*S    EENTRO =        -0.09666126
  eigenvalues    EBANDS =     -1152.51545519
  atomic energy  EATOM  =     40708.47505058
  Solvation  Ediel_sol  =         0.00000000
  ---------------------------------------------------
  free energy    TOTEN  =      -254.88599872 eV

  energy without entropy =     -254.78933746  energy(sigma->0) =     -254.83766809


--------------------------------------------------------------------------------------------------------




--------------------------------------- Iteration      1(  23)  ---------------------------------------


    POTLOK:  cpu time    0.2270: real time    0.2275
    SETDIJ:  cpu time    0.0237: real time    0.0237
     EDDAV:  cpu time  139.9992: real time  140.3307
    CHARGE:  cpu time    5.6479: real time    5.6613
    MIXING:  cpu time    0.0088: real time    0.0088
    --------------------------------------------
      LOOP:  cpu time  145.9065: real time  146.2521

 eigenvalue-minimisations  : 39472
 total energy-change (2. order) : 0.9223735E+00  (-0.3256440E+00)
 number of electron     432.0000018 magnetization      20.1198857
 augmentation part      182.5146887 magnetization      11.5802096

 Broyden mixing:
  rms(total) = 0.15893E+01    rms(broyden)= 0.15887E+01
  rms(prec ) = 0.20206E+01
  weight for this iteration     100.00

 eigenvalues of (default mixing * dielectric matrix)
  average eigenvalue GAMMA=   0.3921
  1.6646  1.1866  1.1866  0.5154  0.5154  0.3379  0.2968  0.2968  0.1622  0.1622
  0.1317  0.1036  0.1036  0.0863  0.0863  0.0772  0.0772  0.0681

 Free energy of the ion-electron system (eV)
  ---------------------------------------------------
  alpha Z        PSCENC =      1085.16980774
  Ewald energy   TEWEN  =    -26194.05025974
  -Hartree energ DENC   =    -14357.43592270
  -exchange      EXHF   =         0.00000000
  -V(xc)+E(xc)   XCENC  =      1590.99717110
  PAW double counting   =     45513.27901710   -47449.55577346
  entropy T*S    EENTRO =        -0.09253440
  eigenvalues    EBANDS =     -1150.75018147
  atomic energy  EATOM  =     40708.47505058
  Solvation  Ediel_sol  =         0.00000000
  ---------------------------------------------------
  free energy    TOTEN  =      -253.96362525 eV

  energy without entropy =     -253.87109085  energy(sigma->0) =     -253.91735805


--------------------------------------------------------------------------------------------------------




--------------------------------------- Iteration      1(  24)  ---------------------------------------


    POTLOK:  cpu time    0.2348: real time    0.2354
    SETDIJ:  cpu time    0.0252: real time    0.0252
     EDDAV:  cpu time  147.1190: real time  147.4673
    CHARGE:  cpu time    5.5676: real time    5.5808
    MIXING:  cpu time    0.0099: real time    0.0099
    --------------------------------------------
      LOOP:  cpu time  152.9564: real time  153.3186

 eigenvalue-minimisations  : 42016
 total energy-change (2. order) : 0.1617731E+00  (-0.2709044E+00)
 number of electron     432.0000019 magnetization      20.0120535
 augmentation part      182.5214823 magnetization      11.2334898

 Broyden mixing:
  rms(total) = 0.13426E+01    rms(broyden)= 0.13422E+01
  rms(prec ) = 0.17849E+01
  weight for this iteration     100.00

 eigenvalues of (default mixing * dielectric matrix)
  average eigenvalue GAMMA=   0.4067
  1.7579  1.3017  1.3017  0.5841  0.5841  0.3541  0.2964  0.2964  0.2015  0.1611
  0.1611  0.1284  0.1019  0.1019  0.0888  0.0824  0.0824  0.0727  0.0685

 Free energy of the ion-electron system (eV)
  ---------------------------------------------------
  alpha Z        PSCENC =      1085.16980774
  Ewald energy   TEWEN  =    -26194.05025974
  -Hartree energ DENC   =    -14360.16924214
  -exchange      EXHF   =         0.00000000
  -V(xc)+E(xc)   XCENC  =      1591.31868187
  PAW double counting   =     45587.41075908   -47522.63539206
  entropy T*S    EENTRO =        -0.09816138
  eigenvalues    EBANDS =     -1149.22309612
  atomic energy  EATOM  =     40708.47505058
  Solvation  Ediel_sol  =         0.00000000
  ---------------------------------------------------
  free energy    TOTEN  =      -253.80185217 eV

  energy without entropy =     -253.70369079  energy(sigma->0) =     -253.75277148


--------------------------------------------------------------------------------------------------------




--------------------------------------- Iteration      1(  25)  ---------------------------------------


    POTLOK:  cpu time    0.2198: real time    0.2203
    SETDIJ:  cpu time    0.0250: real time    0.0251
     EDDAV:  cpu time  145.2137: real time  145.5576
    CHARGE:  cpu time    5.5234: real time    5.5365
    MIXING:  cpu time    0.0102: real time    0.0102
    --------------------------------------------
      LOOP:  cpu time  150.9922: real time  151.3498

 eigenvalue-minimisations  : 41280
 total energy-change (2. order) :-0.4920385E+00  (-0.2445384E+00)
 number of electron     432.0000018 magnetization      20.1224919
 augmentation part      182.6318962 magnetization      11.2580745

 Broyden mixing:
  rms(total) = 0.17887E+01    rms(broyden)= 0.17883E+01
  rms(prec ) = 0.22732E+01
  weight for this iteration     100.00

 eigenvalues of (default mixing * dielectric matrix)
  average eigenvalue GAMMA=   0.4024
  1.7515  1.3630  1.3630  0.6151  0.6151  0.3342  0.2957  0.2957  0.2216  0.2018
  0.1538  0.1538  0.1030  0.1030  0.0967  0.0826  0.0826  0.0743  0.0743  0.0678

 Free energy of the ion-electron system (eV)
  ---------------------------------------------------
  alpha Z        PSCENC =      1085.16980774
  Ewald energy   TEWEN  =    -26194.05025974
  -Hartree energ DENC   =    -14361.77327614
  -exchange      EXHF   =         0.00000000
  -V(xc)+E(xc)   XCENC  =      1591.70661670
  PAW double counting   =     45682.25172016   -47616.12484434
  entropy T*S    EENTRO =        -0.08954156
  eigenvalues    EBANDS =     -1149.85916407
  atomic energy  EATOM  =     40708.47505058
  Solvation  Ediel_sol  =         0.00000000
  ---------------------------------------------------
  free energy    TOTEN  =      -254.29389067 eV

  energy without entropy =     -254.20434911  energy(sigma->0) =     -254.24911989


--------------------------------------------------------------------------------------------------------




--------------------------------------- Iteration      1(  26)  ---------------------------------------


    POTLOK:  cpu time    0.2314: real time    0.2320
    SETDIJ:  cpu time    0.0253: real time    0.0254
     EDDAV:  cpu time  147.3915: real time  147.7405
    CHARGE:  cpu time    5.5343: real time    5.5475
    MIXING:  cpu time    0.0104: real time    0.0105
    --------------------------------------------
      LOOP:  cpu time  153.1930: real time  153.5558

 eigenvalue-minimisations  : 42112
 total energy-change (2. order) : 0.3530870E+00  (-0.1611295E+00)
 number of electron     432.0000019 magnetization      20.2363447
 augmentation part      182.7209124 magnetization      11.7825010

 Broyden mixing:
  rms(total) = 0.11571E+01    rms(broyden)= 0.11568E+01
  rms(prec ) = 0.14864E+01
  weight for this iteration     100.00

 eigenvalues of (default mixing * dielectric matrix)
  average eigenvalue GAMMA=   0.4050
  1.7162  1.4325  1.4325  0.6393  0.6393  0.3442  0.3442  0.2913  0.2913  0.2599
  0.1590  0.1590  0.1156  0.1028  0.1028  0.0868  0.0868  0.0800  0.0800  0.0721
  0.0683

 Free energy of the ion-electron system (eV)
[...]
  in kB      -45.2044317    -41.1204751    328.4946087      0.4091292     16.3618041    -42.8991596
  external PRESSURE =      80.7232340 kB  Pullay stress =       0.0000000 kB


 VOLUME and BASIS-vectors are now :
 -----------------------------------------------------------------------------
  energy-cutoff  :      500.00
  volume of cell :      797.10
      direct lattice vectors                 reciprocal lattice vectors
     9.213246000  0.000000000  0.000000000     0.108539379  0.062665240  0.000000000
    -4.606623000  7.978905090  0.000000000     0.000000000  0.125330479  0.000000000
     0.000000000  0.000000000 10.843129500     0.000000000  0.000000000  0.092224297

  length of vectors
     9.213246000  9.213246002 10.843129500     0.125330479  0.125330479  0.092224297


 FORCES acting on ions
    electron-ion (+dipol)            ewald-force                    non-local-force                 convergence-correction
 -----------------------------------------------------------------------------------------------
   0.119E+03 0.119E+03 0.118E+03   -.117E+03 -.117E+03 -.122E+03   -.205E+01 -.158E+01 0.327E+01   -.722E-01 -.131E+00 -.142E+00
   0.135E+03 0.816E+02 -.156E+02   -.135E+03 -.823E+02 0.205E+02   -.912E-01 -.404E+00 0.711E+00   -.668E-01 -.599E-01 0.556E-01
   -.198E+02 0.785E+02 -.179E+03   0.205E+02 -.793E+02 0.180E+03   0.837E-01 0.109E+00 -.986E+00   -.516E-01 0.908E-04 0.637E-01
   -.809E+02 -.533E+02 0.970E+02   0.809E+02 0.532E+02 -.919E+02   -.571E-01 0.535E-02 -.379E+01   -.129E+00 -.787E-02 -.141E+00
   0.223E+02 -.482E+02 0.316E+03   -.221E+02 0.493E+02 -.330E+03   -.133E+00 0.139E+00 -.229E+01   -.161E+00 -.383E-01 0.983E-01
   -.128E+03 0.222E+02 -.387E+02   0.129E+03 -.234E+02 0.361E+02   -.345E+00 0.133E+00 -.353E+01   -.612E-01 -.389E-01 0.757E-01
   -.194E+03 -.110E+03 0.354E+03   0.192E+03 0.110E+03 -.354E+03   0.132E+01 -.659E+00 -.590E+01   0.368E-01 -.326E-02 -.981E-01
   -.103E+03 0.154E+02 0.435E+02   0.102E+03 -.158E+02 -.429E+02   0.638E+00 0.129E+00 0.118E+01   -.885E-02 -.738E-02 0.389E-02
   -.148E+03 -.150E+03 -.334E+03   0.147E+03 0.148E+03 0.348E+03   -.919E-01 -.476E-01 -.163E+01   0.250E-03 -.162E-01 0.876E-01
   0.300E+02 0.307E+03 0.318E+03   -.314E+02 -.306E+03 -.314E+03   0.982E+00 -.110E+01 -.575E+01   0.555E-01 -.127E+00 -.174E+00
   -.988E+02 0.273E+03 0.480E+03   0.103E+03 -.289E+03 -.614E+03   -.570E+00 0.147E+01 0.266E+01   0.864E-01 -.112E+00 0.125E+00
   0.574E+01 0.213E+03 -.188E+03   -.566E+01 -.212E+03 0.195E+03   -.280E+00 -.680E+00 -.687E+01   0.364E-01 -.117E-01 0.105E+00
   0.130E+03 -.325E+02 0.473E+03   -.130E+03 0.320E+02 -.482E+03   -.247E-01 0.131E-01 -.593E+00   -.145E-01 -.520E-01 -.383E+00
   0.161E+03 0.100E+02 -.245E+03   -.165E+03 -.155E+02 0.280E+03   0.675E+00 -.377E+00 -.389E+01   -.546E-01 -.782E-01 0.268E+00
   0.388E+02 0.238E+01 -.194E+03   -.383E+02 -.337E+01 0.196E+03   -.493E+00 0.568E+00 -.608E+00   0.212E-02 -.449E-01 0.137E+00
   0.137E+03 -.840E+02 0.134E+03   -.138E+03 0.821E+02 -.134E+03   0.145E+00 0.152E+01 -.696E-01   -.943E-01 0.101E+00 -.147E+00
   0.952E+02 -.149E+03 0.109E+02   -.937E+02 0.148E+03 -.139E+02   -.764E+00 0.799E+00 0.359E+01   -.986E-01 0.116E+00 0.687E-01
   0.142E+03 -.227E+03 -.247E+03   -.142E+03 0.228E+03 0.256E+03   0.292E+00 0.175E+00 -.756E+00   -.301E-01 0.486E-01 0.887E-01
   -.114E+03 0.161E+03 0.112E+03   0.114E+03 -.162E+03 -.114E+03   -.295E+00 0.612E+00 0.525E+00   0.321E-01 0.403E-01 -.965E-01
   -.114E+02 0.810E+02 0.511E+02   0.110E+02 -.814E+02 -.530E+02   0.382E+00 0.845E-01 0.202E+01   0.214E-01 0.422E-01 0.610E-01
   0.306E+02 0.247E+03 -.307E+03   -.309E+02 -.246E+03 0.312E+03   -.234E+00 -.114E+01 0.246E+01   0.179E-01 0.893E-01 0.453E-01
   0.279E+02 -.107E+03 0.313E+03   -.296E+02 0.109E+03 -.330E+03   0.334E+00 -.669E+00 0.306E+01   0.187E+00 -.116E-02 -.144E+00
   -.504E+02 -.942E+02 -.161E+03   0.516E+02 0.927E+02 0.161E+03   -.117E+01 0.129E+01 0.372E+01   0.178E+00 -.135E-01 0.385E-01
   0.783E+02 -.351E+02 -.221E+03   -.803E+02 0.349E+02 0.219E+03   0.623E+00 0.539E+00 0.403E+01   0.876E-01 -.422E-01 0.803E-01
   -.618E+02 -.113E+03 0.377E+03   0.659E+02 0.110E+03 -.391E+03   -.351E-01 0.548E-01 -.249E+01   0.150E+00 0.111E+00 -.150E+00
   0.641E+02 -.378E+02 0.200E+03   -.631E+02 0.393E+02 -.201E+03   -.813E+00 -.112E+01 -.189E+01   0.922E-01 0.141E+00 0.839E-01
   0.203E+02 -.567E+02 -.492E+03   -.267E+02 0.525E+02 0.522E+03   0.674E+00 0.437E+00 -.131E+01   0.511E-01 0.395E-01 0.114E+00
   0.284E+02 -.292E+02 0.248E+03   -.219E+02 0.404E+02 -.267E+03   -.547E+01 -.968E+01 0.138E+02   -.893E-01 -.130E+00 -.324E-01
   -.174E+02 0.237E+01 -.425E+02   0.250E+02 0.360E+00 0.405E+02   -.884E+01 -.318E+01 0.218E+01   -.477E-01 -.391E-01 0.966E-01
   -.191E+02 0.948E+02 -.120E+03   0.213E+02 -.993E+02 0.125E+03   -.255E+01 0.551E+01 -.411E+01   -.143E-01 -.113E-01 -.303E-01
   -.259E+02 -.922E+01 0.394E+02   0.245E+02 0.388E+01 -.359E+02   0.200E+01 0.660E+01 -.437E+01   -.955E-01 -.156E-01 -.795E-01
   -.386E+02 -.185E+02 -.173E+03   0.411E+02 0.172E+02 0.202E+03   -.301E+01 -.161E+01 -.151E+02   -.712E-01 -.411E-01 0.124E+00
   -.105E+03 -.134E+03 -.258E+03   0.111E+03 0.147E+03 0.278E+03   -.415E+01 -.111E+02 -.130E+02   -.484E-01 -.361E-01 -.455E-01
   -.951E+02 -.627E+02 0.244E+02   0.973E+02 0.669E+02 -.150E+02   -.192E+01 -.324E+01 -.456E+01   0.353E-02 -.210E-01 -.156E+00
   -.652E+02 -.278E+02 0.104E+03   0.636E+02 0.283E+02 -.125E+03   0.180E+01 0.410E+00 0.947E+01   -.689E-03 -.677E-02 0.112E+00
   -.560E+02 -.928E+02 -.185E+03   0.555E+02 0.895E+02 0.197E+03   0.739E+00 0.450E+01 -.128E+02   0.103E-01 -.116E-01 -.435E-03
   -.119E+01 0.165E+03 -.380E+02   -.104E+01 -.166E+03 0.505E+02   0.252E+01 0.756E+00 -.108E+02   0.533E-01 -.110E+00 -.638E-01
   -.145E+02 0.560E+02 -.413E+03   0.662E+01 -.344E+02 0.574E+03   0.464E+01 -.691E+01 -.294E+02   0.428E-01 -.442E-01 0.166E+00
   0.469E+02 0.105E+03 -.145E+03   -.467E+02 -.102E+03 0.157E+03   -.444E+00 -.353E+01 -.123E+02   0.153E-01 -.174E-01 -.640E-01
   0.645E+01 -.130E+03 0.127E+03   0.325E+01 0.145E+03 -.151E+03   -.523E+01 -.823E+01 0.408E+01   0.362E-01 0.484E-01 -.172E+00
   0.186E+02 -.595E+00 0.304E+02   -.153E+02 -.367E+01 -.374E+02   -.440E+01 0.491E+01 0.512E+01   0.326E-01 -.225E-01 0.263E+00
   0.296E+02 0.111E+02 -.229E+03   -.322E+02 -.133E+02 0.245E+03   0.298E+01 0.266E+01 -.180E+02   -.121E-01 -.296E-01 -.796E-01
   0.863E+02 -.753E+02 0.160E+03   -.863E+02 0.805E+02 -.169E+03   0.114E+00 -.574E+01 0.793E+01   -.600E-01 0.799E-01 -.793E-01
   0.559E+02 0.108E+02 0.863E+02   -.554E+02 -.267E+02 -.103E+03   -.962E+00 0.150E+02 0.905E+01   -.364E-01 0.228E-01 0.112E+00
   0.899E+02 -.433E+02 -.155E+03   -.930E+02 0.407E+02 0.162E+03   0.356E+01 0.366E+01 -.621E+01   -.329E-01 0.113E-01 -.128E-01
   -.743E+02 0.117E+03 0.158E+02   0.777E+02 -.122E+03 -.110E+02   -.345E+01 0.590E+01 -.356E+01   0.136E-01 0.346E-01 -.549E-01
   0.255E+02 0.450E+02 0.127E+03   -.268E+02 -.408E+02 -.145E+03   0.134E+01 -.365E+01 0.101E+02   0.125E-01 0.279E-01 0.128E+00
   -.386E+02 0.125E+03 0.497E+02   0.381E+02 -.128E+03 -.594E+02   0.785E+00 0.226E+01 0.981E+01   0.984E-02 0.369E-01 -.467E-01
   -.960E+02 -.196E+02 -.705E+02   0.104E+03 0.153E+02 0.877E+02   -.641E+01 0.364E+01 -.598E+01   0.119E+00 -.471E-02 -.340E-01
   0.435E+02 -.367E+02 0.128E+03   -.532E+02 0.408E+02 -.143E+03   0.100E+02 -.453E+01 0.123E+02   0.781E-01 -.211E-01 0.109E+00
   0.230E+02 -.457E+02 0.404E+02   -.215E+02 0.458E+02 -.472E+02   -.192E+01 -.137E-01 0.697E+01   0.574E-01 -.481E-02 -.580E-01
   0.796E+02 -.148E+03 -.140E+03   -.939E+02 0.160E+03 0.172E+03   0.976E+01 -.822E+01 -.171E+02   0.583E-01 0.105E+00 -.441E-01
   -.919E+02 -.791E+02 0.132E+03   0.109E+03 0.864E+02 -.169E+03   -.125E+02 -.316E+01 0.994E+01   0.476E-01 0.419E-01 0.917E-01
   -.197E+00 -.691E+02 -.487E+02   0.498E+00 0.733E+02 0.485E+02   -.210E+00 -.530E+01 0.453E+00   0.374E-01 0.329E-01 -.345E-01
 -----------------------------------------------------------------------------------------------
   0.222E+02 0.223E+02 0.710E+02   -.155E-12 -.455E-12 -.711E-13   -.225E+02 -.221E+02 -.712E+02   0.312E+00 -.183E+00 0.240E+00
 
 
 POSITION                                       TOTAL-FORCE (eV/Angst)
 -----------------------------------------------------------------------------------
      0.28097      0.04422     10.81406         0.042029      0.132052     -0.870501
      4.22330      7.49440      3.57149        -0.626955     -1.238352      5.663582
      8.94172      0.14034      7.09523         0.684401     -0.725663      0.149804
      7.55595      2.52262     10.62148        -0.181198     -0.152067      1.195824
      7.42412      2.92457      3.85493        -0.040610      1.241952    -15.761571
      7.12730      2.00065      7.04192         0.518817     -1.169728     -6.055664
      5.65451      4.85855      0.08136        -0.551017     -1.167121     -5.909350
      5.67199      5.32425      3.30268        -0.125368     -0.307484      1.857327
      5.76992      5.21416      6.65245        -0.320221     -1.795593     12.226700
      2.90811      0.12215      0.22062        -0.313161      0.641552     -1.551111
      2.80675      0.06810      3.98162         4.102973    -15.113441   -131.636553
      2.99638      0.13404      6.86154        -0.158742      0.783639      0.541676
      1.46870      2.48441      0.44156         0.144008     -0.573100     -9.961389
      1.20464      2.29735      3.18242        -4.208155     -5.994644     30.964115
      1.48556      2.68921      6.80031        -0.045247     -0.468564      1.276129
      0.26353      4.96815     10.64686        -0.533877     -0.278243      0.033510
     -0.23058      4.98615      3.50220         0.651455     -0.731710      0.675071
      0.04471      5.14563      6.81341         0.715797      1.358730      8.008326
      5.56205      0.11525     10.67489         0.217248     -0.509692     -1.023792
      6.05645      0.11028      3.34499        -0.066400     -0.323998      0.244269
      1.45931      7.81111      6.75515        -0.489830     -0.522430      7.596085
      4.28140      2.37995     10.82759        -1.228801      1.336845    -14.204465
      4.45457      2.23283      3.04340         0.210400     -0.187650      3.537092
      4.93023      2.42851      6.85752        -1.352203      0.227969      2.494878
      3.09122      4.89105      0.15898         4.212720     -3.176826    -15.983797
      2.61547      5.20134      3.65197         0.319132      0.522978     -1.925812
      2.77406      4.87937      6.56435        -5.667605     -3.737123     29.017216
      0.02464      0.12121      2.20572         0.942336      1.411527     -5.567366
     -4.56632      7.94756      5.31780        -1.351915     -0.485823      0.226938
      4.66060      7.78473      8.81520        -0.369045      0.964710      0.754560
      7.37837      2.26061      1.74392         0.469189      1.247799     -0.997048
      7.42831      2.73316      5.27095        -0.539321     -2.947979     14.300999
      7.41169      2.58486      8.42697         1.179187      1.456727      6.984329
      5.71593      5.18656      1.59821         0.295717      0.959806      4.743227
      5.70196      5.25607      5.18317         0.184394      0.965728    -11.548346
      5.64026      4.71522      8.41114         0.239326      1.176393     -1.337661
      2.70249      0.10388      1.87956         0.345715     -0.555820      1.625265
      2.77254      0.19837      5.03544        -3.226005     14.606114    131.358355
      3.03117      0.30514      8.62898        -0.177577     -0.627808     -1.005694
      1.44133      2.58488      1.92143         4.505842      6.827065    -20.049228
      1.63133      2.28017      5.13488        -1.065504      0.617718     -1.600833
      1.25842      2.50927      8.49956         0.403505      0.444686     -1.341609
     -0.09837      5.24443      1.81293         0.077392     -0.524878     -1.235493
      0.00829      4.55560      5.40410        -0.506655     -0.887647     -7.971150
     -0.08413      4.88540      8.57019         0.424975      1.078224      0.864725
      1.30216      7.81191      1.49008        -0.049241      0.523907      1.174858
      6.03694      0.07229      5.24563         0.010246      0.510983     -8.074599
      1.09029      7.87675      8.94173         0.310701     -0.016115      0.021017
      4.50522      2.21785      1.40444         1.542565     -0.697687     11.193167
      4.30331      2.62623      5.34101         0.395071     -0.459076     -1.808254
      4.66940      2.43960      8.99236        -0.379801      0.081217      0.133165
      2.61125      5.22254      1.44981        -4.445452      3.116552     15.128924
      3.04668      5.08738      5.28176         4.746362      4.159747    -26.801047
      2.94219      5.32873      8.78692         0.128401     -1.018357      0.231201
 -----------------------------------------------------------------------------------
    total drift:                                0.005554     -0.001215      0.020904


--------------------------------------------------------------------------------------------------------



  FREE ENERGIE OF THE ION-ELECTRON SYSTEM (eV)
  ---------------------------------------------------
  free  energy   TOTEN  =      -254.2041188770 eV

  energy  without entropy=     -254.1399570047  energy(sigma->0) =     -254.17203794
 


--------------------------------------------------------------------------------------------------------


    POTLOK:  cpu time    0.2578: real time    0.2584


--------------------------------------------------------------------------------------------------------


     LOOP+:  cpu time10108.9892: real time10133.7185
    4ORBIT:  cpu time    0.0000: real time    0.0000

volume of typ            1:    21.6 %

volume of typ            2:     5.5 %
 
total charge     
 
# of ion       s       p       d       tot
------------------------------------------
    1        0.184   0.096   7.958   8.238
    2        0.324   0.325   7.898   8.547
    3        0.257   0.223   7.876   8.356
    4        0.190   0.099   7.925   8.214
    5        0.352   0.336   7.998   8.686
    6        0.350   0.353   7.933   8.636
    7        0.290   0.226   7.985   8.500
    8        0.250   0.218   7.956   8.424
    9        0.360   0.375   7.927   8.662
   10        0.265   0.196   7.924   8.384
   11        0.645   0.702   8.367   9.714
   12        0.235   0.204   7.935   8.374
   13        0.308   0.270   8.061   8.639
   14        0.397   0.452   8.123   8.971
   15        0.292   0.288   7.869   8.449
   16        0.178   0.102   7.931   8.211
   17        0.260   0.208   7.919   8.387
   18        0.330   0.355   7.921   8.606
   19        0.292   0.275   7.861   8.427
   20        0.217   0.165   7.931   8.314
   21        0.309   0.275   7.975   8.559
   22        0.358   0.406   7.986   8.749
   23        0.241   0.184   8.001   8.426
   24        0.280   0.235   7.899   8.414
   25        0.373   0.364   7.984   8.722
   26        0.227   0.169   8.005   8.401
   27        0.391   0.423   8.105   8.919
   28        1.288   2.720   0.011   4.019
   29        1.272   2.710   0.005   3.987
   30        1.276   2.667   0.004   3.947
   31        1.285   2.620   0.002   3.907
   32        1.287   2.803   0.020   4.110
   33        1.288   2.720   0.012   4.020
   34        1.270   2.792   0.015   4.078
   35        1.278   2.798   0.017   4.094
   36        1.288   2.626   0.003   3.917
   37        1.276   2.706   0.006   3.989
   38        1.337   3.030   0.069   4.437
   39        1.288   2.636   0.004   3.927
   40        1.311   2.943   0.050   4.304
   41        1.273   2.721   0.005   3.999
   42        1.296   2.631   0.005   3.932
   43        1.274   2.687   0.006   3.967
   44        1.278   2.776   0.013   4.067
   45        1.276   2.669   0.004   3.949
   46        1.270   2.718   0.006   3.994
   47        1.275   2.763   0.014   4.052
   48        1.281   2.660   0.004   3.945
   49        1.282   2.850   0.025   4.157
   50        1.286   2.685   0.007   3.978
   51        1.288   2.629   0.003   3.920
   52        1.292   2.786   0.020   4.098
   53        1.300   2.879   0.036   4.215
   54        1.297   2.573   0.001   3.871
--------------------------------------------------
tot          42.87   81.32  215.62  339.81
 
magnetization (x)
 
# of ion       s       p       d       tot
------------------------------------------
    1       -0.003  -0.002   0.923   0.918
    2       -0.014  -0.010  -1.028  -1.052
    3        0.010  -0.003   1.000   1.008
    4        0.008   0.000   1.089   1.097
    5        0.020   0.013   0.964   0.997
    6        0.006   0.007   0.913   0.925
    7        0.007   0.007   0.981   0.995
    8        0.006   0.004   0.324   0.334
    9       -0.006  -0.007  -0.728  -0.741
   10        0.003   0.003   1.054   1.060
   11        0.000  -0.005   0.079   0.074
   12       -0.010   0.002  -0.314  -0.322
   13       -0.001  -0.001   0.394   0.392
   14        0.021   0.011   0.172   0.204
   15        0.026  -0.004   0.958   0.980
   16        0.004  -0.001   1.154   1.157
   17        0.013   0.005   0.927   0.945
   18        0.028   0.005   0.968   1.001
   19        0.016  -0.006   1.174   1.183
   20       -0.004   0.002  -0.667  -0.668
   21       -0.005  -0.010  -0.587  -0.602
   22        0.014  -0.000   0.817   0.831
   23        0.012   0.006   0.600   0.618
   24        0.009   0.004   1.161   1.175
   25        0.025   0.013   1.085   1.123
   26       -0.013  -0.003  -0.464  -0.480
   27       -0.012  -0.023  -0.411  -0.446
   28       -0.008  -0.355  -0.001  -0.364
   29       -0.001  -0.018   0.000  -0.019
   30        0.014   0.485   0.000   0.499
   31        0.012   0.484   0.000   0.496
   32        0.011   0.398   0.001   0.410
   33        0.010   0.413   0.001   0.423
   34        0.009   0.340   0.000   0.350
   35       -0.007  -0.258  -0.001  -0.265
   36        0.006   0.219  -0.000   0.225
   37        0.011   0.421   0.000   0.432
   38       -0.000   0.007   0.002   0.008
   39       -0.000  -0.022  -0.000  -0.022
   40        0.002   0.135  -0.000   0.136
   41        0.002   0.083   0.000   0.086
   42        0.012   0.618  -0.000   0.630
   43        0.013   0.480   0.000   0.493
   44        0.009   0.273   0.001   0.283
   45        0.014   0.506   0.000   0.520
   46        0.007   0.294   0.000   0.301
   47       -0.009  -0.319   0.000  -0.328
   48        0.012   0.516   0.000   0.528
   49        0.009   0.301   0.001   0.310
   50        0.011   0.454   0.000   0.465
   51        0.015   0.607   0.000   0.622
   52        0.010   0.429   0.002   0.440
   53       -0.005  -0.217   0.000  -0.222
   54        0.014   0.670  -0.000   0.684
--------------------------------------------------
tot           0.33    6.95   12.54   19.83
 

 total amount of memory used by VASP MPI-rank0   457770. kBytes
=======================================================================

   base      :      30000. kBytes
   nonlr-proj:      38531. kBytes
   fftplans  :       8419. kBytes
   grid      :      47806. kBytes
   one-center:       1679. kBytes
   wavefun   :     331335. kBytes
 
  
  
 General timing and accounting informations for this job:
 ========================================================
  
                  Total CPU time used (sec):    10194.957
                            User time (sec):    10183.042
                          System time (sec):       11.915
                         Elapsed time (sec):    10223.748
  
                   Maximum memory used (kb):      559468.
                   Average memory used (kb):           0.
  
                          Minor page faults:        48329
                          Major page faults:           20
                 Voluntary context switches:         1223
