 vasp.5.4.4.18Apr17-6-g9f103f2a35 (build May 12 2020 04:58:55) complex          
  
 MD_VERSION_INFO: Compiled 2020-05-12T11:58:55-UTC in devlin.sd.materialsdesign.
 com:/home/medea2/data/build/wwolf/vasp-gpu5.4.4/13047/x86_64/src/src/build/std 
 from svn 13047
 
 This VASP executable licensed from Materials Design, Inc.
 
 executed on                        Lin64 date 2023.03.24  04:02:57
 running on   16 total cores
 distrk:  each k-point on   16 cores,    1 groups
 distr:  one band on NCORES_PER_BAND=   1 cores,   16 groups


--------------------------------------------------------------------------------------------------------


 INCAR:
 POTCAR:    PAW_PBE Ni 02Aug2007                  
 POTCAR:    PAW_PBE O 08Apr2002                   

 ----------------------------------------------------------------------------- 
|                                                                             |
|           W    W    AA    RRRRR   N    N  II  N    N   GGGG   !!!           |
|           W    W   A  A   R    R  NN   N  II  NN   N  G    G  !!!           |
|           W    W  A    A  R    R  N N  N  II  N N  N  G       !!!           |
|           W WW W  AAAAAA  RRRRR   N  N N  II  N  N N  G  GGG   !            |
|           WW  WW  A    A  R   R   N   NN  II  N   NN  G    G                |
|           W    W  A    A  R    R  N    N  II  N    N   GGGG   !!!           |
|                                                                             |
|      For optimal performance we recommend to set                            |
|        NCORE= 4 - approx SQRT( number of cores)                             |
|      NCORE specifies how many cores store one orbital (NPAR=cpu/NCORE).     |
|      This setting can  greatly improve the performance of VASP for DFT.     |
|      The default,   NCORE=1            might be grossly inefficient         |
|      on modern multi-core architectures or massively parallel machines.     |
|      Do your own testing !!!!                                               |
|      Unfortunately you need to use the default for GW and RPA calculations. |
|      (for HF NCORE is supported but not extensively tested yet)             |
|                                                                             |
 ----------------------------------------------------------------------------- 

 POTCAR:    PAW_PBE Ni 02Aug2007                  
  local pseudopotential read in
  partial core-charges read in
  partial kinetic energy density read in
  atomic valenz-charges read in
  non local Contribution for L=           2  read in
    real space projection operators read in
  non local Contribution for L=           2  read in
    real space projection operators read in
  non local Contribution for L=           0  read in
    real space projection operators read in
  non local Contribution for L=           0  read in
    real space projection operators read in
  non local Contribution for L=           1  read in
    real space projection operators read in
  non local Contribution for L=           1  read in
    real space projection operators read in
    PAW grid and wavefunctions read in
 
   number of l-projection  operators is LMAX  =           6
   number of lm-projection operators is LMMAX =          18
 
 POTCAR:    PAW_PBE O 08Apr2002                   
  local pseudopotential read in
  partial core-charges read in
  partial kinetic energy density read in
  kinetic energy density of atom read in
  atomic valenz-charges read in
  non local Contribution for L=           0  read in
    real space projection operators read in
  non local Contribution for L=           0  read in
    real space projection operators read in
  non local Contribution for L=           1  read in
    real space projection operators read in
  non local Contribution for L=           1  read in
    real space projection operators read in
    PAW grid and wavefunctions read in
 
   number of l-projection  operators is LMAX  =           4
   number of lm-projection operators is LMMAX =           8
 
 Optimization of the real space projectors (new method)

 maximal supplied QI-value         = 16.25
 optimisation between [QCUT,QGAM] = [ 11.38, 22.75] = [ 36.24,144.96] Ry 
 Optimized for a Real-space Cutoff    1.47 Angstroem

   l    n(q)    QCUT    max X(q) W(low)/X(q) W(high)/X(q)  e(spline) 
   2      9    11.376    60.317    0.17E-03    0.16E-04    0.16E-06
   2      9    11.376    55.921    0.17E-03    0.16E-04    0.17E-06
   0     10    11.376    51.690    0.45E-04    0.60E-04    0.21E-06
   0     10    11.376    30.015    0.37E-04    0.55E-04    0.19E-06
   1     10    11.376    18.849    0.83E-04    0.11E-03    0.92E-07
   1     10    11.376    14.624    0.69E-04    0.92E-04    0.82E-07
 Optimization of the real space projectors (new method)

 maximal supplied QI-value         = 24.76
 optimisation between [QCUT,QGAM] = [ 11.39, 22.77] = [ 36.31,145.25] Ry 
 Optimized for a Real-space Cutoff    1.10 Angstroem

   l    n(q)    QCUT    max X(q) W(low)/X(q) W(high)/X(q)  e(spline) 
   0      7    11.387    20.381    0.22E-03    0.48E-03    0.18E-06
   0      7    11.387    15.268    0.22E-03    0.52E-03    0.19E-06
   1      7    11.387     5.964    0.22E-03    0.73E-03    0.24E-06
   1      7    11.387     5.382    0.19E-03    0.60E-03    0.21E-06

 ----------------------------------------------------------------------------- 
|                                                                             |
|  ADVICE TO THIS USER RUNNING 'VASP/VAMP'   (HEAR YOUR MASTER'S VOICE ...):  |
|                                                                             |
|      You enforced a specific xc-type in the INCAR file,                     |
|      a different type was found on the POTCAR file                          |
|          I HOPE YOU KNOW, WHAT YOU ARE  DOING                               |
|                                                                             |
 ----------------------------------------------------------------------------- 

  PAW_PBE Ni 02Aug2007                  :
 energy of atom  1       EATOM=-1077.6739
 kinetic energy error for atom=    0.0030 (will be added to EATOM!!)
  PAW_PBE O 08Apr2002                   :
 energy of atom  2       EATOM= -432.3788
 kinetic energy error for atom=    0.0224 (will be added to EATOM!!)
 
 
 POSCAR: NiO_Cmmm_scale_1_025_disp_0_05_round_1  
  positions in direct lattice
  No initial velocities read in
 exchange correlation table for  LEXCH =       14
   RHO(1)=    0.500       N(1)  =     2000
   RHO(2)=  100.500       N(2)  =     4000
 


--------------------------------------------------------------------------------------------------------


 ion  position               nearest neighbor table
   1  0.005  0.995  0.999-  28 1.67  30 1.91  10 2.84  13 2.90   7 2.95
   2  0.004  0.002  0.318-  28 1.71  29 1.90  11 2.86  14 2.96   8 2.97
   3  0.006  0.001  0.648-  29 1.60  30 1.80  12 2.75  15 2.93   9 3.01
   4  0.978  0.329  0.994-  31 1.79  33 2.02  19 2.90   7 2.94  22 2.99  16 3.04
   5  0.980  0.333  0.325-  31 1.72  32 1.78  23 2.90  20 2.93   8 2.96  17 3.05
   6  0.975  0.329  0.658-  33 1.53  32 1.76   9 2.92  21 2.95  24 3.00  18 3.08
   7  0.977  0.654  0.997-  34 1.77  36 1.97   4 2.94   1 2.95  25 2.96  22 3.05
   8  0.967  0.656  0.330-  35 1.68  34 1.76  26 2.73  23 2.88   5 2.96   2 2.97
   9  0.965  0.648  0.658-  36 1.62  35 1.81  24 2.89  27 2.90   6 2.92   3 3.01
  10  0.325  0.004  0.001-  37 1.74  39 1.87  22 2.81   1 2.84  13 2.89  19 2.97
  11  0.320  0.998  0.329-  38 1.63  37 1.74   2 2.86  20 2.88  23 2.99  14 3.03
  12  0.307  0.992  0.645-  38 1.72  39 1.90   3 2.75  15 3.01  21 3.02  24 3.03
  13  0.322  0.323  0.999-  40 1.73  42 1.97  10 2.89  22 2.89   1 2.90  25 2.98  16 2.98
  14  0.327  0.338  0.317-  40 1.64  41 1.84  17 2.83  26 2.90   2 2.96  23 3.01  11 3.03
  15  0.322  0.334  0.650-  41 1.68  42 1.73  27 2.81  18 2.83  24 2.90   3 2.93  12 3.01
  16  0.325  0.656  0.995-  43 1.79  45 1.93  25 2.92  13 2.98   4 3.04  19 3.07
  17  0.334  0.656  0.316-  43 1.61  44 1.86  14 2.83  26 2.97  20 3.04   5 3.05
  18  0.333  0.653  0.651-  44 1.69  45 1.72  27 2.82  15 2.83  21 2.99   6 3.08
  19  0.656  0.006  0.995-  46 1.76  48 1.92  22 2.86   4 2.90  10 2.97  16 3.07
  20  0.647  0.014  0.328-  47 1.66  46 1.78  23 2.79  11 2.88   5 2.93  17 3.04
  21  0.647  0.001  0.651-  48 1.73  47 1.76   6 2.95  24 2.97  18 2.99  12 3.02
  22  0.639  0.315  0.993-  49 1.76  51 1.93  10 2.81  19 2.86  13 2.89   4 2.99  25 3.04   7 3.05

  23  0.656  0.327  0.333-  50 1.61  49 1.85  20 2.79  26 2.87   8 2.88   5 2.90  11 2.99  14 3.01

  24  0.642  0.329  0.656-  51 1.65  50 1.81  27 2.82   9 2.89  15 2.90  21 2.97   6 3.00  12 3.03

  25  0.650  0.658  0.999-  52 1.69  54 1.92  16 2.92   7 2.96  13 2.98  22 3.04
  26  0.660  0.649  0.321-  52 1.73  53 1.74   8 2.73  23 2.87  14 2.90  17 2.97
  27  0.640  0.641  0.646-  53 1.70  54 1.82  15 2.81  24 2.82  18 2.82   9 2.90
  28  0.991  0.993  0.156-   1 1.67   2 1.71
  29  0.003  0.004  0.497-   3 1.60   2 1.90
  30  0.009  0.009  0.818-   3 1.80   1 1.91
  31  0.983  0.334  0.162-   5 1.72   4 1.79
  32  0.986  0.327  0.493-   6 1.76   5 1.78
  33  0.973  0.334  0.803-   6 1.53   4 2.02
  34  0.981  0.659  0.164-   8 1.76   7 1.77
  35  0.976  0.650  0.488-   8 1.68   9 1.81
  36  0.984  0.655  0.811-   9 1.62   7 1.97
  37  0.324  0.997  0.165-  11 1.74  10 1.74
  38  0.316  0.003  0.483-  11 1.63  12 1.72
  39  0.334  0.006  0.824-  10 1.87  12 1.90
  40  0.336  0.330  0.163-  14 1.64  13 1.73
  41  0.323  0.324  0.491-  15 1.68  14 1.84
  42  0.318  0.321  0.813-  15 1.73  13 1.97
  43  0.334  0.663  0.164-  17 1.61  16 1.79
  44  0.332  0.650  0.492-  18 1.69  17 1.86
  45  0.321  0.656  0.813-  18 1.72  16 1.93
  46  0.660  0.009  0.161-  19 1.76  20 1.78
  47  0.653  0.000  0.485-  20 1.66  21 1.76
  48  0.646  0.994  0.814-  21 1.73  19 1.92
  49  0.643  0.329  0.159-  22 1.76  23 1.85
  50  0.657  0.330  0.485-  23 1.61  24 1.81
  51  0.646  0.322  0.811-  24 1.65  22 1.93
  52  0.655  0.652  0.158-  25 1.69  26 1.73
  53  0.660  0.655  0.486-  27 1.70  26 1.74
  54  0.650  0.645  0.818-  27 1.82  25 1.92
 
  LATTYP: Found a hexagonal cell.
 ALAT       =     8.9938830029
 C/A-ratio  =     1.1769065427
  
  Lattice vectors:
  
 A1 = (   8.9938830000,   0.0000000000,   0.0000000000)
 A2 = (  -4.4969415000,   7.7889311600,   0.0000000000)
 A3 = (   0.0000000000,   0.0000000000,  10.5849597500)


Analysis of symmetry for initial positions (statically):
=====================================================================
 Subroutine PRICEL returns:
 Original cell was already a primitive cell.
 

 Routine SETGRP: Setting up the symmetry group for a 
 hexagonal supercell.


 Subroutine GETGRP returns: Found  1 space group operations
 (whereof  1 operations were pure point group operations)
 out of a pool of 24 trial point group operations.


The static configuration has the point symmetry C_1 .


Analysis of symmetry for dynamics (positions and initial velocities):
=====================================================================
 Subroutine PRICEL returns:
 Original cell was already a primitive cell.
 

 Routine SETGRP: Setting up the symmetry group for a 
 hexagonal supercell.


 Subroutine GETGRP returns: Found  1 space group operations
 (whereof  1 operations were pure point group operations)
 out of a pool of 24 trial point group operations.


The dynamic configuration has the point symmetry C_1 .


Analysis of structural, dynamic, and magnetic symmetry:
=====================================================================
 Subroutine PRICEL returns:
 Original cell was already a primitive cell.
 

 Routine SETGRP: Setting up the symmetry group for a 
 hexagonal supercell.


 Subroutine GETGRP returns: Found  1 space group operations
 (whereof  1 operations were pure point group operations)
 out of a pool of 24 trial point group operations.


The magnetic configuration has the point symmetry C_1 .


 Subroutine INISYM returns: Found  1 space group operations
 (whereof  1 operations are pure point group operations),
 and found     1 'primitive' translations

 
 
 KPOINTS: Automatic mesh                          

Automatic generation of k-mesh.
Space group operators:
 irot       det(A)        alpha          n_x          n_y          n_z        tau_x        tau_y        tau_z
    1     1.000000     0.000000     1.000000     0.000000     0.000000     0.000000     0.000000     0.000000
 
 Subroutine IBZKPT returns following result:
 ===========================================
 
 Found     26 irreducible k-points:
 
 Following reciprocal coordinates:
            Coordinates               Weight
  0.000000  0.000000  0.000000      1.000000
  0.250000 -0.000000  0.000000      2.000000
  0.500000 -0.000000  0.000000      1.000000
  0.000000  0.250000  0.000000      2.000000
  0.250000  0.250000  0.000000      2.000000
  0.500000  0.250000  0.000000      2.000000
 -0.250000  0.250000  0.000000      2.000000
  0.000000  0.500000  0.000000      1.000000
  0.250000  0.500000  0.000000      2.000000
  0.500000  0.500000  0.000000      1.000000
  0.000000  0.000000  0.333333      2.000000
  0.250000 -0.000000  0.333333      2.000000
  0.500000 -0.000000  0.333333      2.000000
 -0.250000  0.000000  0.333333      2.000000
  0.000000  0.250000  0.333333      2.000000
  0.250000  0.250000  0.333333      2.000000
  0.500000  0.250000  0.333333      2.000000
 -0.250000  0.250000  0.333333      2.000000
  0.000000  0.500000  0.333333      2.000000
  0.250000  0.500000  0.333333      2.000000
  0.500000  0.500000  0.333333      2.000000
 -0.250000  0.500000  0.333333      2.000000
  0.000000 -0.250000  0.333333      2.000000
  0.250000 -0.250000  0.333333      2.000000
  0.500000 -0.250000  0.333333      2.000000
 -0.250000 -0.250000  0.333333      2.000000
 
 Following cartesian coordinates:
            Coordinates               Weight
  0.000000  0.000000  0.000000      1.000000
  0.027797  0.016048  0.000000      2.000000
  0.055593  0.032097  0.000000      1.000000
  0.000000  0.032097  0.000000      2.000000
  0.027797  0.048145  0.000000      2.000000
  0.055593  0.064194  0.000000      2.000000
 -0.027797  0.016048  0.000000      2.000000
  0.000000  0.064194  0.000000      1.000000
  0.027797  0.080242  0.000000      2.000000
  0.055593  0.096290  0.000000      1.000000
  0.000000  0.000000  0.031491      2.000000
  0.027797  0.016048  0.031491      2.000000
  0.055593  0.032097  0.031491      2.000000
 -0.027797 -0.016048  0.031491      2.000000
  0.000000  0.032097  0.031491      2.000000
  0.027797  0.048145  0.031491      2.000000
  0.055593  0.064194  0.031491      2.000000
 -0.027797  0.016048  0.031491      2.000000
  0.000000  0.064194  0.031491      2.000000
  0.027797  0.080242  0.031491      2.000000
  0.055593  0.096290  0.031491      2.000000
 -0.027797  0.048145  0.031491      2.000000
  0.000000 -0.032097  0.031491      2.000000
  0.027797 -0.016048  0.031491      2.000000
  0.055593  0.000000  0.031491      2.000000
 -0.027797 -0.048145  0.031491      2.000000
 


--------------------------------------------------------------------------------------------------------




 Dimension of arrays:
   k-points           NKPTS =     26   k-points in BZ     NKDIM =     26   number of bands    NBANDS=    304
   number of dos      NEDOS =    301   number of ions     NIONS =     54
   non local maximal  LDIM  =      6   non local SUM 2l+1 LMDIM =     18
   total plane-waves  NPLWV = 392000
   max r-space proj   IRMAX =   7147   max aug-charges    IRDMAX=  17334
   dimension x,y,z NGX =    70 NGY =   70 NGZ =   80
   dimension x,y,z NGXF=   140 NGYF=  140 NGZF=  160
   support grid    NGXF=   140 NGYF=  140 NGZF=  160
   ions per type =              27  27
   NGX,Y,Z   is equivalent  to a cutoff of  12.94, 12.94, 12.56 a.u.
   NGXF,Y,Z  is equivalent  to a cutoff of  25.88, 25.88, 25.13 a.u.

 SYSTEM =  unknown system                          
 POSCAR =  NiO_Cmmm_scale_1_025_disp_0_05_round_1  

 Startparameter for this run:
   NWRITE =      1    write-flag & timer
   PREC   = accura    normal or accurate (medium, high low for compatibility)
   ISTART =      0    job   : 0-new  1-cont  2-samecut
   ICHARG =      2    charge: 1-file 2-atom 10-const
   ISPIN  =      2    spin polarized calculation?
   LNONCOLLINEAR =      F non collinear calculations
   LSORBIT =      F    spin-orbit coupling
   INIWAV =      1    electr: 0-lowe 1-rand  2-diag
   LASPH  =      F    aspherical Exc in radial PAW
   METAGGA=      F    non-selfconsistent MetaGGA calc.

 Electronic Relaxation 1
   ENCUT  =  500.0 eV  36.75 Ry    6.06 a.u.  16.40 16.40 19.30*2*pi/ulx,y,z
   ENINI  =  500.0     initial cutoff
   ENAUG  =  605.4 eV  augmentation charge cutoff
   NELM   =     80;   NELMIN=  2; NELMDL= -5     # of ELM steps 
   EDIFF  = 0.1E-04   stopping-criterion for ELM
   LREAL  =      T    real-space projection
   NLSPLINE    = F    spline interpolate recip. space projectors
   LCOMPAT=      F    compatible to vasp.4.4
   GGA_COMPAT  = T    GGA compatible to vasp.4.4-vasp.4.6
   LMAXPAW     = -100 max onsite density
   LMAXMIX     =    2 max onsite mixed and CHGCAR
   VOSKOWN=      1    Vosko Wilk Nusair interpolation
   ROPT   =   -0.00025  -0.00025
 Ionic relaxation
   EDIFFG = 0.1E-03   stopping-criterion for IOM
   NSW    =      0    number of steps for IOM
   NBLOCK =      1;   KBLOCK =      1    inner block; outer block 
   IBRION =     -1    ionic relax: 0-MD 1-quasi-New 2-CG
   NFREE  =      0    steps in history (QN), initial steepest desc. (CG)
   ISIF   =      2    stress and relaxation
   IWAVPR =     10    prediction:  0-non 1-charg 2-wave 3-comb
   ISYM   =      2    0-nonsym 1-usesym 2-fastsym
   LCORR  =      T    Harris-Foulkes like correction to forces

   POTIM  = 0.5000    time-step for ionic-motion
   TEIN   =    0.0    initial temperature
   TEBEG  =    0.0;   TEEND  =   0.0 temperature during run
   SMASS  =  -3.00    Nose mass-parameter (am)
   estimated Nose-frequenzy (Omega)   =  0.10E-29 period in steps =****** mass=  -0.185E-26a.u.
   SCALEE = 1.0000    scale energy and forces
   NPACO  =    256;   APACO  = 16.0  distance and # of slots for P.C.
   PSTRESS=    0.0 pullay stress

  Mass of Ions in am
   POMASS =  58.69 16.00
  Ionic Valenz
   ZVAL   =  10.00  6.00
  Atomic Wigner-Seitz radii
   RWIGS  =   1.15  0.73
  virtual crystal weights 
   VCA    =   1.00  1.00
   NELECT =     432.0000    total number of electrons
   NUPDOWN=      -1.0000    fix difference up-down

 DOS related values:
   EMIN   =  10.00;   EMAX   =-10.00  energy-range for DOS
   EFERMI =   0.00
   ISMEAR =     0;   SIGMA  =   0.05  broadening in eV -4-tet -1-fermi 0-gaus

 Electronic relaxation 2 (details)
   IALGO  =     38    algorithm
   LDIAG  =      T    sub-space diagonalisation (order eigenvalues)
   LSUBROT=      F    optimize rotation matrix (better conditioning)
   TURBO    =      0    0=normal 1=particle mesh
   IRESTART =      0    0=no restart 2=restart with 2 vectors
   NREBOOT  =      0    no. of reboots
   NMIN     =      0    reboot dimension
   EREF     =   0.00    reference energy to select bands
   IMIX   =      4    mixing-type and parameters
     AMIX     =   0.40;   BMIX     =  1.00
     AMIX_MAG =   1.60;   BMIX_MAG =  1.00
     AMIN     =   0.10
     WC   =   100.;   INIMIX=   1;  MIXPRE=   1;  MAXMIX= -45

 Intra band minimization:
   WEIMIN = 0.0000     energy-eigenvalue tresh-hold
   EBREAK =  0.82E-08  absolut break condition
   DEPER  =   0.30     relativ break condition  

   TIME   =   0.40     timestep for ELM

  volume/ion in A,a.u.               =      13.73        92.67
  Fermi-wavevector in a.u.,A,eV,Ry     =   1.367303  2.583827 25.436315  1.869516
  Thomas-Fermi vector in A             =   2.493367
 
 Write flags
   LWAVE        =      F    write WAVECAR
   LDOWNSAMPLE  =      F    k-point downsampling of WAVECAR
   LCHARG       =      T    write CHGCAR
   LVTOT        =      F    write LOCPOT, total local potential
   LVHAR        =      F    write LOCPOT, Hartree potential only
   LELF         =      F    write electronic localiz. function (ELF)
   LORBIT       =      0    0 simple, 1 ext, 2 COOP (PROOUT), +10 PAW based schemes


 Dipole corrections
   LMONO  =      F    monopole corrections only (constant potential shift)
   LDIPOL =      F    correct potential (dipole corrections)
   IDIPOL =      0    1-x, 2-y, 3-z, 4-all directions 
   EPSILON=  1.0000000 bulk dielectric constant

 Exchange correlation treatment:
   GGA     =    PS    GGA type
   LEXCH   =    14    internal setting for exchange type
   VOSKOWN=      1    Vosko Wilk Nusair interpolation
   LHFCALC =     F    Hartree Fock is set to
   LHFONE  =     F    Hartree Fock one center treatment
   AEXX    =    0.0000 exact exchange contribution

 Linear response parameters
   LEPSILON=     F    determine dielectric tensor
   LRPA    =     F    only Hartree local field effects (RPA)
   LNABLA  =     F    use nabla operator in PAW spheres
   LVEL    =     F    velocity operator in full k-point grid
   LINTERFAST=   F  fast interpolation
   KINTER  =     0    interpolate to denser k-point grid
   CSHIFT  =0.1000    complex shift for real part using Kramers Kronig
   OMEGAMAX=  -1.0    maximum frequency
   DEG_THRESHOLD= 0.2000000E-02 threshold for treating states as degnerate
   RTIME   =   -0.100 relaxation time in fs
  (WPLASMAI=    0.000 imaginary part of plasma frequency in eV, 0.658/RTIME)
   DFIELD  = 0.0000000 0.0000000 0.0000000 field for delta impulse in time
 
 Orbital magnetization related:
   ORBITALMAG=     F  switch on orbital magnetization
   LCHIMAG   =     F  perturbation theory with respect to B field
   DQ        =  0.001000  dq finite difference perturbation B field
   LLRAUG    =     F  two centre corrections for induced B field



--------------------------------------------------------------------------------------------------------


 Static calculation
 charge density and potential will be updated during run
 spin polarized calculation
 Variant of blocked Davidson
 Davidson routine will perform the subspace rotation
 perform sub-space diagonalisation
    after iterative eigenvector-optimisation
 modified Broyden-mixing scheme, WC =      100.0
 initial mixing is a Kerker type mixing with AMIX =  0.4000 and BMIX =      1.0000
 Hartree-type preconditioning will be used
 using additional bands           88
 real space projection scheme for non local part
 use partial core corrections
 calculate Harris-corrections to forces 
   (improved forces if not selfconsistent)
 use gradient corrections 
 use of overlap-Matrix (Vanderbilt PP)
 Gauss-broadening in eV      SIGMA  =   0.05


--------------------------------------------------------------------------------------------------------


  energy-cutoff  :      500.00
  volume of cell :      741.51
      direct lattice vectors                 reciprocal lattice vectors
     8.993883000  0.000000000  0.000000000     0.111186681  0.064193660  0.000000000
    -4.496941500  7.788931160  0.000000000     0.000000000  0.128387320  0.000000000
     0.000000000  0.000000000 10.584959750     0.000000000  0.000000000  0.094473671

  length of vectors
     8.993883000  8.993883003 10.584959750     0.128387320  0.128387320  0.094473671


 
 k-points in units of 2pi/SCALE and weight: Automatic mesh                          
   0.00000000  0.00000000  0.00000000       0.021
   0.02779667  0.01604842  0.00000000       0.042
   0.05559334  0.03209683  0.00000000       0.021
   0.00000000  0.03209683  0.00000000       0.042
   0.02779667  0.04814525  0.00000000       0.042
   0.05559334  0.06419366  0.00000000       0.042
  -0.02779667  0.01604842  0.00000000       0.042
   0.00000000  0.06419366  0.00000000       0.021
   0.02779667  0.08024208  0.00000000       0.042
   0.05559334  0.09629049  0.00000000       0.021
   0.00000000  0.00000000  0.03149122       0.042
   0.02779667  0.01604842  0.03149122       0.042
   0.05559334  0.03209683  0.03149122       0.042
  -0.02779667 -0.01604842  0.03149122       0.042
   0.00000000  0.03209683  0.03149122       0.042
   0.02779667  0.04814525  0.03149122       0.042
   0.05559334  0.06419366  0.03149122       0.042
  -0.02779667  0.01604842  0.03149122       0.042
   0.00000000  0.06419366  0.03149122       0.042
   0.02779667  0.08024208  0.03149122       0.042
   0.05559334  0.09629049  0.03149122       0.042
  -0.02779667  0.04814525  0.03149122       0.042
   0.00000000 -0.03209683  0.03149122       0.042
   0.02779667 -0.01604842  0.03149122       0.042
   0.05559334  0.00000000  0.03149122       0.042
  -0.02779667 -0.04814525  0.03149122       0.042
 
 k-points in reciprocal lattice and weights: Automatic mesh                          
   0.00000000  0.00000000  0.00000000       0.021
   0.25000000 -0.00000000  0.00000000       0.042
   0.50000000 -0.00000000  0.00000000       0.021
   0.00000000  0.25000000  0.00000000       0.042
   0.25000000  0.25000000  0.00000000       0.042
   0.50000000  0.25000000  0.00000000       0.042
  -0.25000000  0.25000000  0.00000000       0.042
   0.00000000  0.50000000  0.00000000       0.021
   0.25000000  0.50000000  0.00000000       0.042
   0.50000000  0.50000000  0.00000000       0.021
   0.00000000  0.00000000  0.33333333       0.042
   0.25000000 -0.00000000  0.33333333       0.042
   0.50000000 -0.00000000  0.33333333       0.042
  -0.25000000  0.00000000  0.33333333       0.042
   0.00000000  0.25000000  0.33333333       0.042
   0.25000000  0.25000000  0.33333333       0.042
   0.50000000  0.25000000  0.33333333       0.042
  -0.25000000  0.25000000  0.33333333       0.042
   0.00000000  0.50000000  0.33333333       0.042
   0.25000000  0.50000000  0.33333333       0.042
   0.50000000  0.50000000  0.33333333       0.042
  -0.25000000  0.50000000  0.33333333       0.042
   0.00000000 -0.25000000  0.33333333       0.042
   0.25000000 -0.25000000  0.33333333       0.042
   0.50000000 -0.25000000  0.33333333       0.042
  -0.25000000 -0.25000000  0.33333333       0.042
 
 position of ions in fractional coordinates (direct lattice) 
   0.00491797  0.99505687  0.99850599
   0.00408696  0.00189835  0.31751738
   0.00567936  0.00066769  0.64813688
   0.97818321  0.32850609  0.99368474
   0.98016217  0.33295204  0.32519036
   0.97513406  0.32853690  0.65837664
   0.97691503  0.65446373  0.99722938
   0.96723655  0.65557032  0.33006799
   0.96529562  0.64789105  0.65844461
   0.32528173  0.00386532  0.00051388
   0.32048132  0.99847860  0.32924876
   0.30694277  0.99213677  0.64494563
   0.32180208  0.32305736  0.99930360
   0.32682053  0.33791944  0.31749946
   0.32227421  0.33389044  0.64980266
   0.32477374  0.65600171  0.99541651
   0.33355515  0.65600960  0.31637625
   0.33283999  0.65340879  0.65137896
   0.65623347  0.00635916  0.99471533
   0.64741006  0.01352397  0.32836245
   0.64719342  0.00085242  0.65073551
   0.63873034  0.31468451  0.99320569
   0.65560122  0.32741368  0.33324807
   0.64223882  0.32906901  0.65576430
   0.64999496  0.65776187  0.99917589
   0.66014241  0.64895648  0.32139623
   0.63994538  0.64083804  0.64570137
   0.99105477  0.99312604  0.15580885
   0.00339938  0.00435750  0.49672920
   0.00939174  0.00933006  0.81800129
   0.98320951  0.33414124  0.16230574
   0.98579703  0.32747562  0.49270583
   0.97282487  0.33437317  0.80313543
   0.98128334  0.65852450  0.16397491
   0.97619616  0.65026947  0.48802614
   0.98374335  0.65487637  0.81094541
   0.32367450  0.99654020  0.16496284
   0.31608571  0.00270066  0.48275443
   0.33353658  0.00631831  0.82352055
   0.33607753  0.32959540  0.16274405
   0.32336675  0.32414677  0.49091533
   0.31756026  0.32074208  0.81277417
   0.33389030  0.66308315  0.16405231
   0.33162963  0.64958477  0.49178083
   0.32067478  0.65562170  0.81344655
   0.66038857  0.00891838  0.16080000
   0.65316598  0.00004926  0.48488562
   0.64555445  0.99422363  0.81371380
   0.64297711  0.32886108  0.15886785
   0.65664112  0.32995516  0.48502373
   0.64618118  0.32165266  0.81098896
   0.65548540  0.65239696  0.15832781
   0.66030832  0.65457021  0.48608137
   0.64973728  0.64453769  0.81774150
 
 position of ions in cartesian coordinates  (Angst):
  -4.43048089  7.75042946 10.56914571
   0.02822087  0.01478612  3.36090869
   0.04807694  0.00520059  6.86050279
   7.32039267  2.55871132 10.51811298
   7.31819803  2.59334052  3.44212687
   7.29283043  2.55895130  6.96889023
   5.84317437  5.09757294 10.55563285
   5.75115099  5.10619209  3.49375639
   5.76822772  5.04637879  6.96960969
   2.90816370  0.03010671  0.00543940
  -1.60772836  7.77708108  3.48508487
  -1.70097365  7.72768500  6.82672353
   1.44148021  2.51627154 10.57758838
   1.41978166  2.63203126  3.36071900
   1.39701076  2.60064965  6.87813500
  -0.02902429  5.10955216 10.53644369
   0.04991920  5.10961361  3.34882987
   0.05518282  5.08935608  6.89482007
   5.87349028  0.04953106 10.52902173
   5.76191383  0.10533727  3.47570332
   5.81694861  0.00663944  6.88800918
   4.32954811  2.45105599 10.51304225
   4.42404050  2.55020261  3.52741741
   4.29641672  2.56309587  6.94123872
   2.88806197  5.12326193 10.57623658
   3.01892427  5.05467735  3.40196616
   2.87378270  4.99144338  6.83472301
   4.44740094  7.73539036  1.64923041
   0.01097820  0.03394027  5.25785859
   0.04251148  0.07267120  8.65851073
   7.34025769  2.60260312  1.71799973
   7.39350444  2.55068506  5.21527138
   7.24581648  2.60440960  8.50115620
   5.86420140  5.12920200  1.73566782
   5.85557028  5.06490414  5.16573705
   5.90273187  5.10078696  8.58382452
  -1.57029240  7.76198302  1.74612502
   2.83069318  0.02103525  5.10993621
   2.97137591  0.04921288  8.71693188
   1.54047075  2.56719588  1.72263922
   1.45065365  2.52475688  5.19631901
   1.41374145  2.49823798  8.60318188
   0.02112416  5.16470901  1.73648710
   0.06149338  5.05957106  5.20548029
  -0.06418098  5.10659229  8.61029899
   5.89935210  0.06946465  1.70206153
   5.87427688  0.00038368  5.13249477
   1.33507569  7.74393941  8.61312782
   4.30399186  2.56147631  1.68160980
   4.42196435  2.56999803  5.13395666
   4.36522473  2.50533043  8.58428550
   2.96156803  5.08147501  1.67589350
   2.99517183  5.09840231  5.14515174
   2.94521279  5.02025970  8.65576086
 


--------------------------------------------------------------------------------------------------------


 k-point  1 :   0.0000 0.0000 0.0000  plane waves:   18915
 k-point  2 :   0.2500-0.0000 0.0000  plane waves:   18838
 k-point  3 :   0.5000-0.0000 0.0000  plane waves:   18796
 k-point  4 :   0.0000 0.2500 0.0000  plane waves:   18838
 k-point  5 :   0.2500 0.2500 0.0000  plane waves:   18834
 k-point  6 :   0.5000 0.2500 0.0000  plane waves:   18834
 k-point  7 :  -0.2500 0.2500 0.0000  plane waves:   18838
 k-point  8 :   0.0000 0.5000 0.0000  plane waves:   18796
 k-point  9 :   0.2500 0.5000 0.0000  plane waves:   18834
 k-point 10 :   0.5000 0.5000 0.0000  plane waves:   18796
 k-point 11 :   0.0000 0.0000 0.3333  plane waves:   18842
 k-point 12 :   0.2500-0.0000 0.3333  plane waves:   18820
 k-point 13 :   0.5000-0.0000 0.3333  plane waves:   18826
 k-point 14 :  -0.2500 0.0000 0.3333  plane waves:   18820
 k-point 15 :   0.0000 0.2500 0.3333  plane waves:   18820
 k-point 16 :   0.2500 0.2500 0.3333  plane waves:   18831
 k-point 17 :   0.5000 0.2500 0.3333  plane waves:   18831
 k-point 18 :  -0.2500 0.2500 0.3333  plane waves:   18820
 k-point 19 :   0.0000 0.5000 0.3333  plane waves:   18826
 k-point 20 :   0.2500 0.5000 0.3333  plane waves:   18831
 k-point 21 :   0.5000 0.5000 0.3333  plane waves:   18826
 k-point 22 :  -0.2500 0.5000 0.3333  plane waves:   18831
 k-point 23 :   0.0000-0.2500 0.3333  plane waves:   18820
 k-point 24 :   0.2500-0.2500 0.3333  plane waves:   18820
 k-point 25 :   0.5000-0.2500 0.3333  plane waves:   18831
 k-point 26 :  -0.2500-0.2500 0.3333  plane waves:   18831

 maximum and minimum number of plane-waves per node :     18915    18796

 maximum number of plane-waves:     18915
 maximum index in each direction: 
   IXMAX=   16   IYMAX=   16   IZMAX=   19
   IXMIN=  -16   IYMIN=  -16   IZMIN=  -19

 The following grids will avoid any aliasing or wrap around errors in the Hartre
 e energy
  - symmetry arguments have not been applied
  - exchange correlation energies might require even more grid points
  - we recommend to set PREC=Normal or Accurate and rely on VASP defaults
 NGX is ok and might be reduce to    70
 NGY is ok and might be reduce to    70
 NGZ is ok and might be reduce to    80

 serial   3D FFT for wavefunctions
 parallel 3D FFT for charge:
    minimum data exchange during FFTs selected (reduces bandwidth)


 total amount of memory used by VASP MPI-rank0   439660. kBytes
=======================================================================

   base      :      30000. kBytes
   nonlr-proj:      41414. kBytes
   fftplans  :       8419. kBytes
   grid      :      47806. kBytes
   one-center:       1679. kBytes
   wavefun   :     310342. kBytes
 
     INWAV:  cpu time    0.0000: real time    0.0000
 Broyden mixing: mesh for mixing (old mesh)
   NGX = 33   NGY = 33   NGZ = 39
  (NGX  =140   NGY  =140   NGZ  =160)
  gives a total of  42471 points

 initial charge density was supplied:
 charge density of overlapping atoms calculated
 number of electron     432.0000000 magnetization      67.5000000
 keeping initial charge density in first step


--------------------------------------------------------------------------------------------------------


 Maximum index for non-local projection operator         6901
 Maximum index for augmentation-charges         1243 (set IRDMAX)


--------------------------------------------------------------------------------------------------------


 First call to EWALD:  gamma=   0.196
 Maximum number of real-space cells 3x 3x 2
 Maximum number of reciprocal cells 3x 3x 3

    FEWALD:  cpu time    0.0022: real time    0.0022


--------------------------------------- Iteration      1(   1)  ---------------------------------------


    POTLOK:  cpu time    0.2657: real time    0.3013
    SETDIJ:  cpu time    0.0260: real time    0.0260
     EDDAV:  cpu time  113.4112: real time  113.6800
    --------------------------------------------
      LOOP:  cpu time  113.7058: real time  114.0103

 eigenvalue-minimisations  : 31616
 total energy-change (2. order) : 0.4788823E+04  (-0.1805025E+05)
 number of electron     432.0000000 magnetization      67.5000000
 augmentation part      432.0000000 magnetization      67.5000000

 Free energy of the ion-electron system (eV)
  ---------------------------------------------------
  alpha Z        PSCENC =      1166.52487208
  Ewald energy   TEWEN  =    -28485.40658300
  -Hartree energ DENC   =    -12972.54839709
  -exchange      EXHF   =         0.00000000
  -V(xc)+E(xc)   XCENC  =      1619.08938709
  PAW double counting   =     35307.98069315   -37155.18892105
  entropy T*S    EENTRO =        -0.01293208
  eigenvalues    EBANDS =      4599.90973681
  atomic energy  EATOM  =     40708.47505058
  Solvation  Ediel_sol  =         0.00000000
  ---------------------------------------------------
  free energy    TOTEN  =      4788.82290649 eV

  energy without entropy =     4788.83583858  energy(sigma->0) =     4788.82937254


--------------------------------------------------------------------------------------------------------




--------------------------------------- Iteration      1(   2)  ---------------------------------------


     EDDAV:  cpu time   90.7655: real time   90.9805
    --------------------------------------------
      LOOP:  cpu time   90.7651: real time   90.9800

 eigenvalue-minimisations  : 31616
 total energy-change (2. order) :-0.4109163E+04  (-0.3725968E+04)
 number of electron     432.0000000 magnetization      67.5000000
 augmentation part      432.0000000 magnetization      67.5000000

 Free energy of the ion-electron system (eV)
  ---------------------------------------------------
  alpha Z        PSCENC =      1166.52487208
  Ewald energy   TEWEN  =    -28485.40658300
  -Hartree energ DENC   =    -12972.54839709
  -exchange      EXHF   =         0.00000000
  -V(xc)+E(xc)   XCENC  =      1619.08938709
  PAW double counting   =     35307.98069315   -37155.18892105
  entropy T*S    EENTRO =        -0.03724623
  eigenvalues    EBANDS =       490.77090343
  atomic energy  EATOM  =     40708.47505058
  Solvation  Ediel_sol  =         0.00000000
  ---------------------------------------------------
  free energy    TOTEN  =       679.65975896 eV

  energy without entropy =      679.69700519  energy(sigma->0) =      679.67838207


--------------------------------------------------------------------------------------------------------




--------------------------------------- Iteration      1(   3)  ---------------------------------------


     EDDAV:  cpu time  114.7180: real time  115.0178
    --------------------------------------------
      LOOP:  cpu time  114.7186: real time  115.0184

 eigenvalue-minimisations  : 32544
 total energy-change (2. order) :-0.9918533E+03  (-0.8717581E+03)
 number of electron     432.0000000 magnetization      67.5000000
 augmentation part      432.0000000 magnetization      67.5000000

 Free energy of the ion-electron system (eV)
  ---------------------------------------------------
  alpha Z        PSCENC =      1166.52487208
  Ewald energy   TEWEN  =    -28485.40658300
  -Hartree energ DENC   =    -12972.54839709
  -exchange      EXHF   =         0.00000000
  -V(xc)+E(xc)   XCENC  =      1619.08938709
  PAW double counting   =     35307.98069315   -37155.18892105
  entropy T*S    EENTRO =        -0.05575064
  eigenvalues    EBANDS =      -501.06391515
  atomic energy  EATOM  =     40708.47505058
  Solvation  Ediel_sol  =         0.00000000
  ---------------------------------------------------
  free energy    TOTEN  =      -312.19356402 eV

  energy without entropy =     -312.13781338  energy(sigma->0) =     -312.16568870


--------------------------------------------------------------------------------------------------------




--------------------------------------- Iteration      1(   4)  ---------------------------------------


     EDDAV:  cpu time  129.9204: real time  130.2283
    --------------------------------------------
      LOOP:  cpu time  129.9204: real time  130.2283

 eigenvalue-minimisations  : 35056
 total energy-change (2. order) :-0.1177712E+03  (-0.1139780E+03)
 number of electron     432.0000000 magnetization      67.5000000
 augmentation part      432.0000000 magnetization      67.5000000

 Free energy of the ion-electron system (eV)
  ---------------------------------------------------
  alpha Z        PSCENC =      1166.52487208
  Ewald energy   TEWEN  =    -28485.40658300
  -Hartree energ DENC   =    -12972.54839709
  -exchange      EXHF   =         0.00000000
  -V(xc)+E(xc)   XCENC  =      1619.08938709
  PAW double counting   =     35307.98069315   -37155.18892105
  entropy T*S    EENTRO =        -0.06000082
  eigenvalues    EBANDS =      -618.83089215
  atomic energy  EATOM  =     40708.47505058
  Solvation  Ediel_sol  =         0.00000000
  ---------------------------------------------------
  free energy    TOTEN  =      -429.96479120 eV

  energy without entropy =     -429.90479038  energy(sigma->0) =     -429.93479079


--------------------------------------------------------------------------------------------------------




--------------------------------------- Iteration      1(   5)  ---------------------------------------


     EDDAV:  cpu time  128.4082: real time  128.7124
    CHARGE:  cpu time    5.5831: real time    5.6450
    MIXING:  cpu time    0.0070: real time    0.0376
    --------------------------------------------
      LOOP:  cpu time  133.9954: real time  134.3920

 eigenvalue-minimisations  : 34512
 total energy-change (2. order) :-0.3054752E+01  (-0.3043416E+01)
 number of electron     431.9999987 magnetization      61.8721292
 augmentation part      158.5749518 magnetization      50.8489679

 Broyden mixing:
  rms(total) = 0.10689E+02    rms(broyden)= 0.10688E+02
  rms(prec ) = 0.12931E+02
  weight for this iteration     100.00

 Free energy of the ion-electron system (eV)
  ---------------------------------------------------
  alpha Z        PSCENC =      1166.52487208
  Ewald energy   TEWEN  =    -28485.40658300
  -Hartree energ DENC   =    -12972.54839709
  -exchange      EXHF   =         0.00000000
  -V(xc)+E(xc)   XCENC  =      1619.08938709
  PAW double counting   =     35307.98069315   -37155.18892105
  entropy T*S    EENTRO =        -0.06002694
  eigenvalues    EBANDS =      -621.88561776
  atomic energy  EATOM  =     40708.47505058
  Solvation  Ediel_sol  =         0.00000000
  ---------------------------------------------------
  free energy    TOTEN  =      -433.01954294 eV

  energy without entropy =     -432.95951600  energy(sigma->0) =     -432.98952947


--------------------------------------------------------------------------------------------------------




--------------------------------------- Iteration      1(   6)  ---------------------------------------


    POTLOK:  cpu time    0.2220: real time    0.2225
    SETDIJ:  cpu time    0.0254: real time    0.0254
     EDDAV:  cpu time  154.6487: real time  155.0151
    CHARGE:  cpu time    5.5465: real time    5.5597
    MIXING:  cpu time    0.0069: real time    0.0415
    --------------------------------------------
      LOOP:  cpu time  160.4495: real time  160.8642

 eigenvalue-minimisations  : 43728
 total energy-change (2. order) :-0.1025286E+03  (-0.9389597E+02)
 number of electron     431.9999970 magnetization      54.8709361
 augmentation part      214.7331276 magnetization      49.8108315

 Broyden mixing:
  rms(total) = 0.18982E+02    rms(broyden)= 0.18980E+02
  rms(prec ) = 0.21489E+02
  weight for this iteration     100.00

 eigenvalues of (default mixing * dielectric matrix)
  average eigenvalue GAMMA=   0.2025
  0.2025

 Free energy of the ion-electron system (eV)
  ---------------------------------------------------
  alpha Z        PSCENC =      1166.52487208
  Ewald energy   TEWEN  =    -28485.40658300
  -Hartree energ DENC   =    -12108.37523315
  -exchange      EXHF   =         0.00000000
  -V(xc)+E(xc)   XCENC  =      1593.18362259
  PAW double counting   =     37355.99574114   -38947.43309494
  entropy T*S    EENTRO =        -0.04833719
  eigenvalues    EBANDS =     -1818.46421823
  atomic energy  EATOM  =     40708.47505058
  Solvation  Ediel_sol  =         0.00000000
  ---------------------------------------------------
  free energy    TOTEN  =      -535.54818011 eV

  energy without entropy =     -535.49984293  energy(sigma->0) =     -535.52401152


--------------------------------------------------------------------------------------------------------




--------------------------------------- Iteration      1(   7)  ---------------------------------------


    POTLOK:  cpu time    0.2294: real time    0.2299
    SETDIJ:  cpu time    0.0250: real time    0.0251
     EDDAV:  cpu time  151.7863: real time  152.1459
    CHARGE:  cpu time    5.5218: real time    5.5349
    MIXING:  cpu time    0.0061: real time    0.0414
    --------------------------------------------
      LOOP:  cpu time  157.5687: real time  157.9772

 eigenvalue-minimisations  : 42432
 total energy-change (2. order) : 0.2181912E+03  (-0.2773048E+02)
 number of electron     431.9999973 magnetization      47.5596934
 augmentation part      190.3885040 magnetization      37.0735257

 Broyden mixing:
  rms(total) = 0.57504E+01    rms(broyden)= 0.57486E+01
  rms(prec ) = 0.71910E+01
  weight for this iteration     100.00

 eigenvalues of (default mixing * dielectric matrix)
  average eigenvalue GAMMA=   0.5791
  0.5791  0.5791

 Free energy of the ion-electron system (eV)
  ---------------------------------------------------
  alpha Z        PSCENC =      1166.52487208
  Ewald energy   TEWEN  =    -28485.40658300
  -Hartree energ DENC   =    -12442.80594565
  -exchange      EXHF   =         0.00000000
  -V(xc)+E(xc)   XCENC  =      1592.26819343
  PAW double counting   =     38932.94217657   -40718.25683994
  entropy T*S    EENTRO =        -0.05331854
  eigenvalues    EBANDS =     -1071.04454651
  atomic energy  EATOM  =     40708.47505058
  Solvation  Ediel_sol  =         0.00000000
  ---------------------------------------------------
  free energy    TOTEN  =      -317.35694098 eV

  energy without entropy =     -317.30362244  energy(sigma->0) =     -317.33028171


--------------------------------------------------------------------------------------------------------




--------------------------------------- Iteration      1(   8)  ---------------------------------------


    POTLOK:  cpu time    0.2333: real time    0.2339
    SETDIJ:  cpu time    0.0266: real time    0.0266
     EDDAV:  cpu time  170.2863: real time  170.6895
    CHARGE:  cpu time    5.5149: real time    5.5654
    MIXING:  cpu time    0.0054: real time    0.0054
    --------------------------------------------
      LOOP:  cpu time  176.0664: real time  176.5208

 eigenvalue-minimisations  : 46144
 total energy-change (2. order) :-0.7962270E+02  (-0.1396641E+02)
 number of electron     431.9999993 magnetization      42.8494354
 augmentation part      181.6644549 magnetization      37.6550800

 Broyden mixing:
  rms(total) = 0.12870E+02    rms(broyden)= 0.12869E+02
  rms(prec ) = 0.18830E+02
  weight for this iteration     100.00

 eigenvalues of (default mixing * dielectric matrix)
  average eigenvalue GAMMA=   0.4921
  0.8889  0.4587  0.1287

 Free energy of the ion-electron system (eV)
  ---------------------------------------------------
  alpha Z        PSCENC =      1166.52487208
  Ewald energy   TEWEN  =    -28485.40658300
  -Hartree energ DENC   =    -12499.03407498
  -exchange      EXHF   =         0.00000000
  -V(xc)+E(xc)   XCENC  =      1591.56569660
  PAW double counting   =     39992.54759032   -41831.94813154
  entropy T*S    EENTRO =        -0.04468071
  eigenvalues    EBANDS =     -1039.65938136
  atomic energy  EATOM  =     40708.47505058
  Solvation  Ediel_sol  =         0.00000000
  ---------------------------------------------------
  free energy    TOTEN  =      -396.97964201 eV

  energy without entropy =     -396.93496131  energy(sigma->0) =     -396.95730166


--------------------------------------------------------------------------------------------------------




--------------------------------------- Iteration      1(   9)  ---------------------------------------


    POTLOK:  cpu time    0.2290: real time    0.2526
    SETDIJ:  cpu time    0.0259: real time    0.0260
     EDDAV:  cpu time  153.3903: real time  153.7904
    CHARGE:  cpu time    5.9494: real time    5.9636
    MIXING:  cpu time    0.0071: real time    0.0253
    --------------------------------------------
      LOOP:  cpu time  159.6017: real time  160.0579

 eigenvalue-minimisations  : 41104
 total energy-change (2. order) : 0.2713317E+02  (-0.1049090E+02)
 number of electron     431.9999985 magnetization      39.2391199
 augmentation part      180.7485687 magnetization      32.6408291

 Broyden mixing:
  rms(total) = 0.92010E+01    rms(broyden)= 0.92004E+01
  rms(prec ) = 0.13672E+02
  weight for this iteration     100.00

 eigenvalues of (default mixing * dielectric matrix)
  average eigenvalue GAMMA=   0.4345
  1.0124  0.4406  0.1425  0.1425

 Free energy of the ion-electron system (eV)
  ---------------------------------------------------
  alpha Z        PSCENC =      1166.52487208
  Ewald energy   TEWEN  =    -28485.40658300
  -Hartree energ DENC   =    -12525.04702085
  -exchange      EXHF   =         0.00000000
  -V(xc)+E(xc)   XCENC  =      1591.02497052
  PAW double counting   =     40608.36660086   -42472.77723332
  entropy T*S    EENTRO =        -0.07262858
  eigenvalues    EBANDS =      -960.93450513
  atomic energy  EATOM  =     40708.47505058
  Solvation  Ediel_sol  =         0.00000000
  ---------------------------------------------------
  free energy    TOTEN  =      -369.84647684 eV

  energy without entropy =     -369.77384826  energy(sigma->0) =     -369.81016255


--------------------------------------------------------------------------------------------------------




--------------------------------------- Iteration      1(  10)  ---------------------------------------


    POTLOK:  cpu time    0.2533: real time    0.2539
    SETDIJ:  cpu time    0.0348: real time    0.0349
     EDDAV:  cpu time  148.4208: real time  148.7725
    CHARGE:  cpu time    5.6670: real time    5.6804
    MIXING:  cpu time    0.0063: real time    0.0063
    --------------------------------------------
      LOOP:  cpu time  154.3822: real time  154.7480

 eigenvalue-minimisations  : 40208
 total energy-change (2. order) : 0.3763339E+02  (-0.5734756E+01)
 number of electron     431.9999980 magnetization      37.2168142
 augmentation part      181.4863460 magnetization      28.2452697

 Broyden mixing:
  rms(total) = 0.72497E+01    rms(broyden)= 0.72491E+01
  rms(prec ) = 0.10046E+02
  weight for this iteration     100.00

 eigenvalues of (default mixing * dielectric matrix)
  average eigenvalue GAMMA=   0.4014
  1.0952  0.4359  0.1840  0.1840  0.1081

 Free energy of the ion-electron system (eV)
  ---------------------------------------------------
  alpha Z        PSCENC =      1166.52487208
  Ewald energy   TEWEN  =    -28485.40658300
  -Hartree energ DENC   =    -12529.41814496
  -exchange      EXHF   =         0.00000000
  -V(xc)+E(xc)   XCENC  =      1590.84498594
  PAW double counting   =     41069.80097899   -42947.15491940
  entropy T*S    EENTRO =        -0.07919210
  eigenvalues    EBANDS =      -905.80013798
  atomic energy  EATOM  =     40708.47505058
  Solvation  Ediel_sol  =         0.00000000
  ---------------------------------------------------
  free energy    TOTEN  =      -332.21308986 eV

  energy without entropy =     -332.13389776  energy(sigma->0) =     -332.17349381


--------------------------------------------------------------------------------------------------------




--------------------------------------- Iteration      1(  11)  ---------------------------------------


    POTLOK:  cpu time    0.2333: real time    0.2339
    SETDIJ:  cpu time    0.0260: real time    0.0260
     EDDAV:  cpu time  157.2066: real time  157.5792
    CHARGE:  cpu time    5.7399: real time    5.7535
    MIXING:  cpu time    0.0060: real time    0.0060
    --------------------------------------------
      LOOP:  cpu time  163.2118: real time  163.5987

 eigenvalue-minimisations  : 43072
 total energy-change (2. order) : 0.1296587E+02  (-0.5510486E+01)
 number of electron     431.9999976 magnetization      34.2344778
 augmentation part      182.5638420 magnetization      25.9048296

 Broyden mixing:
  rms(total) = 0.46134E+01    rms(broyden)= 0.46126E+01
  rms(prec ) = 0.61526E+01
  weight for this iteration     100.00

 eigenvalues of (default mixing * dielectric matrix)
  average eigenvalue GAMMA=   0.3990
  1.2081  0.4651  0.2517  0.2517  0.1085  0.1085

 Free energy of the ion-electron system (eV)
  ---------------------------------------------------
  alpha Z        PSCENC =      1166.52487208
  Ewald energy   TEWEN  =    -28485.40658300
  -Hartree energ DENC   =    -12531.14579826
  -exchange      EXHF   =         0.00000000
  -V(xc)+E(xc)   XCENC  =      1590.55885710
  PAW double counting   =     41334.37184890   -43218.12046991
  entropy T*S    EENTRO =        -0.08703764
  eigenvalues    EBANDS =      -884.41796272
  atomic energy  EATOM  =     40708.47505058
  Solvation  Ediel_sol  =         0.00000000
  ---------------------------------------------------
  free energy    TOTEN  =      -319.24722288 eV

  energy without entropy =     -319.16018524  energy(sigma->0) =     -319.20370406


--------------------------------------------------------------------------------------------------------




--------------------------------------- Iteration      1(  12)  ---------------------------------------


    POTLOK:  cpu time    0.2398: real time    0.2404
    SETDIJ:  cpu time    0.0265: real time    0.0265
     EDDAV:  cpu time  158.7644: real time  159.1405
    CHARGE:  cpu time    5.8498: real time    5.8637
    MIXING:  cpu time    0.0064: real time    0.0064
    --------------------------------------------
      LOOP:  cpu time  164.8868: real time  165.2775

 eigenvalue-minimisations  : 43728
 total energy-change (2. order) : 0.5545724E+01  (-0.2704277E+01)
 number of electron     431.9999985 magnetization      32.7685513
 augmentation part      181.6562336 magnetization      24.5751257

 Broyden mixing:
  rms(total) = 0.41184E+01    rms(broyden)= 0.41179E+01
  rms(prec ) = 0.59374E+01
  weight for this iteration     100.00

 eigenvalues of (default mixing * dielectric matrix)
  average eigenvalue GAMMA=   0.4003
  1.2743  0.4749  0.3588  0.3588  0.1159  0.1159  0.1033

 Free energy of the ion-electron system (eV)
  ---------------------------------------------------
  alpha Z        PSCENC =      1166.52487208
  Ewald energy   TEWEN  =    -28485.40658300
  -Hartree energ DENC   =    -12530.99082904
  -exchange      EXHF   =         0.00000000
  -V(xc)+E(xc)   XCENC  =      1590.04476229
  PAW double counting   =     41666.45909940   -43555.70458490
  entropy T*S    EENTRO =        -0.08757921
  eigenvalues    EBANDS =      -873.01570697
  atomic energy  EATOM  =     40708.47505058
  Solvation  Ediel_sol  =         0.00000000
  ---------------------------------------------------
  free energy    TOTEN  =      -313.70149878 eV

  energy without entropy =     -313.61391957  energy(sigma->0) =     -313.65770917


--------------------------------------------------------------------------------------------------------




--------------------------------------- Iteration      1(  13)  ---------------------------------------


    POTLOK:  cpu time    0.2334: real time    0.2339
    SETDIJ:  cpu time    0.0263: real time    0.0264
     EDDAV:  cpu time  155.7326: real time  156.1016
    CHARGE:  cpu time    5.5626: real time    5.5758
    MIXING:  cpu time    0.0065: real time    0.0065
    --------------------------------------------
      LOOP:  cpu time  161.5614: real time  161.9442

 eigenvalue-minimisations  : 43872
 total energy-change (2. order) : 0.3100899E+00  (-0.2967841E+01)
 number of electron     431.9999987 magnetization      31.2229805
 augmentation part      181.2864521 magnetization      23.2629807

 Broyden mixing:
  rms(total) = 0.39800E+01    rms(broyden)= 0.39796E+01
  rms(prec ) = 0.57951E+01
  weight for this iteration     100.00

 eigenvalues of (default mixing * dielectric matrix)
  average eigenvalue GAMMA=   0.3880
  1.3193  0.4548  0.4548  0.4331  0.1277  0.1277  0.0935  0.0935

 Free energy of the ion-electron system (eV)
  ---------------------------------------------------
  alpha Z        PSCENC =      1166.52487208
  Ewald energy   TEWEN  =    -28485.40658300
  -Hartree energ DENC   =    -12532.73684828
  -exchange      EXHF   =         0.00000000
  -V(xc)+E(xc)   XCENC  =      1589.80149435
  PAW double counting   =     41820.54182142   -43711.68195629
  entropy T*S    EENTRO =        -0.09809377
  eigenvalues    EBANDS =      -868.81116600
  atomic energy  EATOM  =     40708.47505058
  Solvation  Ediel_sol  =         0.00000000
  ---------------------------------------------------
  free energy    TOTEN  =      -313.39140891 eV

  energy without entropy =     -313.29331514  energy(sigma->0) =     -313.34236203


--------------------------------------------------------------------------------------------------------




--------------------------------------- Iteration      1(  14)  ---------------------------------------


    POTLOK:  cpu time    0.2291: real time    0.2297
    SETDIJ:  cpu time    0.0261: real time    0.0261
     EDDAV:  cpu time  150.2149: real time  150.5708
    CHARGE:  cpu time    5.5681: real time    5.5813
    MIXING:  cpu time    0.0068: real time    0.0068
    --------------------------------------------
      LOOP:  cpu time  156.0450: real time  156.4148

 eigenvalue-minimisations  : 41152
 total energy-change (2. order) : 0.3303343E+01  (-0.1672692E+01)
 number of electron     431.9999982 magnetization      29.2985839
 augmentation part      181.8863460 magnetization      20.9222082

 Broyden mixing:
  rms(total) = 0.22496E+01    rms(broyden)= 0.22492E+01
  rms(prec ) = 0.29869E+01
  weight for this iteration     100.00

 eigenvalues of (default mixing * dielectric matrix)
  average eigenvalue GAMMA=   0.3857
  1.4109  0.5207  0.5207  0.3604  0.2234  0.1165  0.1165  0.1012  0.1012

 Free energy of the ion-electron system (eV)
  ---------------------------------------------------
  alpha Z        PSCENC =      1166.52487208
  Ewald energy   TEWEN  =    -28485.40658300
  -Hartree energ DENC   =    -12533.21390166
  -exchange      EXHF   =         0.00000000
  -V(xc)+E(xc)   XCENC  =      1589.58658618
  PAW double counting   =     41977.65324225   -43870.10068794
  entropy T*S    EENTRO =        -0.10149244
  eigenvalues    EBANDS =      -863.50515154
  atomic energy  EATOM  =     40708.47505058
  Solvation  Ediel_sol  =         0.00000000
  ---------------------------------------------------
  free energy    TOTEN  =      -310.08806550 eV

  energy without entropy =     -309.98657306  energy(sigma->0) =     -310.03731928


--------------------------------------------------------------------------------------------------------




--------------------------------------- Iteration      1(  15)  ---------------------------------------


    POTLOK:  cpu time    0.2210: real time    0.2215
    SETDIJ:  cpu time    0.0250: real time    0.0251
     EDDAV:  cpu time  144.4763: real time  144.8185
    CHARGE:  cpu time    5.5404: real time    5.5535
    MIXING:  cpu time    0.0068: real time    0.0068
    --------------------------------------------
      LOOP:  cpu time  150.2695: real time  150.6254

 eigenvalue-minimisations  : 40336
 total energy-change (2. order) :-0.3581368E+00  (-0.8026245E+00)
 number of electron     431.9999978 magnetization      26.7736678
 augmentation part      181.6233913 magnetization      18.7357526

 Broyden mixing:
  rms(total) = 0.25582E+01    rms(broyden)= 0.25578E+01
  rms(prec ) = 0.35800E+01
  weight for this iteration     100.00

 eigenvalues of (default mixing * dielectric matrix)
  average eigenvalue GAMMA=   0.3968
  1.5757  0.5696  0.5696  0.3506  0.3506  0.1188  0.1188  0.1303  0.0920  0.0920

 Free energy of the ion-electron system (eV)
  ---------------------------------------------------
  alpha Z        PSCENC =      1166.52487208
  Ewald energy   TEWEN  =    -28485.40658300
  -Hartree energ DENC   =    -12532.97947160
  -exchange      EXHF   =         0.00000000
  -V(xc)+E(xc)   XCENC  =      1589.40217908
  PAW double counting   =     42181.65607021   -44075.83190180
  entropy T*S    EENTRO =        -0.08967547
  eigenvalues    EBANDS =      -862.19674236
  atomic energy  EATOM  =     40708.47505058
  Solvation  Ediel_sol  =         0.00000000
  ---------------------------------------------------
  free energy    TOTEN  =      -310.44620229 eV

  energy without entropy =     -310.35652681  energy(sigma->0) =     -310.40136455


--------------------------------------------------------------------------------------------------------




--------------------------------------- Iteration      1(  16)  ---------------------------------------


    POTLOK:  cpu time    0.2278: real time    0.2283
    SETDIJ:  cpu time    0.0253: real time    0.0253
     EDDAV:  cpu time  146.2429: real time  146.5895
    CHARGE:  cpu time    5.5343: real time    5.5474
    MIXING:  cpu time    0.0074: real time    0.0074
    --------------------------------------------
      LOOP:  cpu time  152.0377: real time  152.3980

 eigenvalue-minimisations  : 40960
 total energy-change (2. order) : 0.4556535E+00  (-0.6379862E+00)
 number of electron     431.9999981 magnetization      24.9683954
 augmentation part      181.8581852 magnetization      17.4485500

 Broyden mixing:
  rms(total) = 0.21452E+01    rms(broyden)= 0.21447E+01
  rms(prec ) = 0.30144E+01
  weight for this iteration     100.00

 eigenvalues of (default mixing * dielectric matrix)
  average eigenvalue GAMMA=   0.3991
  1.7102  0.5927  0.5927  0.3799  0.3799  0.2083  0.1232  0.1232  0.0927  0.0927
  0.0942

 Free energy of the ion-electron system (eV)
  ---------------------------------------------------
  alpha Z        PSCENC =      1166.52487208
  Ewald energy   TEWEN  =    -28485.40658300
  -Hartree energ DENC   =    -12531.24875044
  -exchange      EXHF   =         0.00000000
  -V(xc)+E(xc)   XCENC  =      1589.20648829
  PAW double counting   =     42458.17556101   -44355.39404862
  entropy T*S    EENTRO =        -0.08764837
  eigenvalues    EBANDS =      -860.23549033
  atomic energy  EATOM  =     40708.47505058
  Solvation  Ediel_sol  =         0.00000000
  ---------------------------------------------------
  free energy    TOTEN  =      -309.99054880 eV

  energy without entropy =     -309.90290043  energy(sigma->0) =     -309.94672462


--------------------------------------------------------------------------------------------------------




--------------------------------------- Iteration      1(  17)  ---------------------------------------


    POTLOK:  cpu time    0.2257: real time    0.2262
    SETDIJ:  cpu time    0.0250: real time    0.0251
     EDDAV:  cpu time  147.5097: real time  147.8591
    CHARGE:  cpu time    5.5338: real time    5.5470
    MIXING:  cpu time    0.0072: real time    0.0072
    --------------------------------------------
      LOOP:  cpu time  153.3014: real time  153.6645

 eigenvalue-minimisations  : 41424
 total energy-change (2. order) : 0.7614825E-01  (-0.5311353E+00)
 number of electron     431.9999980 magnetization      22.9421603
 augmentation part      182.1924239 magnetization      15.9332910

 Broyden mixing:
  rms(total) = 0.16796E+01    rms(broyden)= 0.16792E+01
  rms(prec ) = 0.22878E+01
  weight for this iteration     100.00

 eigenvalues of (default mixing * dielectric matrix)
  average eigenvalue GAMMA=   0.4069
  1.8146  0.5988  0.5988  0.4517  0.4517  0.3359  0.1228  0.1228  0.1135  0.0947
  0.0947  0.0822

 Free energy of the ion-electron system (eV)
  ---------------------------------------------------
  alpha Z        PSCENC =      1166.52487208
  Ewald energy   TEWEN  =    -28485.40658300
  -Hartree energ DENC   =    -12529.80774840
  -exchange      EXHF   =         0.00000000
  -V(xc)+E(xc)   XCENC  =      1589.07342012
  PAW double counting   =     42645.44052892   -44544.64632980
  entropy T*S    EENTRO =        -0.09428319
  eigenvalues    EBANDS =      -859.47332786
  atomic energy  EATOM  =     40708.47505058
  Solvation  Ediel_sol  =         0.00000000
  ---------------------------------------------------
  free energy    TOTEN  =      -309.91440055 eV

  energy without entropy =     -309.82011736  energy(sigma->0) =     -309.86725896


--------------------------------------------------------------------------------------------------------




--------------------------------------- Iteration      1(  18)  ---------------------------------------


    POTLOK:  cpu time    0.2270: real time    0.2275
    SETDIJ:  cpu time    0.0253: real time    0.0253
     EDDAV:  cpu time  142.4764: real time  142.8138
    CHARGE:  cpu time    5.5161: real time    5.5292
    MIXING:  cpu time    0.0073: real time    0.0073
    --------------------------------------------
      LOOP:  cpu time  148.2520: real time  148.6031

 eigenvalue-minimisations  : 39664
 total energy-change (2. order) : 0.2018400E+00  (-0.2275377E+00)
 number of electron     431.9999981 magnetization      21.7279453
 augmentation part      182.3517869 magnetization      15.1272664

 Broyden mixing:
  rms(total) = 0.14447E+01    rms(broyden)= 0.14444E+01
  rms(prec ) = 0.19966E+01
  weight for this iteration     100.00

 eigenvalues of (default mixing * dielectric matrix)
  average eigenvalue GAMMA=   0.4093
  1.9342  0.5824  0.5824  0.5827  0.4318  0.4318  0.1518  0.1220  0.1220  0.1110
  0.0916  0.0916  0.0860

 Free energy of the ion-electron system (eV)
  ---------------------------------------------------
  alpha Z        PSCENC =      1166.52487208
  Ewald energy   TEWEN  =    -28485.40658300
  -Hartree energ DENC   =    -12527.29477242
  -exchange      EXHF   =         0.00000000
  -V(xc)+E(xc)   XCENC  =      1588.92777387
  PAW double counting   =     42827.06107128   -44727.76274272
  entropy T*S    EENTRO =        -0.08842504
  eigenvalues    EBANDS =      -860.14880516
  atomic energy  EATOM  =     40708.47505058
  Solvation  Ediel_sol  =         0.00000000
  ---------------------------------------------------
  free energy    TOTEN  =      -309.71256055 eV

  energy without entropy =     -309.62413550  energy(sigma->0) =     -309.66834802


--------------------------------------------------------------------------------------------------------




--------------------------------------- Iteration      1(  19)  ---------------------------------------


    POTLOK:  cpu time    0.2255: real time    0.2261
    SETDIJ:  cpu time    0.0249: real time    0.0250
     EDDAV:  cpu time  146.4084: real time  146.7551
    CHARGE:  cpu time    5.5407: real time    5.5539
    MIXING:  cpu time    0.0075: real time    0.0075
    --------------------------------------------
      LOOP:  cpu time  152.2070: real time  152.5675

 eigenvalue-minimisations  : 41040
 total energy-change (2. order) : 0.4278910E+00  (-0.1645708E+00)
 number of electron     431.9999980 magnetization      20.4190844
 augmentation part      182.5043286 magnetization      13.9968400

 Broyden mixing:
  rms(total) = 0.82712E+00    rms(broyden)= 0.82679E+00
  rms(prec ) = 0.11506E+01
  weight for this iteration     100.00

 eigenvalues of (default mixing * dielectric matrix)
  average eigenvalue GAMMA=   0.4296
  2.0484  0.8824  0.6415  0.6415  0.3942  0.3942  0.2900  0.1217  0.1217  0.1223
  0.0939  0.0939  0.0845  0.0845

 Free energy of the ion-electron system (eV)
  ---------------------------------------------------
  alpha Z        PSCENC =      1166.52487208
  Ewald energy   TEWEN  =    -28485.40658300
  -Hartree energ DENC   =    -12526.43058827
  -exchange      EXHF   =         0.00000000
  -V(xc)+E(xc)   XCENC  =      1588.81754500
  PAW double counting   =     42917.74949071   -44818.99182293
  entropy T*S    EENTRO =        -0.09006540
  eigenvalues    EBANDS =      -859.93256829
  atomic energy  EATOM  =     40708.47505058
  Solvation  Ediel_sol  =         0.00000000
  ---------------------------------------------------
  free energy    TOTEN  =      -309.28466953 eV

  energy without entropy =     -309.19460413  energy(sigma->0) =     -309.23963683


--------------------------------------------------------------------------------------------------------




--------------------------------------- Iteration      1(  20)  ---------------------------------------


    POTLOK:  cpu time    0.2236: real time    0.2242
    SETDIJ:  cpu time    0.0248: real time    0.0249
     EDDAV:  cpu time  150.1879: real time  150.5435
    CHARGE:  cpu time    5.5054: real time    5.5186
    MIXING:  cpu time    0.0084: real time    0.0084
    --------------------------------------------
      LOOP:  cpu time  155.9501: real time  156.3195

 eigenvalue-minimisations  : 42320
 total energy-change (2. order) :-0.9079961E-01  (-0.5778889E-01)
 number of electron     431.9999980 magnetization      19.7634896
 augmentation part      182.3065932 magnetization      13.5551536

 Broyden mixing:
  rms(total) = 0.85848E+00    rms(broyden)= 0.85834E+00
  rms(prec ) = 0.11942E+01
  weight for this iteration     100.00

 eigenvalues of (default mixing * dielectric matrix)
  average eigenvalue GAMMA=   0.4234
  2.1062  0.9585  0.6524  0.6524  0.3886  0.3886  0.3211  0.1607  0.1224  0.1224
  0.1049  0.1049  0.0894  0.0894  0.0881

 Free energy of the ion-electron system (eV)
  ---------------------------------------------------
  alpha Z        PSCENC =      1166.52487208
  Ewald energy   TEWEN  =    -28485.40658300
  -Hartree energ DENC   =    -12525.13728563
  -exchange      EXHF   =         0.00000000
  -V(xc)+E(xc)   XCENC  =      1588.63178027
  PAW double counting   =     42974.89450588   -44875.62009750
  entropy T*S    EENTRO =        -0.09091936
  eigenvalues    EBANDS =      -861.64679246
  atomic energy  EATOM  =     40708.47505058
  Solvation  Ediel_sol  =         0.00000000
  ---------------------------------------------------
  free energy    TOTEN  =      -309.37546914 eV

  energy without entropy =     -309.28454978  energy(sigma->0) =     -309.33000946


--------------------------------------------------------------------------------------------------------




--------------------------------------- Iteration      1(  21)  ---------------------------------------


    POTLOK:  cpu time    0.2219: real time    0.2224
    SETDIJ:  cpu time    0.0247: real time    0.0247
     EDDAV:  cpu time  150.5321: real time  150.8886
    CHARGE:  cpu time    5.6935: real time    5.7070
    MIXING:  cpu time    0.0079: real time    0.0079
    --------------------------------------------
      LOOP:  cpu time  156.4800: real time  156.8507

 eigenvalue-minimisations  : 42384
 total energy-change (2. order) : 0.3816541E-01  (-0.6175646E-01)
 number of electron     431.9999981 magnetization      18.8028488
 augmentation part      182.2689799 magnetization      12.7720649

 Broyden mixing:
  rms(total) = 0.67157E+00    rms(broyden)= 0.67141E+00
  rms(prec ) = 0.89166E+00
  weight for this iteration     100.00

 eigenvalues of (default mixing * dielectric matrix)
  average eigenvalue GAMMA=   0.4395
  2.1543  1.1098  0.6523  0.6523  0.5711  0.3956  0.3956  0.2922  0.1224  0.1224
  0.1206  0.0933  0.0933  0.0903  0.0836  0.0836

 Free energy of the ion-electron system (eV)
  ---------------------------------------------------
  alpha Z        PSCENC =      1166.52487208
  Ewald energy   TEWEN  =    -28485.40658300
  -Hartree energ DENC   =    -12524.90928332
  -exchange      EXHF   =         0.00000000
  -V(xc)+E(xc)   XCENC  =      1588.55625593
  PAW double counting   =     42999.12462947   -44899.43959196
  entropy T*S    EENTRO =        -0.09206938
  eigenvalues    EBANDS =      -862.17058413
  atomic energy  EATOM  =     40708.47505058
  Solvation  Ediel_sol  =         0.00000000
  ---------------------------------------------------
  free energy    TOTEN  =      -309.33730374 eV

  energy without entropy =     -309.24523435  energy(sigma->0) =     -309.29126904


--------------------------------------------------------------------------------------------------------




--------------------------------------- Iteration      1(  22)  ---------------------------------------


    POTLOK:  cpu time    0.2080: real time    0.2085
    SETDIJ:  cpu time    0.0240: real time    0.0240
     EDDAV:  cpu time  149.8849: real time  150.2399
    CHARGE:  cpu time    5.5361: real time    5.5492
    MIXING:  cpu time    0.0091: real time    0.0091
    --------------------------------------------
      LOOP:  cpu time  155.6621: real time  156.0308

 eigenvalue-minimisations  : 42128
 total energy-change (2. order) :-0.7555928E-01  (-0.3281020E-01)
 number of electron     431.9999981 magnetization      18.3498348
 augmentation part      182.1466249 magnetization      12.4610002

 Broyden mixing:
  rms(total) = 0.62756E+00    rms(broyden)= 0.62746E+00
  rms(prec ) = 0.81961E+00
  weight for this iteration     100.00

 eigenvalues of (default mixing * dielectric matrix)
  average eigenvalue GAMMA=   0.4272
  2.1423  1.1457  0.6950  0.6388  0.6388  0.3935  0.3935  0.2966  0.1223  0.1223
  0.1210  0.1118  0.0935  0.0935  0.0868  0.0834  0.0834

 Free energy of the ion-electron system (eV)
  ---------------------------------------------------
  alpha Z        PSCENC =      1166.52487208
  Ewald energy   TEWEN  =    -28485.40658300
  -Hartree energ DENC   =    -12524.47151659
  -exchange      EXHF   =         0.00000000
  -V(xc)+E(xc)   XCENC  =      1588.54297294
  PAW double counting   =     43023.53285869   -44922.76410221
  entropy T*S    EENTRO =        -0.08638124
  eigenvalues    EBANDS =      -863.76003425
  atomic energy  EATOM  =     40708.47505058
  Solvation  Ediel_sol  =         0.00000000
  ---------------------------------------------------
  free energy    TOTEN  =      -309.41286302 eV

  energy without entropy =     -309.32648177  energy(sigma->0) =     -309.36967239


--------------------------------------------------------------------------------------------------------




--------------------------------------- Iteration      1(  23)  ---------------------------------------


    POTLOK:  cpu time    0.2244: real time    0.2249
    SETDIJ:  cpu time    0.0249: real time    0.0249
     EDDAV:  cpu time  149.2747: real time  149.6282
    CHARGE:  cpu time    5.5586: real time    5.5718
    MIXING:  cpu time    0.0093: real time    0.0093
    --------------------------------------------
      LOOP:  cpu time  155.0918: real time  155.4591

 eigenvalue-minimisations  : 41920
 total energy-change (2. order) : 0.8799232E-02  (-0.2828032E-01)
 number of electron     431.9999980 magnetization      17.9133801
 augmentation part      182.1805996 magnetization      12.1665021

 Broyden mixing:
  rms(total) = 0.49237E+00    rms(broyden)= 0.49227E+00
  rms(prec ) = 0.62812E+00
  weight for this iteration     100.00

 eigenvalues of (default mixing * dielectric matrix)
  average eigenvalue GAMMA=   0.4097
  2.1261  1.1362  0.7476  0.6312  0.6312  0.3939  0.3939  0.2981  0.1220  0.1220
  0.1049  0.1049  0.1126  0.1126  0.0885  0.0885  0.0874  0.0738

 Free energy of the ion-electron system (eV)
  ---------------------------------------------------
  alpha Z        PSCENC =      1166.52487208
  Ewald energy   TEWEN  =    -28485.40658300
  -Hartree energ DENC   =    -12524.55185156
  -exchange      EXHF   =         0.00000000
  -V(xc)+E(xc)   XCENC  =      1588.58151876
  PAW double counting   =     43034.99291271   -44933.73124346
  entropy T*S    EENTRO =        -0.08341157
  eigenvalues    EBANDS =      -864.20532831
  atomic energy  EATOM  =     40708.47505058
  Solvation  Ediel_sol  =         0.00000000
  ---------------------------------------------------
  free energy    TOTEN  =      -309.40406378 eV

  energy without entropy =     -309.32065221  energy(sigma->0) =     -309.36235800


--------------------------------------------------------------------------------------------------------




--------------------------------------- Iteration      1(  24)  ---------------------------------------


    POTLOK:  cpu time    0.2271: real time    0.2276
    SETDIJ:  cpu time    0.0248: real time    0.0249
     EDDAV:  cpu time  150.9201: real time  151.2775
    CHARGE:  cpu time    5.5777: real time    5.5911
    MIXING:  cpu time    0.0092: real time    0.0092
    --------------------------------------------
      LOOP:  cpu time  156.7589: real time  157.1304

 eigenvalue-minimisations  : 42496
 total energy-change (2. order) :-0.7775593E-02  (-0.1369118E-01)
 number of electron     431.9999980 magnetization      17.7824996
 augmentation part      182.2427251 magnetization      12.0712876

 Broyden mixing:
  rms(total) = 0.40758E+00    rms(broyden)= 0.40753E+00
  rms(prec ) = 0.50768E+00
  weight for this iteration     100.00

 eigenvalues of (default mixing * dielectric matrix)
  average eigenvalue GAMMA=   0.3990
  2.1238  1.1141  0.7523  0.6322  0.6322  0.3933  0.3933  0.2981  0.1708  0.1708
  0.1225  0.1225  0.1203  0.1010  0.0925  0.0925  0.0865  0.0815  0.0815

 Free energy of the ion-electron system (eV)
  ---------------------------------------------------
  alpha Z        PSCENC =      1166.52487208
  Ewald energy   TEWEN  =    -28485.40658300
  -Hartree energ DENC   =    -12524.70074474
  -exchange      EXHF   =         0.00000000
  -V(xc)+E(xc)   XCENC  =      1588.67389387
  PAW double counting   =     43044.22959236   -44942.45067667
  entropy T*S    EENTRO =        -0.08381263
  eigenvalues    EBANDS =      -864.67343122
  atomic energy  EATOM  =     40708.47505058
  Solvation  Ediel_sol  =         0.00000000
  ---------------------------------------------------
  free energy    TOTEN  =      -309.41183938 eV

  energy without entropy =     -309.32802674  energy(sigma->0) =     -309.36993306


--------------------------------------------------------------------------------------------------------




--------------------------------------- Iteration      1(  25)  ---------------------------------------


    POTLOK:  cpu time    0.2232: real time    0.2237
    SETDIJ:  cpu time    0.0246: real time    0.0247
     EDDAV:  cpu time  153.1671: real time  153.5298
    CHARGE:  cpu time    5.5821: real time    5.5953
    MIXING:  cpu time    0.0090: real time    0.0091
    --------------------------------------------
      LOOP:  cpu time  159.0060: real time  159.3826

 eigenvalue-minimisations  : 43296
 total energy-change (2. order) : 0.6149757E-02  (-0.7045127E-02)
 number of electron     431.9999980 magnetization      17.4754264
 augmentation part      182.2558208 magnetization      11.8372380

 Broyden mixing:
  rms(total) = 0.32404E+00    rms(broyden)= 0.32402E+00
  rms(prec ) = 0.37369E+00
  weight for this iteration     100.00

 eigenvalues of (default mixing * dielectric matrix)
  average eigenvalue GAMMA=   0.4464
  2.1076  1.0561  1.0561  0.9912  0.5929  0.5929  0.4391  0.3953  0.3953  0.2971
  0.1223  0.1223  0.1219  0.1093  0.0942  0.0942  0.0917  0.0840  0.0840  0.0811

 Free energy of the ion-electron system (eV)
  ---------------------------------------------------
  alpha Z        PSCENC =      1166.52487208
  Ewald energy   TEWEN  =    -28485.40658300
  -Hartree energ DENC   =    -12525.01697916
  -exchange      EXHF   =         0.00000000
  -V(xc)+E(xc)   XCENC  =      1588.72467282
  PAW double counting   =     43046.78437213   -44944.87979311
  entropy T*S    EENTRO =        -0.08078906
  eigenvalues    EBANDS =      -864.53051290
  atomic energy  EATOM  =     40708.47505058
  Solvation  Ediel_sol  =         0.00000000
  ---------------------------------------------------
  free energy    TOTEN  =      -309.40568962 eV

  energy without entropy =     -309.32490056  energy(sigma->0) =     -309.36529509


--------------------------------------------------------------------------------------------------------




--------------------------------------- Iteration      1(  26)  ---------------------------------------


    POTLOK:  cpu time    0.2252: real time    0.2257
    SETDIJ:  cpu time    0.0251: real time    0.0251
     EDDAV:  cpu time  153.7479: real time  154.1120
    CHARGE:  cpu time    5.5850: real time    5.5982
    MIXING:  cpu time    0.0097: real time    0.0097
    --------------------------------------------
      LOOP:  cpu time  159.5929: real time  159.9708

 eigenvalue-minimisations  : 43520
 total energy-change (2. order) :-0.6771532E-01  (-0.6736888E-02)
 number of electron     431.9999980 magnetization      17.3195977
 augmentation part      182.2472406 magnetization      11.7151133

 Broyden mixing:
  rms(total) = 0.40862E+00    rms(broyden)= 0.40858E+00
  rms(prec ) = 0.50979E+00
  weight for this iteration     100.00

 eigenvalues of (default mixing * dielectric matrix)
[...]
  in kB      -56.1561961    -55.9465832   -330.1170230     -0.2052419     -0.1963697     -1.2378188
  external PRESSURE =    -147.4066008 kB  Pullay stress =       0.0000000 kB


 VOLUME and BASIS-vectors are now :
 -----------------------------------------------------------------------------
  energy-cutoff  :      500.00
  volume of cell :      741.51
      direct lattice vectors                 reciprocal lattice vectors
     8.993883000  0.000000000  0.000000000     0.111186681  0.064193660  0.000000000
    -4.496941500  7.788931160  0.000000000     0.000000000  0.128387320  0.000000000
     0.000000000  0.000000000 10.584959750     0.000000000  0.000000000  0.094473671

  length of vectors
     8.993883000  8.993883003 10.584959750     0.128387320  0.128387320  0.094473671


 FORCES acting on ions
    electron-ion (+dipol)            ewald-force                    non-local-force                 convergence-correction
 -----------------------------------------------------------------------------------------------
   0.625E+02 0.219E+02 0.134E+03   -.618E+02 -.216E+02 -.136E+03   -.453E+00 -.396E-01 -.988E-01   -.146E+00 0.493E-01 0.230E-01
   0.708E+02 0.110E+01 -.411E+02   -.700E+02 -.128E+01 0.414E+02   -.564E+00 0.737E-01 0.986E+00   -.926E-01 0.857E-01 0.120E+00
   0.872E+02 0.499E+02 -.130E+03   -.864E+02 -.498E+02 0.134E+03   -.369E+00 0.111E+00 0.500E-01   -.264E-01 0.610E-02 -.110E+00
   -.475E+02 0.854E+01 0.950E+02   0.468E+02 -.815E+01 -.934E+02   0.218E+00 -.130E+00 -.221E+01   0.144E+00 -.248E-01 0.277E+00
   -.486E+02 0.162E+01 0.617E+01   0.493E+02 -.186E+01 -.532E+01   0.674E-01 0.155E+00 -.511E+00   -.701E+00 -.114E-01 0.219E+00
   -.425E+02 0.228E+02 0.367E+02   0.425E+02 -.230E+02 -.424E+02   0.159E+00 0.105E+00 -.282E+00   0.878E-01 0.434E-01 -.508E+00
   -.368E+02 -.224E+02 0.102E+03   0.367E+02 0.224E+02 -.101E+03   0.122E+00 -.417E-01 -.182E+01   0.155E+00 0.464E-01 0.198E+00
   -.721E+02 -.522E+02 0.466E+02   0.720E+02 0.528E+02 -.476E+02   0.598E+00 0.770E-01 -.580E+00   -.193E+00 -.741E+00 0.182E+00
   -.350E+02 -.600E+02 0.523E+01   0.347E+02 0.601E+02 -.620E+01   0.278E+00 -.451E-01 -.184E+01   0.202E+00 0.736E-01 -.365E+00
   -.321E+01 0.958E+02 0.883E+02   0.329E+01 -.952E+02 -.898E+02   0.168E+00 -.141E+00 -.260E+00   -.842E-01 -.242E+00 0.257E+00
   -.885E+01 0.831E+02 0.530E+02   0.817E+01 -.833E+02 -.562E+02   0.986E-01 -.443E-01 0.356E+00   0.538E+00 0.447E+00 0.373E+00
   -.266E+02 0.967E+02 -.112E+03   0.268E+02 -.957E+02 0.114E+03   0.777E-01 -.261E+00 -.941E-01   0.351E-01 -.199E+00 -.597E+00
   0.818E+02 -.198E+02 0.119E+03   -.813E+02 0.199E+02 -.120E+03   -.168E-01 -.135E+00 -.687E+00   -.381E+00 0.348E-01 0.208E+00
   0.762E+02 0.150E+01 -.483E+02   -.767E+02 -.170E+01 0.510E+02   0.342E-01 -.187E+00 0.613E-01   0.480E+00 0.109E+00 0.172E+00
   0.619E+02 0.119E+01 -.730E+02   -.612E+02 -.110E+01 0.748E+02   -.136E+00 -.318E+00 -.220E+00   -.234E+00 0.292E-01 -.327E+00
   0.391E+02 -.177E+02 0.862E+02   -.385E+02 0.174E+02 -.873E+02   -.432E+00 0.289E+00 0.155E+00   -.681E-01 -.676E-01 0.153E+00
   0.526E+02 -.383E+02 -.719E+02   -.520E+02 0.377E+02 0.749E+02   -.340E+00 0.236E+00 0.547E+00   0.114E-01 0.243E-01 0.285E+00
   0.564E+02 -.577E+02 -.581E+02   -.559E+02 0.575E+02 0.596E+02   -.265E+00 -.450E-02 -.210E+00   -.105E+00 0.429E-01 -.415E+00
   -.602E+02 0.589E+02 0.908E+02   0.595E+02 -.584E+02 -.912E+02   0.242E+00 -.317E+00 -.995E+00   0.238E+00 -.818E-01 0.403E+00
   -.526E+02 0.666E+02 0.542E+02   0.529E+02 -.669E+02 -.561E+02   0.464E+00 -.355E+00 -.248E+00   -.398E+00 0.673E+00 0.227E+00
   -.442E+02 0.536E+02 -.415E+02   0.439E+02 -.535E+02 0.435E+02   0.356E+00 -.156E+00 -.155E+01   0.211E-01 -.735E-01 -.591E+00
   -.413E+02 -.199E+02 0.890E+02   0.412E+02 0.198E+02 -.885E+02   -.745E-01 0.190E+00 -.150E+01   0.239E+00 -.170E-01 0.309E+00
   -.208E+02 0.181E+02 0.104E+03   0.207E+02 -.181E+02 -.109E+03   -.156E+00 0.136E+00 -.822E+00   0.207E+00 -.109E+00 0.884E+00
   -.724E+01 0.313E+02 0.457E+00   0.738E+01 -.311E+02 0.598E+00   -.703E-02 0.445E-01 -.210E+01   0.174E+00 -.456E-01 -.142E+01
   0.175E+02 -.872E+02 0.135E+03   -.173E+02 0.864E+02 -.138E+03   0.650E-01 0.202E+00 -.607E+00   -.792E-01 0.239E+00 0.334E+00
   0.395E+02 -.106E+03 0.996E+01   -.396E+02 0.106E+03 -.976E+01   -.227E-01 0.399E+00 -.622E-01   0.179E+00 -.560E+00 0.260E+00
   0.200E+02 -.119E+03 -.104E+03   -.196E+02 0.118E+03 0.107E+03   -.452E-02 0.267E+00 -.338E+00   -.998E-01 0.181E+00 -.546E+00
   0.541E+02 0.759E+01 0.839E+01   -.562E+02 -.860E+01 -.591E+01   0.241E+01 0.107E+01 -.155E+01   -.106E+00 0.335E-01 -.154E-01
   0.535E+02 0.124E+02 0.817E+02   -.544E+02 -.116E+02 -.933E+02   0.700E+00 -.109E+01 0.738E+01   -.402E-01 0.233E-01 0.613E-01
   0.462E+02 0.151E+02 -.514E+02   -.462E+02 -.139E+02 0.542E+02   -.258E-01 -.180E+01 -.236E+01   -.497E-01 0.194E-01 -.906E-01
   -.261E+02 -.282E+01 0.499E+02   0.264E+02 0.321E+01 -.523E+02   -.654E-01 -.463E+00 0.115E+01   -.123E+00 -.160E-01 0.503E+00
   -.366E+02 0.694E+01 0.203E+01   0.387E+02 -.733E+01 -.225E+01   -.212E+01 0.395E+00 0.356E+00   -.253E+00 0.281E-01 -.368E+00
   -.220E+02 0.428E+01 -.181E+03   0.208E+02 -.335E+01 0.200E+03   0.114E+01 -.105E+01 -.115E+02   0.143E+00 0.124E-01 -.141E+00
   -.463E+02 -.173E+02 0.368E+02   0.477E+02 0.180E+02 -.369E+02   -.160E+01 -.641E+00 0.961E-02   0.186E-01 -.155E+00 0.122E+00
   -.623E+02 -.301E+02 -.526E+02   0.642E+02 0.299E+02 0.575E+02   -.221E+01 0.543E+00 -.337E+01   -.260E-01 -.265E+00 -.140E+00
   -.356E+02 -.415E+02 -.130E+03   0.376E+02 0.424E+02 0.142E+03   -.230E+01 -.953E+00 -.805E+01   0.115E+00 0.749E-01 -.456E-01
   -.915E+01 0.533E+02 0.259E+02   0.988E+01 -.540E+02 -.262E+02   -.923E+00 0.654E+00 -.188E+00   0.108E+00 0.959E-02 0.657E+00
   -.121E+02 0.401E+02 -.477E+02   0.115E+02 -.387E+02 0.522E+02   0.419E+00 -.186E+01 -.256E+01   0.237E+00 0.119E+00 -.277E+00
   -.127E+02 0.469E+02 -.436E+01   0.143E+02 -.459E+02 0.360E+01   -.204E+01 -.130E+01 0.119E+01   -.857E-01 -.195E+00 -.332E+00
   0.250E+02 0.403E+01 0.582E+02   -.218E+02 -.437E+01 -.622E+02   -.359E+01 0.376E+00 0.180E+01   -.110E-01 0.553E-01 0.346E+00
   0.261E+02 0.139E+02 0.439E+02   -.257E+02 -.158E+02 -.496E+02   -.684E+00 0.225E+01 0.404E+01   0.159E+00 0.481E-01 -.342E+00
   0.334E+02 0.231E+01 -.967E+02   -.331E+02 -.354E+01 0.103E+03   -.286E+00 0.158E+01 -.562E+01   -.230E+00 0.297E-02 0.159E-02
   0.262E+02 -.249E+02 0.849E+02   -.263E+02 0.265E+02 -.926E+02   -.125E+00 -.159E+01 0.424E+01   -.255E-02 -.100E-01 0.326E+00
   0.351E+02 -.234E+02 0.439E+02   -.350E+02 0.224E+02 -.499E+02   -.280E+00 0.130E+01 0.402E+01   -.319E-01 0.363E-01 -.772E-01
   0.288E+02 -.211E+02 -.845E+02   -.300E+02 0.215E+02 0.907E+02   0.138E+01 -.369E+00 -.458E+01   -.524E-01 -.277E-01 -.233E+00
   -.431E+02 0.331E+02 0.197E+02   0.444E+02 -.335E+02 -.189E+02   -.158E+01 0.227E+00 -.884E+00   -.173E-01 0.106E+00 0.350E+00
   -.475E+02 0.478E+02 -.434E+02   0.496E+02 -.493E+02 0.476E+02   -.218E+01 0.136E+01 -.243E+01   -.177E+00 0.224E+00 -.388E+00
   -.358E+02 0.436E+02 -.706E+02   0.354E+02 -.450E+02 0.761E+02   0.546E+00 0.164E+01 -.419E+01   0.113E+00 -.828E-01 -.301E-01
   -.200E+02 -.889E+01 0.850E+01   0.186E+02 0.102E+02 -.689E+01   0.160E+01 -.145E+01 -.264E+01   0.188E+00 -.396E-01 0.183E+01
   -.189E+02 0.133E+02 -.794E+02   0.197E+02 -.129E+02 0.904E+02   -.122E+01 -.441E+00 -.530E+01   0.132E+00 -.953E-01 -.194E+01
   -.200E+02 0.366E+01 -.112E+03   0.207E+02 -.424E+01 0.121E+03   -.904E+00 0.508E+00 -.658E+01   0.124E+00 -.153E-01 0.126E-01
   0.993E+01 -.520E+02 0.222E+02   -.946E+01 0.516E+02 -.207E+02   -.547E+00 0.675E+00 -.119E+01   -.537E-02 -.171E-01 0.559E+00
   0.983E+01 -.790E+02 0.156E+01   -.876E+01 0.809E+02 -.326E+01   -.131E+01 -.175E+01 0.907E+00   0.434E-01 -.170E+00 -.375E+00
   -.126E+01 -.580E+02 -.553E+02   0.206E+01 0.575E+02 0.580E+02   -.113E+01 0.684E+00 -.213E+01   -.631E-01 0.167E+00 -.164E+00
 -----------------------------------------------------------------------------------------------
   0.166E+02 0.162E+01 0.551E+02   0.157E-12 -.995E-13 0.277E-12   -.168E+02 -.140E+01 -.549E+02   0.213E+00 -.218E+00 -.183E+00
 
 
 POSITION                                       TOTAL-FORCE (eV/Angst)
 -----------------------------------------------------------------------------------
     -4.43048      7.75043     10.56915         0.019561      0.335236     -2.648082
      0.02822      0.01479      3.36091         0.086176     -0.013600      1.372382
      0.04808      0.00520      6.86050         0.392920      0.234403      4.285712
      7.32039      2.55871     10.51811        -0.265383      0.231603     -0.282905
      7.31820      2.59334      3.44213         0.122114     -0.097940      0.558296
      7.29283      2.55895      6.96889         0.190209     -0.065445     -6.494754
      5.84317      5.09757     10.55563         0.121757     -0.031321     -0.841166
      5.75115      5.10619      3.49376         0.243339     -0.131379     -1.390432
      5.76823      5.04638      6.96961         0.178301      0.076841     -3.168643
      2.90816      0.03011      0.00544         0.163927      0.262771     -1.505259
     -1.60773      7.77708      3.48508        -0.047956      0.185105     -2.422631
     -1.70097      7.72769      6.82672         0.303319      0.537253      2.004160
      1.44148      2.51627     10.57759         0.157172     -0.089151     -1.356533
      1.41978      2.63203      3.36072         0.059159     -0.277914      2.910638
      1.39701      2.60065      6.87814         0.359874     -0.201923      1.203734
     -0.02902      5.10955     10.53644         0.178105     -0.041637     -0.815373
      0.04992      5.10961      3.34883         0.276903     -0.355131      3.871694
      0.05518      5.08936      6.89482         0.173478     -0.083985      0.843966
      5.87349      0.04953     10.52902        -0.162935      0.080501     -1.024566
      5.76191      0.10534      3.47570         0.382238      0.039687     -1.824277
      5.81695      0.00664      6.88801         0.046111     -0.123309     -0.108531
      4.32955      2.45106     10.51304         0.087881      0.116430     -0.667068
      4.42404      2.55020      3.52742        -0.075484      0.089224     -4.387152
      4.29642      2.56310      6.94124         0.310671      0.153510     -2.459711
      2.88806      5.12326     10.57624         0.230449     -0.412705     -2.449593
      3.01892      5.05468      3.40197        -0.008289     -0.095662      0.394866
      2.87378      4.99144      6.83472         0.290555     -0.174993      2.025406
      4.44740      7.73539      1.64923         0.161167      0.097039      0.917555
      0.01098      0.03394      5.25786        -0.234537     -0.200440     -4.125694
      0.04251      0.07267      8.65851        -0.144767     -0.549121      0.420122
      7.34026      2.60260      1.71800         0.065001     -0.089299     -0.737247
      7.39350      2.55069      5.21527        -0.292732      0.036060     -0.232259
      7.24582      2.60441      8.50116         0.130513     -0.114627      7.114154
      5.86420      5.12920      1.73567        -0.199637     -0.010695      0.003377
      5.85557      5.06490      5.16574        -0.321129      0.091810      1.472473
      5.90273      5.10079      8.58382        -0.179016      0.056472      3.723377
     -1.57029      7.76198      1.74613        -0.086206     -0.107192      0.159134
      2.83069      0.02104      5.10994         0.081450     -0.378969      1.672902
      2.97138      0.04921      8.71693        -0.549679     -0.524357      0.096688
      1.54047      2.56720      1.72264        -0.422705      0.087906     -1.840251
      1.45065      2.52476      5.19632        -0.199509      0.415573     -1.936652
      1.41374      2.49824      8.60318        -0.192110      0.348798      1.047129
      0.02112      5.16471      1.73649        -0.225480     -0.054158     -3.120126
      0.06149      5.05957      5.20548        -0.240296      0.324375     -1.996963
     -0.06418      5.10659      8.61030         0.079867      0.010408      1.386274
      5.89935      0.06946      1.70206        -0.264765     -0.050281      0.224012
      5.87428      0.00038      5.13249        -0.308478      0.112099      1.372249
      1.33508      7.74394      8.61313         0.216807      0.226380      1.300440
      4.30399      2.56148      1.68161         0.377942     -0.208622      0.796827
      4.42196      2.57000      5.13396        -0.268716     -0.126341      3.714150
      4.36522      2.50533      8.58429        -0.122340     -0.090186      2.846789
      2.96157      5.08148      1.67589        -0.086654      0.195441      0.840936
      2.99517      5.09840      5.14515        -0.193306      0.001462     -1.165032
      2.94521      5.02026      8.65576        -0.394858      0.353995      0.421457
 -----------------------------------------------------------------------------------
    total drift:                               -0.001253     -0.000883      0.004633


--------------------------------------------------------------------------------------------------------



  FREE ENERGIE OF THE ION-ELECTRON SYSTEM (eV)
  ---------------------------------------------------
  free  energy   TOTEN  =      -309.7779177245 eV

  energy  without entropy=     -309.7069836204  energy(sigma->0) =     -309.74245067
 


--------------------------------------------------------------------------------------------------------


    POTLOK:  cpu time    0.2545: real time    0.2551


--------------------------------------------------------------------------------------------------------


     LOOP+:  cpu time12632.9120: real time12663.4002
    4ORBIT:  cpu time    0.0000: real time    0.0000

volume of typ            1:    23.2 %

volume of typ            2:     5.9 %
 
total charge     
 
# of ion       s       p       d       tot
------------------------------------------
    1        0.262   0.234   7.920   8.416
    2        0.245   0.212   7.938   8.395
    3        0.304   0.305   7.884   8.494
    4        0.223   0.169   7.920   8.312
    5        0.267   0.249   7.901   8.417
    6        0.334   0.361   7.906   8.601
    7        0.232   0.184   7.904   8.320
    8        0.286   0.282   7.894   8.462
    9        0.291   0.289   7.903   8.483
   10        0.256   0.223   7.892   8.371
   11        0.301   0.310   7.898   8.510
   12        0.245   0.215   7.916   8.376
   13        0.237   0.198   7.912   8.347
   14        0.273   0.264   7.928   8.465
   15        0.291   0.297   7.879   8.467
   16        0.228   0.182   7.932   8.343
   17        0.286   0.274   7.909   8.469
   18        0.293   0.292   7.873   8.459
   19        0.244   0.201   7.888   8.333
   20        0.284   0.277   7.892   8.454
   21        0.269   0.253   7.902   8.425
   22        0.243   0.203   7.909   8.355
   23        0.286   0.288   7.880   8.454
   24        0.282   0.279   7.919   8.480
   25        0.258   0.225   7.910   8.392
   26        0.274   0.263   7.896   8.433
   27        0.269   0.254   7.894   8.417
   28        1.270   2.753   0.011   4.033
   29        1.270   2.753   0.009   4.033
   30        1.268   2.696   0.004   3.969
   31        1.270   2.721   0.008   3.999
   32        1.268   2.730   0.006   4.005
   33        1.278   2.751   0.011   4.041
   34        1.268   2.725   0.007   4.001
   35        1.269   2.741   0.008   4.019
   36        1.272   2.726   0.008   4.007
   37        1.267   2.742   0.008   4.016
   38        1.271   2.765   0.012   4.047
   39        1.272   2.675   0.004   3.951
   40        1.271   2.754   0.011   4.036
   41        1.268   2.740   0.007   4.016
   42        1.272   2.698   0.005   3.975
   43        1.271   2.755   0.011   4.036
   44        1.266   2.737   0.007   4.009
   45        1.269   2.710   0.006   3.985
   46        1.267   2.724   0.007   3.998
   47        1.269   2.749   0.009   4.027
   48        1.270   2.706   0.006   3.982
   49        1.272   2.718   0.006   3.995
   50        1.271   2.749   0.010   4.030
   51        1.272   2.728   0.008   4.008
   52        1.270   2.748   0.009   4.027
   53        1.269   2.745   0.009   4.023
   54        1.271   2.685   0.004   3.960
--------------------------------------------------
tot          41.55   80.51  213.61  335.68
 
magnetization (x)
 
# of ion       s       p       d       tot
------------------------------------------
    1        0.002  -0.003  -0.228  -0.230
    2       -0.006   0.000  -0.590  -0.596
    3        0.020  -0.003   0.956   0.973
    4        0.005  -0.001   0.910   0.914
    5        0.001   0.002   0.231   0.234
    6        0.022   0.003   0.770   0.794
    7        0.009  -0.002   0.875   0.882
    8       -0.010   0.003  -0.633  -0.640
    9        0.017   0.001   0.766   0.784
   10        0.011  -0.005   0.898   0.904
   11       -0.009   0.003  -0.632  -0.638
   12        0.010  -0.004   0.530   0.536
   13        0.006  -0.001   0.859   0.864
   14       -0.001   0.004   0.288   0.291
   15        0.018  -0.004   0.936   0.951
   16        0.004  -0.002   0.317   0.319
   17       -0.009   0.001  -0.730  -0.738
   18        0.020  -0.005   0.968   0.983
   19        0.010  -0.003   0.917   0.924
   20       -0.009   0.002  -0.650  -0.657
   21        0.012  -0.001   0.584   0.595
   22        0.009  -0.004   1.011   1.016
   23       -0.005  -0.000   0.070   0.065
   24        0.013  -0.001   0.846   0.859
   25        0.010  -0.003   0.769   0.777
   26       -0.008   0.004  -0.585  -0.589
   27        0.013  -0.004   0.778   0.787
   28       -0.007  -0.255   0.000  -0.262
   29        0.005   0.236   0.000   0.242
   30        0.005   0.223   0.000   0.228
   31        0.008   0.329  -0.000   0.337
   32        0.000   0.015   0.000   0.015
   33        0.008   0.349   0.001   0.358
   34        0.002   0.097  -0.000   0.099
   35       -0.004  -0.169   0.000  -0.173
   36        0.010   0.396   0.000   0.407
   37        0.002   0.061   0.000   0.063
   38       -0.004  -0.161   0.000  -0.165
   39        0.012   0.447   0.000   0.459
   40        0.007   0.274  -0.000   0.281
   41        0.004   0.161   0.000   0.165
   42        0.011   0.417   0.000   0.428
   43       -0.006  -0.224   0.000  -0.230
   44        0.003   0.116   0.000   0.119
   45        0.009   0.365   0.000   0.375
   46        0.003   0.105   0.000   0.108
   47       -0.005  -0.175   0.000  -0.179
   48        0.009   0.374   0.000   0.384
   49        0.009   0.342   0.000   0.351
   50       -0.000   0.024   0.000   0.025
   51        0.011   0.420   0.000   0.430
   52        0.001   0.034   0.000   0.035
   53       -0.001  -0.034   0.000  -0.034
   54        0.011   0.423   0.000   0.434
--------------------------------------------------
tot           0.26    4.17   10.24   14.66
 

 total amount of memory used by VASP MPI-rank0   439660. kBytes
=======================================================================

   base      :      30000. kBytes
   nonlr-proj:      41414. kBytes
   fftplans  :       8419. kBytes
   grid      :      47806. kBytes
   one-center:       1679. kBytes
   wavefun   :     310342. kBytes
 
  
  
 General timing and accounting informations for this job:
 ========================================================
  
                  Total CPU time used (sec):    12710.694
                            User time (sec):    12701.420
                          System time (sec):        9.275
                         Elapsed time (sec):    12745.493
  
                   Maximum memory used (kb):      530460.
                   Average memory used (kb):           0.
  
                          Minor page faults:        44320
                          Major page faults:           34
                 Voluntary context switches:         1201
