 vasp.5.4.4.18Apr17-6-g9f103f2a35 (build May 12 2020 04:58:55) complex          
  
 MD_VERSION_INFO: Compiled 2020-05-12T11:58:55-UTC in devlin.sd.materialsdesign.
 com:/home/medea2/data/build/wwolf/vasp-gpu5.4.4/13047/x86_64/src/src/build/std 
 from svn 13047
 
 This VASP executable licensed from Materials Design, Inc.
 
 executed on                        Lin64 date 2023.03.24  04:07:08
 running on   16 total cores
 distrk:  each k-point on   16 cores,    1 groups
 distr:  one band on NCORES_PER_BAND=   1 cores,   16 groups


--------------------------------------------------------------------------------------------------------


 INCAR:
 POTCAR:    PAW_PBE Ni 02Aug2007                  
 POTCAR:    PAW_PBE O 08Apr2002                   

 ----------------------------------------------------------------------------- 
|                                                                             |
|           W    W    AA    RRRRR   N    N  II  N    N   GGGG   !!!           |
|           W    W   A  A   R    R  NN   N  II  NN   N  G    G  !!!           |
|           W    W  A    A  R    R  N N  N  II  N N  N  G       !!!           |
|           W WW W  AAAAAA  RRRRR   N  N N  II  N  N N  G  GGG   !            |
|           WW  WW  A    A  R   R   N   NN  II  N   NN  G    G                |
|           W    W  A    A  R    R  N    N  II  N    N   GGGG   !!!           |
|                                                                             |
|      For optimal performance we recommend to set                            |
|        NCORE= 4 - approx SQRT( number of cores)                             |
|      NCORE specifies how many cores store one orbital (NPAR=cpu/NCORE).     |
|      This setting can  greatly improve the performance of VASP for DFT.     |
|      The default,   NCORE=1            might be grossly inefficient         |
|      on modern multi-core architectures or massively parallel machines.     |
|      Do your own testing !!!!                                               |
|      Unfortunately you need to use the default for GW and RPA calculations. |
|      (for HF NCORE is supported but not extensively tested yet)             |
|                                                                             |
 ----------------------------------------------------------------------------- 

 POTCAR:    PAW_PBE Ni 02Aug2007                  
  local pseudopotential read in
  partial core-charges read in
  partial kinetic energy density read in
  atomic valenz-charges read in
  non local Contribution for L=           2  read in
    real space projection operators read in
  non local Contribution for L=           2  read in
    real space projection operators read in
  non local Contribution for L=           0  read in
    real space projection operators read in
  non local Contribution for L=           0  read in
    real space projection operators read in
  non local Contribution for L=           1  read in
    real space projection operators read in
  non local Contribution for L=           1  read in
    real space projection operators read in
    PAW grid and wavefunctions read in
 
   number of l-projection  operators is LMAX  =           6
   number of lm-projection operators is LMMAX =          18
 
 POTCAR:    PAW_PBE O 08Apr2002                   
  local pseudopotential read in
  partial core-charges read in
  partial kinetic energy density read in
  kinetic energy density of atom read in
  atomic valenz-charges read in
  non local Contribution for L=           0  read in
    real space projection operators read in
  non local Contribution for L=           0  read in
    real space projection operators read in
  non local Contribution for L=           1  read in
    real space projection operators read in
  non local Contribution for L=           1  read in
    real space projection operators read in
    PAW grid and wavefunctions read in
 
   number of l-projection  operators is LMAX  =           4
   number of lm-projection operators is LMMAX =           8
 
 Optimization of the real space projectors (new method)

 maximal supplied QI-value         = 16.25
 optimisation between [QCUT,QGAM] = [ 11.38, 22.75] = [ 36.24,144.96] Ry 
 Optimized for a Real-space Cutoff    1.47 Angstroem

   l    n(q)    QCUT    max X(q) W(low)/X(q) W(high)/X(q)  e(spline) 
   2      9    11.376    60.317    0.17E-03    0.16E-04    0.16E-06
   2      9    11.376    55.921    0.17E-03    0.16E-04    0.17E-06
   0     10    11.376    51.690    0.45E-04    0.60E-04    0.21E-06
   0     10    11.376    30.015    0.37E-04    0.55E-04    0.19E-06
   1     10    11.376    18.849    0.83E-04    0.11E-03    0.92E-07
   1     10    11.376    14.624    0.69E-04    0.92E-04    0.82E-07
 Optimization of the real space projectors (new method)

 maximal supplied QI-value         = 24.76
 optimisation between [QCUT,QGAM] = [ 11.39, 22.77] = [ 36.31,145.25] Ry 
 Optimized for a Real-space Cutoff    1.10 Angstroem

   l    n(q)    QCUT    max X(q) W(low)/X(q) W(high)/X(q)  e(spline) 
   0      7    11.387    20.381    0.22E-03    0.48E-03    0.18E-06
   0      7    11.387    15.268    0.22E-03    0.52E-03    0.19E-06
   1      7    11.387     5.964    0.22E-03    0.73E-03    0.24E-06
   1      7    11.387     5.382    0.19E-03    0.60E-03    0.21E-06

 ----------------------------------------------------------------------------- 
|                                                                             |
|  ADVICE TO THIS USER RUNNING 'VASP/VAMP'   (HEAR YOUR MASTER'S VOICE ...):  |
|                                                                             |
|      You enforced a specific xc-type in the INCAR file,                     |
|      a different type was found on the POTCAR file                          |
|          I HOPE YOU KNOW, WHAT YOU ARE  DOING                               |
|                                                                             |
 ----------------------------------------------------------------------------- 

  PAW_PBE Ni 02Aug2007                  :
 energy of atom  1       EATOM=-1077.6739
 kinetic energy error for atom=    0.0030 (will be added to EATOM!!)
  PAW_PBE O 08Apr2002                   :
 energy of atom  2       EATOM= -432.3788
 kinetic energy error for atom=    0.0224 (will be added to EATOM!!)
 
 
 POSCAR: NiO_Cmmm_scale_1_000_disp_0_20_round_2  
  positions in direct lattice
  No initial velocities read in
 exchange correlation table for  LEXCH =       14
   RHO(1)=    0.500       N(1)  =     2000
   RHO(2)=  100.500       N(2)  =     4000
 


--------------------------------------------------------------------------------------------------------


 ion  position               nearest neighbor table
   1  0.016  0.001  0.985-  30 1.38  28 1.67   7 2.66  10 2.76   4 3.06  25 3.07
   2  0.977  0.970  0.308-  28 1.73  29 2.17  26 2.60   8 2.76   5 2.91  14 3.06  11 3.08
   3  0.008  0.002  0.646-  29 1.41  30 2.17  15 2.71   6 2.92  21 2.92   9 2.97  27 3.01  12 3.06

   4  0.946  0.309  0.996-  33 1.97  31 2.03  22 2.19  19 2.88   1 3.06
   5  0.993  0.308  0.331-  32 1.53  31 1.57  23 2.85  14 2.86   2 2.91  20 2.91  17 3.02
   6  0.038  0.345  0.681-  33 1.46  32 2.11  18 2.35  15 2.52  21 2.84   3 2.92   9 2.97
   7  0.945  0.671  0.012-  34 1.86  36 1.90   1 2.66  25 2.69  22 2.73  10 2.89
   8  0.015  0.678  0.332-  34 1.52  35 1.72  17 2.50  11 2.70   2 2.76  26 3.01
   9  0.983  0.652  0.664-  35 1.75  36 1.79  27 2.81  18 2.85   6 2.97   3 2.97  24 2.98
  10  0.304  0.957  0.012-  39 1.63  37 1.86  19 2.53  16 2.72   1 2.76   7 2.89
  11  0.328  0.979  0.347-  37 1.65  38 1.83  20 2.54  17 2.54   8 2.70  23 2.73  14 3.01   2 3.08

  12  0.391  0.084  0.646-  38 1.47  24 2.12  39 2.27  15 2.52  21 2.90   3 3.06
  13  0.349  0.375  0.003-  40 1.72  42 1.94  16 2.60  25 2.63
  14  0.324  0.318  0.330-  40 1.70  41 2.18   5 2.86  11 3.01   2 3.06
  15  0.302  0.307  0.708-  42 1.19  41 1.84   6 2.52  12 2.52   3 2.71  18 2.85  24 3.04
  16  0.345  0.669  0.001-  43 1.76  45 2.00  25 2.57  13 2.60  19 2.61  10 2.72
  17  0.300  0.679  0.312-  43 1.60  44 2.40   8 2.50  11 2.54  20 2.96   5 3.02
  18  0.294  0.625  0.671-  45 1.44  44 1.53   6 2.35  15 2.85   9 2.85
  19  0.608  0.991  0.007-  48 1.50  46 1.98  10 2.53  22 2.57  16 2.61   4 2.88  25 2.90
  20  0.634  0.015  0.344-  47 1.41  46 1.51  23 2.20  11 2.54   5 2.91  17 2.96
  21  0.698  0.043  0.660-  47 1.90  48 2.29  24 2.66   6 2.84  12 2.90   3 2.92
  22  0.703  0.320  0.002-  49 1.49  51 1.89   4 2.19  19 2.57   7 2.73
  23  0.652  0.274  0.346-  50 1.87  20 2.20  49 2.29  11 2.73   5 2.85
  24  0.643  0.314  0.644-  50 1.43  51 1.93  12 2.12  21 2.66  27 2.94   9 2.98  15 3.04
  25  0.643  0.680  0.000-  54 1.64  52 1.86  16 2.57  13 2.63   7 2.69  19 2.90   1 3.07
  26  0.674  0.683  0.333-  52 1.59  53 1.90   2 2.60   8 3.01
  27  0.666  0.659  0.670-  53 1.60  54 1.79   9 2.81  24 2.94   3 3.01
  28  0.031  0.018  0.146-   1 1.67   2 1.73
  29  0.036  0.991  0.513-   3 1.41   2 2.17
  30  0.983  0.012  0.855-   1 1.38   3 2.17
  31  0.031  0.347  0.182-   5 1.57   4 2.03
  32  0.031  0.338  0.476-   5 1.53   6 2.11
  33  0.038  0.319  0.820-   6 1.46   4 1.97
  34  1.000  0.667  0.185-   8 1.52   7 1.86
  35  0.013  0.694  0.498-   8 1.72   9 1.75
  36  0.011  0.680  0.836-   9 1.79   7 1.90
  37  0.309  0.996  0.190-  11 1.65  10 1.86
  38  0.321  0.987  0.524-  12 1.47  11 1.83
  39  0.339  0.012  0.859-  10 1.63  12 2.27
  40  0.315  0.330  0.166-  14 1.70  13 1.72
  41  0.368  0.358  0.537-  15 1.84  14 2.18
  42  0.349  0.345  0.817-  15 1.19  13 1.94
  43  0.351  0.646  0.170-  17 1.60  16 1.76
  44  0.357  0.632  0.532-  18 1.53  17 2.40
  45  0.326  0.642  0.809-  18 1.44  16 2.00
  46  0.622  0.003  0.198-  20 1.51  19 1.98
  47  0.657  0.009  0.479-  20 1.41  21 1.90
  48  0.626  0.947  0.870-  19 1.50  21 2.29
  49  0.682  0.369  0.136-  22 1.49  23 2.29
  50  0.667  0.368  0.511-  24 1.43  23 1.87
  51  0.719  0.361  0.822-  22 1.89  24 1.93
  52  0.657  0.670  0.180-  26 1.59  25 1.86
  53  0.666  0.652  0.515-  27 1.60  26 1.90
  54  0.659  0.662  0.844-  25 1.64  27 1.79
 
  LATTYP: Found a hexagonal cell.
 ALAT       =     8.7745200035
 C/A-ratio  =     1.1769065426
  
  Lattice vectors:
  
 A1 = (   8.7745200000,   0.0000000000,   0.0000000000)
 A2 = (  -4.3872600000,   7.5989572300,   0.0000000000)
 A3 = (   0.0000000000,   0.0000000000,  10.3267900000)


Analysis of symmetry for initial positions (statically):
=====================================================================
 Subroutine PRICEL returns:
 Original cell was already a primitive cell.
 

 Routine SETGRP: Setting up the symmetry group for a 
 hexagonal supercell.


 Subroutine GETGRP returns: Found  1 space group operations
 (whereof  1 operations were pure point group operations)
 out of a pool of 24 trial point group operations.


The static configuration has the point symmetry C_1 .


Analysis of symmetry for dynamics (positions and initial velocities):
=====================================================================
 Subroutine PRICEL returns:
 Original cell was already a primitive cell.
 

 Routine SETGRP: Setting up the symmetry group for a 
 hexagonal supercell.


 Subroutine GETGRP returns: Found  1 space group operations
 (whereof  1 operations were pure point group operations)
 out of a pool of 24 trial point group operations.


The dynamic configuration has the point symmetry C_1 .


Analysis of structural, dynamic, and magnetic symmetry:
=====================================================================
 Subroutine PRICEL returns:
 Original cell was already a primitive cell.
 

 Routine SETGRP: Setting up the symmetry group for a 
 hexagonal supercell.


 Subroutine GETGRP returns: Found  1 space group operations
 (whereof  1 operations were pure point group operations)
 out of a pool of 24 trial point group operations.


The magnetic configuration has the point symmetry C_1 .


 Subroutine INISYM returns: Found  1 space group operations
 (whereof  1 operations are pure point group operations),
 and found     1 'primitive' translations

 
 
 KPOINTS: Automatic mesh                          

Automatic generation of k-mesh.
Space group operators:
 irot       det(A)        alpha          n_x          n_y          n_z        tau_x        tau_y        tau_z
    1     1.000000     0.000000     1.000000     0.000000     0.000000     0.000000     0.000000     0.000000
 
 Subroutine IBZKPT returns following result:
 ===========================================
 
 Found     26 irreducible k-points:
 
 Following reciprocal coordinates:
            Coordinates               Weight
  0.000000  0.000000  0.000000      1.000000
  0.250000  0.000000  0.000000      2.000000
  0.500000  0.000000  0.000000      1.000000
  0.000000  0.250000  0.000000      2.000000
  0.250000  0.250000  0.000000      2.000000
  0.500000  0.250000  0.000000      2.000000
 -0.250000  0.250000  0.000000      2.000000
  0.000000  0.500000  0.000000      1.000000
  0.250000  0.500000  0.000000      2.000000
  0.500000  0.500000  0.000000      1.000000
  0.000000  0.000000  0.333333      2.000000
  0.250000  0.000000  0.333333      2.000000
  0.500000  0.000000  0.333333      2.000000
 -0.250000 -0.000000  0.333333      2.000000
  0.000000  0.250000  0.333333      2.000000
  0.250000  0.250000  0.333333      2.000000
  0.500000  0.250000  0.333333      2.000000
 -0.250000  0.250000  0.333333      2.000000
  0.000000  0.500000  0.333333      2.000000
  0.250000  0.500000  0.333333      2.000000
  0.500000  0.500000  0.333333      2.000000
 -0.250000  0.500000  0.333333      2.000000
  0.000000 -0.250000  0.333333      2.000000
  0.250000 -0.250000  0.333333      2.000000
  0.500000 -0.250000  0.333333      2.000000
 -0.250000 -0.250000  0.333333      2.000000
 
 Following cartesian coordinates:
            Coordinates               Weight
  0.000000  0.000000  0.000000      1.000000
  0.028492  0.016450  0.000000      2.000000
  0.056983  0.032899  0.000000      1.000000
  0.000000  0.032899  0.000000      2.000000
  0.028492  0.049349  0.000000      2.000000
  0.056983  0.065799  0.000000      2.000000
 -0.028492  0.016450  0.000000      2.000000
  0.000000  0.065799  0.000000      1.000000
  0.028492  0.082248  0.000000      2.000000
  0.056983  0.098698  0.000000      1.000000
  0.000000  0.000000  0.032279      2.000000
  0.028492  0.016450  0.032279      2.000000
  0.056983  0.032899  0.032279      2.000000
 -0.028492 -0.016450  0.032279      2.000000
  0.000000  0.032899  0.032279      2.000000
  0.028492  0.049349  0.032279      2.000000
  0.056983  0.065799  0.032279      2.000000
 -0.028492  0.016450  0.032279      2.000000
  0.000000  0.065799  0.032279      2.000000
  0.028492  0.082248  0.032279      2.000000
  0.056983  0.098698  0.032279      2.000000
 -0.028492  0.049349  0.032279      2.000000
  0.000000 -0.032899  0.032279      2.000000
  0.028492 -0.016450  0.032279      2.000000
  0.056983  0.000000  0.032279      2.000000
 -0.028492 -0.049349  0.032279      2.000000
 


--------------------------------------------------------------------------------------------------------




 Dimension of arrays:
   k-points           NKPTS =     26   k-points in BZ     NKDIM =     26   number of bands    NBANDS=    304
   number of dos      NEDOS =    301   number of ions     NIONS =     54
   non local maximal  LDIM  =      6   non local SUM 2l+1 LMDIM =     18
   total plane-waves  NPLWV = 327680
   max r-space proj   IRMAX =   6439   max aug-charges    IRDMAX=  15624
   dimension x,y,z NGX =    64 NGY =   64 NGZ =   80
   dimension x,y,z NGXF=   128 NGYF=  128 NGZF=  160
   support grid    NGXF=   128 NGYF=  128 NGZF=  160
   ions per type =              27  27
   NGX,Y,Z   is equivalent  to a cutoff of  12.13, 12.13, 12.88 a.u.
   NGXF,Y,Z  is equivalent  to a cutoff of  24.25, 24.25, 25.76 a.u.

 SYSTEM =  unknown system                          
 POSCAR =  NiO_Cmmm_scale_1_000_disp_0_20_round_2  

 Startparameter for this run:
   NWRITE =      1    write-flag & timer
   PREC   = accura    normal or accurate (medium, high low for compatibility)
   ISTART =      0    job   : 0-new  1-cont  2-samecut
   ICHARG =      2    charge: 1-file 2-atom 10-const
   ISPIN  =      2    spin polarized calculation?
   LNONCOLLINEAR =      F non collinear calculations
   LSORBIT =      F    spin-orbit coupling
   INIWAV =      1    electr: 0-lowe 1-rand  2-diag
   LASPH  =      F    aspherical Exc in radial PAW
   METAGGA=      F    non-selfconsistent MetaGGA calc.

 Electronic Relaxation 1
   ENCUT  =  500.0 eV  36.75 Ry    6.06 a.u.  16.00 16.00 18.83*2*pi/ulx,y,z
   ENINI  =  500.0     initial cutoff
   ENAUG  =  605.4 eV  augmentation charge cutoff
   NELM   =     80;   NELMIN=  2; NELMDL= -5     # of ELM steps 
   EDIFF  = 0.1E-04   stopping-criterion for ELM
   LREAL  =      T    real-space projection
   NLSPLINE    = F    spline interpolate recip. space projectors
   LCOMPAT=      F    compatible to vasp.4.4
   GGA_COMPAT  = T    GGA compatible to vasp.4.4-vasp.4.6
   LMAXPAW     = -100 max onsite density
   LMAXMIX     =    2 max onsite mixed and CHGCAR
   VOSKOWN=      1    Vosko Wilk Nusair interpolation
   ROPT   =   -0.00025  -0.00025
 Ionic relaxation
   EDIFFG = 0.1E-03   stopping-criterion for IOM
   NSW    =      0    number of steps for IOM
   NBLOCK =      1;   KBLOCK =      1    inner block; outer block 
   IBRION =     -1    ionic relax: 0-MD 1-quasi-New 2-CG
   NFREE  =      0    steps in history (QN), initial steepest desc. (CG)
   ISIF   =      2    stress and relaxation
   IWAVPR =     10    prediction:  0-non 1-charg 2-wave 3-comb
   ISYM   =      2    0-nonsym 1-usesym 2-fastsym
   LCORR  =      T    Harris-Foulkes like correction to forces

   POTIM  = 0.5000    time-step for ionic-motion
   TEIN   =    0.0    initial temperature
   TEBEG  =    0.0;   TEEND  =   0.0 temperature during run
   SMASS  =  -3.00    Nose mass-parameter (am)
   estimated Nose-frequenzy (Omega)   =  0.10E-29 period in steps =****** mass=  -0.176E-26a.u.
   SCALEE = 1.0000    scale energy and forces
   NPACO  =    256;   APACO  = 16.0  distance and # of slots for P.C.
   PSTRESS=    0.0 pullay stress

  Mass of Ions in am
   POMASS =  58.69 16.00
  Ionic Valenz
   ZVAL   =  10.00  6.00
  Atomic Wigner-Seitz radii
   RWIGS  =   1.15  0.73
  virtual crystal weights 
   VCA    =   1.00  1.00
   NELECT =     432.0000    total number of electrons
   NUPDOWN=      -1.0000    fix difference up-down

 DOS related values:
   EMIN   =  10.00;   EMAX   =-10.00  energy-range for DOS
   EFERMI =   0.00
   ISMEAR =     0;   SIGMA  =   0.05  broadening in eV -4-tet -1-fermi 0-gaus

 Electronic relaxation 2 (details)
   IALGO  =     38    algorithm
   LDIAG  =      T    sub-space diagonalisation (order eigenvalues)
   LSUBROT=      F    optimize rotation matrix (better conditioning)
   TURBO    =      0    0=normal 1=particle mesh
   IRESTART =      0    0=no restart 2=restart with 2 vectors
   NREBOOT  =      0    no. of reboots
   NMIN     =      0    reboot dimension
   EREF     =   0.00    reference energy to select bands
   IMIX   =      4    mixing-type and parameters
     AMIX     =   0.40;   BMIX     =  1.00
     AMIX_MAG =   1.60;   BMIX_MAG =  1.00
     AMIN     =   0.10
     WC   =   100.;   INIMIX=   1;  MIXPRE=   1;  MAXMIX= -45

 Intra band minimization:
   WEIMIN = 0.0000     energy-eigenvalue tresh-hold
   EBREAK =  0.82E-08  absolut break condition
   DEPER  =   0.30     relativ break condition  

   TIME   =   0.40     timestep for ELM

  volume/ion in A,a.u.               =      12.75        86.05
  Fermi-wavevector in a.u.,A,eV,Ry     =   1.401485  2.648423 26.724029  1.964161
  Thomas-Fermi vector in A             =   2.524342
 
 Write flags
   LWAVE        =      F    write WAVECAR
   LDOWNSAMPLE  =      F    k-point downsampling of WAVECAR
   LCHARG       =      T    write CHGCAR
   LVTOT        =      F    write LOCPOT, total local potential
   LVHAR        =      F    write LOCPOT, Hartree potential only
   LELF         =      F    write electronic localiz. function (ELF)
   LORBIT       =      0    0 simple, 1 ext, 2 COOP (PROOUT), +10 PAW based schemes


 Dipole corrections
   LMONO  =      F    monopole corrections only (constant potential shift)
   LDIPOL =      F    correct potential (dipole corrections)
   IDIPOL =      0    1-x, 2-y, 3-z, 4-all directions 
   EPSILON=  1.0000000 bulk dielectric constant

 Exchange correlation treatment:
   GGA     =    PS    GGA type
   LEXCH   =    14    internal setting for exchange type
   VOSKOWN=      1    Vosko Wilk Nusair interpolation
   LHFCALC =     F    Hartree Fock is set to
   LHFONE  =     F    Hartree Fock one center treatment
   AEXX    =    0.0000 exact exchange contribution

 Linear response parameters
   LEPSILON=     F    determine dielectric tensor
   LRPA    =     F    only Hartree local field effects (RPA)
   LNABLA  =     F    use nabla operator in PAW spheres
   LVEL    =     F    velocity operator in full k-point grid
   LINTERFAST=   F  fast interpolation
   KINTER  =     0    interpolate to denser k-point grid
   CSHIFT  =0.1000    complex shift for real part using Kramers Kronig
   OMEGAMAX=  -1.0    maximum frequency
   DEG_THRESHOLD= 0.2000000E-02 threshold for treating states as degnerate
   RTIME   =   -0.100 relaxation time in fs
  (WPLASMAI=    0.000 imaginary part of plasma frequency in eV, 0.658/RTIME)
   DFIELD  = 0.0000000 0.0000000 0.0000000 field for delta impulse in time
 
 Orbital magnetization related:
   ORBITALMAG=     F  switch on orbital magnetization
   LCHIMAG   =     F  perturbation theory with respect to B field
   DQ        =  0.001000  dq finite difference perturbation B field
   LLRAUG    =     F  two centre corrections for induced B field



--------------------------------------------------------------------------------------------------------


 Static calculation
 charge density and potential will be updated during run
 spin polarized calculation
 Variant of blocked Davidson
 Davidson routine will perform the subspace rotation
 perform sub-space diagonalisation
    after iterative eigenvector-optimisation
 modified Broyden-mixing scheme, WC =      100.0
 initial mixing is a Kerker type mixing with AMIX =  0.4000 and BMIX =      1.0000
 Hartree-type preconditioning will be used
 using additional bands           88
 real space projection scheme for non local part
 use partial core corrections
 calculate Harris-corrections to forces 
   (improved forces if not selfconsistent)
 use gradient corrections 
 use of overlap-Matrix (Vanderbilt PP)
 Gauss-broadening in eV      SIGMA  =   0.05


--------------------------------------------------------------------------------------------------------


  energy-cutoff  :      500.00
  volume of cell :      688.56
      direct lattice vectors                 reciprocal lattice vectors
     8.774520000  0.000000000  0.000000000     0.113966348  0.065798502  0.000000000
    -4.387260000  7.598957230  0.000000000     0.000000000  0.131597003  0.000000000
     0.000000000  0.000000000 10.326790000     0.000000000  0.000000000  0.096835512

  length of vectors
     8.774520000  8.774520003 10.326790000     0.131597003  0.131597003  0.096835512


 
 k-points in units of 2pi/SCALE and weight: Automatic mesh                          
   0.00000000  0.00000000  0.00000000       0.021
   0.02849159  0.01644963  0.00000000       0.042
   0.05698317  0.03289925  0.00000000       0.021
   0.00000000  0.03289925  0.00000000       0.042
   0.02849159  0.04934888  0.00000000       0.042
   0.05698317  0.06579850  0.00000000       0.042
  -0.02849159  0.01644963  0.00000000       0.042
   0.00000000  0.06579850  0.00000000       0.021
   0.02849159  0.08224813  0.00000000       0.042
   0.05698317  0.09869775  0.00000000       0.021
   0.00000000  0.00000000  0.03227850       0.042
   0.02849159  0.01644963  0.03227850       0.042
   0.05698317  0.03289925  0.03227850       0.042
  -0.02849159 -0.01644963  0.03227850       0.042
   0.00000000  0.03289925  0.03227850       0.042
   0.02849159  0.04934888  0.03227850       0.042
   0.05698317  0.06579850  0.03227850       0.042
  -0.02849159  0.01644963  0.03227850       0.042
   0.00000000  0.06579850  0.03227850       0.042
   0.02849159  0.08224813  0.03227850       0.042
   0.05698317  0.09869775  0.03227850       0.042
  -0.02849159  0.04934888  0.03227850       0.042
   0.00000000 -0.03289925  0.03227850       0.042
   0.02849159 -0.01644963  0.03227850       0.042
   0.05698317  0.00000000  0.03227850       0.042
  -0.02849159 -0.04934888  0.03227850       0.042
 
 k-points in reciprocal lattice and weights: Automatic mesh                          
   0.00000000  0.00000000  0.00000000       0.021
   0.25000000  0.00000000  0.00000000       0.042
   0.50000000  0.00000000  0.00000000       0.021
   0.00000000  0.25000000  0.00000000       0.042
   0.25000000  0.25000000  0.00000000       0.042
   0.50000000  0.25000000  0.00000000       0.042
  -0.25000000  0.25000000  0.00000000       0.042
   0.00000000  0.50000000  0.00000000       0.021
   0.25000000  0.50000000  0.00000000       0.042
   0.50000000  0.50000000  0.00000000       0.021
   0.00000000  0.00000000  0.33333333       0.042
   0.25000000  0.00000000  0.33333333       0.042
   0.50000000  0.00000000  0.33333333       0.042
  -0.25000000 -0.00000000  0.33333333       0.042
   0.00000000  0.25000000  0.33333333       0.042
   0.25000000  0.25000000  0.33333333       0.042
   0.50000000  0.25000000  0.33333333       0.042
  -0.25000000  0.25000000  0.33333333       0.042
   0.00000000  0.50000000  0.33333333       0.042
   0.25000000  0.50000000  0.33333333       0.042
   0.50000000  0.50000000  0.33333333       0.042
  -0.25000000  0.50000000  0.33333333       0.042
   0.00000000 -0.25000000  0.33333333       0.042
   0.25000000 -0.25000000  0.33333333       0.042
   0.50000000 -0.25000000  0.33333333       0.042
  -0.25000000 -0.25000000  0.33333333       0.042
 
 position of ions in fractional coordinates (direct lattice) 
   0.01554253  0.00067938  0.98493977
   0.97665375  0.97006274  0.30772383
   0.00813972  0.00158819  0.64646140
   0.94575051  0.30862217  0.99609093
   0.99296086  0.30826052  0.33069091
   0.03828311  0.34537668  0.68078621
   0.94480877  0.67053791  0.01174025
   0.01500416  0.67750358  0.33194866
   0.98314359  0.65214199  0.66432469
   0.30428965  0.95703657  0.01199045
   0.32833816  0.97858611  0.34695715
   0.39070444  0.08389316  0.64574259
   0.34857044  0.37525972  0.00330824
   0.32360317  0.31848482  0.32986260
   0.30188957  0.30670700  0.70832438
   0.34462333  0.66929466  0.00126673
   0.30012146  0.67881007  0.31230959
   0.29354190  0.62460873  0.67105688
   0.60781136  0.99122843  0.00665292
   0.63391055  0.01491004  0.34395843
   0.69822574  0.04257037  0.66003938
   0.70276730  0.32013198  0.00174486
   0.65240065  0.27395642  0.34598865
   0.64301978  0.31393676  0.64351935
   0.64280191  0.67972594  0.00025553
   0.67426607  0.68307276  0.33325754
   0.66621763  0.65865317  0.67034695
   0.03085626  0.01846758  0.14631360
   0.03582310  0.99085509  0.51297867
   0.98279324  0.01162624  0.85519307
   0.03090948  0.34749410  0.18239839
   0.03116970  0.33789993  0.47630910
   0.03765834  0.31891255  0.82017164
   0.99966290  0.66702327  0.18479654
   0.01266208  0.69406549  0.49817882
   0.01107352  0.68014915  0.83587752
   0.30858273  0.99575346  0.18976342
   0.32086783  0.98729932  0.52410450
   0.33932487  0.01152341  0.85904540
   0.31541322  0.32982887  0.16633385
   0.36849537  0.35757006  0.53743835
   0.34882575  0.34494084  0.81749857
   0.35111109  0.64641461  0.17039080
   0.35735067  0.63158983  0.53171152
   0.32619614  0.64173967  0.80889692
   0.62217782  0.00345880  0.19772000
   0.65690683  0.00851553  0.47863434
   0.62594444  0.94697146  0.86956380
   0.68243227  0.36913715  0.13626670
   0.66686736  0.36772375  0.51063854
   0.71902996  0.36137129  0.82160199
   0.65713478  0.66971860  0.17955097
   0.66574126  0.65241439  0.51537349
   0.65887541  0.66165989  0.84350517
 
 position of ions in cartesian coordinates  (Angst):
   0.13339762  0.00516258 10.17126617
   4.31375041  7.37146527  3.17779937
   0.06445433  0.01206859  6.67587112
   6.94450106  2.34520667 10.28642186
   7.36033588  2.34245851  3.41497558
  -1.17934138  2.62450262  7.03033623
   5.34841930  5.09538890  0.12123910
  -2.84073005  5.14832073  3.42796410
   5.76549663  4.95559909  6.86034157
  -1.52877264  7.27247996  0.12382286
  -1.41230195  7.43623400  3.58295363
   3.06018282  0.63750053  6.66844812
   1.41217634  2.85158256  0.03416350
   1.44218678  2.42015253  3.40642180
   1.30333272  2.33065338  7.31471712
   0.08753461  5.08594150  0.01308125
  -0.34469451  5.15824869  3.22515555
  -0.16463162  4.74637502  6.92986348
   0.98447609  7.53230244  0.06870331
   5.49684658  0.11330076  3.55198648
   5.93982844  0.32349042  6.81608807
   4.76194350  2.43266922  0.01801880
   4.52258451  2.08178312  3.57295213
   4.26486773  2.38559201  6.64548919
   2.65814379  5.16520835  0.00263880
   2.91954332  5.19064069  3.44148063
   2.95605721  5.00507727  6.92253218
   0.18972680  0.14033435  1.51094982
  -4.03280839  7.52946545  5.29742300
   8.57253160  0.08834730  8.83139924
  -1.25333111  2.64059280  1.88358987
  -1.20895569  2.56768712  4.91874405
  -1.06871842  2.42340283  8.46974029
   5.84515760  5.06868130  1.90835506
  -2.93394209  5.27417397  5.14458806
  -2.88682634  5.16842430  8.63193161
  -1.66096399  7.56668795  1.95964699
  -1.51607762  7.50244531  5.41231711
   2.92685666  0.08756590  8.87118145
   1.32055460  2.50635548  1.71769474
   1.66461717  2.71715959  5.55001298
   1.54743337  2.62119069  8.44213606
   0.24484232  4.91207697  1.75959001
   0.36463180  4.79942411  5.49087321
   0.04673577  4.87655231  8.35330862
   5.44413707  0.02628327  2.04181292
   5.72668227  0.06470915  4.94275632
   1.33775200  7.19599562  8.97980275
   4.36851495  2.80505741  1.40719759
   4.23814129  2.79431705  5.27325697
   4.72371296  2.74604498  8.48451121
   2.82781264  5.08916300  1.85418516
   2.97924844  4.95766905  5.32215380
   2.87844149  5.02792520  8.71070075
 


--------------------------------------------------------------------------------------------------------


 k-point  1 :   0.0000 0.0000 0.0000  plane waves:   17509
 k-point  2 :   0.2500 0.0000 0.0000  plane waves:   17462
 k-point  3 :   0.5000 0.0000 0.0000  plane waves:   17476
 k-point  4 :   0.0000 0.2500 0.0000  plane waves:   17462
 k-point  5 :   0.2500 0.2500 0.0000  plane waves:   17508
 k-point  6 :   0.5000 0.2500 0.0000  plane waves:   17508
 k-point  7 :  -0.2500 0.2500 0.0000  plane waves:   17462
 k-point  8 :   0.0000 0.5000 0.0000  plane waves:   17476
 k-point  9 :   0.2500 0.5000 0.0000  plane waves:   17508
 k-point 10 :   0.5000 0.5000 0.0000  plane waves:   17476
 k-point 11 :   0.0000 0.0000 0.3333  plane waves:   17420
 k-point 12 :   0.2500 0.0000 0.3333  plane waves:   17479
 k-point 13 :   0.5000 0.0000 0.3333  plane waves:   17492
 k-point 14 :  -0.2500-0.0000 0.3333  plane waves:   17479
 k-point 15 :   0.0000 0.2500 0.3333  plane waves:   17479
 k-point 16 :   0.2500 0.2500 0.3333  plane waves:   17494
 k-point 17 :   0.5000 0.2500 0.3333  plane waves:   17494
 k-point 18 :  -0.2500 0.2500 0.3333  plane waves:   17479
 k-point 19 :   0.0000 0.5000 0.3333  plane waves:   17492
 k-point 20 :   0.2500 0.5000 0.3333  plane waves:   17494
 k-point 21 :   0.5000 0.5000 0.3333  plane waves:   17492
 k-point 22 :  -0.2500 0.5000 0.3333  plane waves:   17494
 k-point 23 :   0.0000-0.2500 0.3333  plane waves:   17479
 k-point 24 :   0.2500-0.2500 0.3333  plane waves:   17479
 k-point 25 :   0.5000-0.2500 0.3333  plane waves:   17494
 k-point 26 :  -0.2500-0.2500 0.3333  plane waves:   17494

 maximum and minimum number of plane-waves per node :     17509    17420

 maximum number of plane-waves:     17509
 maximum index in each direction: 
   IXMAX=   16   IYMAX=   16   IZMAX=   18
   IXMIN=  -16   IYMIN=  -16   IZMIN=  -19

 The following grids will avoid any aliasing or wrap around errors in the Hartre
 e energy
  - symmetry arguments have not been applied
  - exchange correlation energies might require even more grid points
  - we recommend to set PREC=Normal or Accurate and rely on VASP defaults
 WARNING: aliasing errors must be expected set NGX to    70 to avoid them
 WARNING: aliasing errors must be expected set NGY to    70 to avoid them
 NGZ is ok and might be reduce to    80

 serial   3D FFT for wavefunctions
 parallel 3D FFT for charge:
    minimum data exchange during FFTs selected (reduces bandwidth)


 total amount of memory used by VASP MPI-rank0   403534. kBytes
=======================================================================

   base      :      30000. kBytes
   nonlr-proj:      37289. kBytes
   fftplans  :       6899. kBytes
   grid      :      39583. kBytes
   one-center:       1679. kBytes
   wavefun   :     288084. kBytes
 
     INWAV:  cpu time    0.0000: real time    0.0000
 Broyden mixing: mesh for mixing (old mesh)
   NGX = 31   NGY = 31   NGZ = 37
  (NGX  =128   NGY  =128   NGZ  =160)
  gives a total of  35557 points

 initial charge density was supplied:
 charge density of overlapping atoms calculated
 number of electron     432.0000000 magnetization      67.5000000
 keeping initial charge density in first step


--------------------------------------------------------------------------------------------------------


 Maximum index for non-local projection operator         6223
 Maximum index for augmentation-charges         1037 (set IRDMAX)


--------------------------------------------------------------------------------------------------------


 First call to EWALD:  gamma=   0.201
 Maximum number of real-space cells 3x 3x 2
 Maximum number of reciprocal cells 3x 3x 3

    FEWALD:  cpu time    0.0024: real time    0.0024


--------------------------------------- Iteration      1(   1)  ---------------------------------------


    POTLOK:  cpu time    0.2071: real time    0.2101
    SETDIJ:  cpu time    0.0229: real time    0.0230
     EDDAV:  cpu time  106.4615: real time  106.7138
    --------------------------------------------
      LOOP:  cpu time  106.6944: real time  106.9498

 eigenvalue-minimisations  : 31616
 total energy-change (2. order) : 0.4964377E+04  (-0.1804752E+05)
 number of electron     432.0000000 magnetization      67.5000000
 augmentation part      432.0000000 magnetization      67.5000000

 Free energy of the ion-electron system (eV)
  ---------------------------------------------------
  alpha Z        PSCENC =      1256.21969845
  Ewald energy   TEWEN  =    -28560.31380985
  -Hartree energ DENC   =    -13096.98305560
  -exchange      EXHF   =         0.00000000
  -V(xc)+E(xc)   XCENC  =      1630.79663063
  PAW double counting   =     35307.98069315   -37155.18892105
  entropy T*S    EENTRO =        -0.01605749
  eigenvalues    EBANDS =      4873.40663190
  atomic energy  EATOM  =     40708.47505058
  Solvation  Ediel_sol  =         0.00000000
  ---------------------------------------------------
  free energy    TOTEN  =      4964.37686073 eV

  energy without entropy =     4964.39291821  energy(sigma->0) =     4964.38488947


--------------------------------------------------------------------------------------------------------




--------------------------------------- Iteration      1(   2)  ---------------------------------------


     EDDAV:  cpu time  106.7443: real time  106.9977
    --------------------------------------------
      LOOP:  cpu time  106.7443: real time  106.9977

 eigenvalue-minimisations  : 31616
 total energy-change (2. order) :-0.4204005E+04  (-0.3802539E+04)
 number of electron     432.0000000 magnetization      67.5000000
 augmentation part      432.0000000 magnetization      67.5000000

 Free energy of the ion-electron system (eV)
  ---------------------------------------------------
  alpha Z        PSCENC =      1256.21969845
  Ewald energy   TEWEN  =    -28560.31380985
  -Hartree energ DENC   =    -13096.98305560
  -exchange      EXHF   =         0.00000000
  -V(xc)+E(xc)   XCENC  =      1630.79663063
  PAW double counting   =     35307.98069315   -37155.18892105
  entropy T*S    EENTRO =        -0.03505367
  eigenvalues    EBANDS =       669.42028938
  atomic energy  EATOM  =     40708.47505058
  Solvation  Ediel_sol  =         0.00000000
  ---------------------------------------------------
  free energy    TOTEN  =       760.37152201 eV

  energy without entropy =      760.40657568  energy(sigma->0) =      760.38904885


--------------------------------------------------------------------------------------------------------




--------------------------------------- Iteration      1(   3)  ---------------------------------------


     EDDAV:  cpu time  109.1343: real time  109.3930
    --------------------------------------------
      LOOP:  cpu time  109.1344: real time  109.3931

 eigenvalue-minimisations  : 32576
 total energy-change (2. order) :-0.1029570E+04  (-0.9062895E+03)
 number of electron     432.0000000 magnetization      67.5000000
 augmentation part      432.0000000 magnetization      67.5000000

 Free energy of the ion-electron system (eV)
  ---------------------------------------------------
  alpha Z        PSCENC =      1256.21969845
  Ewald energy   TEWEN  =    -28560.31380985
  -Hartree energ DENC   =    -13096.98305560
  -exchange      EXHF   =         0.00000000
  -V(xc)+E(xc)   XCENC  =      1630.79663063
  PAW double counting   =     35307.98069315   -37155.18892105
  entropy T*S    EENTRO =        -0.05877357
  eigenvalues    EBANDS =      -360.12573653
  atomic energy  EATOM  =     40708.47505058
  Solvation  Ediel_sol  =         0.00000000
  ---------------------------------------------------
  free energy    TOTEN  =      -269.19822380 eV

  energy without entropy =     -269.13945023  energy(sigma->0) =     -269.16883701


--------------------------------------------------------------------------------------------------------




--------------------------------------- Iteration      1(   4)  ---------------------------------------


     EDDAV:  cpu time  115.1527: real time  115.4256
    --------------------------------------------
      LOOP:  cpu time  115.1525: real time  115.4254

 eigenvalue-minimisations  : 34880
 total energy-change (2. order) :-0.1236388E+03  (-0.1193599E+03)
 number of electron     432.0000000 magnetization      67.5000000
 augmentation part      432.0000000 magnetization      67.5000000

 Free energy of the ion-electron system (eV)
  ---------------------------------------------------
  alpha Z        PSCENC =      1256.21969845
  Ewald energy   TEWEN  =    -28560.31380985
  -Hartree energ DENC   =    -13096.98305560
  -exchange      EXHF   =         0.00000000
  -V(xc)+E(xc)   XCENC  =      1630.79663063
  PAW double counting   =     35307.98069315   -37155.18892105
  entropy T*S    EENTRO =        -0.06195874
  eigenvalues    EBANDS =      -483.76138681
  atomic energy  EATOM  =     40708.47505058
  Solvation  Ediel_sol  =         0.00000000
  ---------------------------------------------------
  free energy    TOTEN  =      -392.83705925 eV

  energy without entropy =     -392.77510050  energy(sigma->0) =     -392.80607988


--------------------------------------------------------------------------------------------------------




--------------------------------------- Iteration      1(   5)  ---------------------------------------


     EDDAV:  cpu time  113.8943: real time  114.1642
    CHARGE:  cpu time    4.6947: real time    4.7058
    MIXING:  cpu time    0.0043: real time    0.0043
    --------------------------------------------
      LOOP:  cpu time  118.5905: real time  118.8715

 eigenvalue-minimisations  : 34304
 total energy-change (2. order) :-0.3085447E+01  (-0.3073983E+01)
 number of electron     432.0000004 magnetization      61.6641946
 augmentation part      159.5458543 magnetization      49.9103148

 Broyden mixing:
  rms(total) = 0.14358E+02    rms(broyden)= 0.14357E+02
  rms(prec ) = 0.16145E+02
  weight for this iteration     100.00

 Free energy of the ion-electron system (eV)
  ---------------------------------------------------
  alpha Z        PSCENC =      1256.21969845
  Ewald energy   TEWEN  =    -28560.31380985
  -Hartree energ DENC   =    -13096.98305560
  -exchange      EXHF   =         0.00000000
  -V(xc)+E(xc)   XCENC  =      1630.79663063
  PAW double counting   =     35307.98069315   -37155.18892105
  entropy T*S    EENTRO =        -0.06218510
  eigenvalues    EBANDS =      -486.84660774
  atomic energy  EATOM  =     40708.47505058
  Solvation  Ediel_sol  =         0.00000000
  ---------------------------------------------------
  free energy    TOTEN  =      -395.92250654 eV

  energy without entropy =     -395.86032143  energy(sigma->0) =     -395.89141399


--------------------------------------------------------------------------------------------------------




--------------------------------------- Iteration      1(   6)  ---------------------------------------


    POTLOK:  cpu time    0.1847: real time    0.1852
    SETDIJ:  cpu time    0.0231: real time    0.0232
     EDDAV:  cpu time  138.7627: real time  139.0915
    CHARGE:  cpu time    4.6281: real time    4.6390
    MIXING:  cpu time    0.0048: real time    0.0048
    --------------------------------------------
      LOOP:  cpu time  143.6034: real time  143.9437

 eigenvalue-minimisations  : 43408
 total energy-change (2. order) :-0.8667340E+02  (-0.8039894E+02)
 number of electron     432.0000015 magnetization      52.7276862
 augmentation part      209.2373384 magnetization      48.6623318

 Broyden mixing:
  rms(total) = 0.18482E+02    rms(broyden)= 0.18480E+02
  rms(prec ) = 0.20924E+02
  weight for this iteration     100.00

 eigenvalues of (default mixing * dielectric matrix)
  average eigenvalue GAMMA=   0.3050
  0.3050

 Free energy of the ion-electron system (eV)
  ---------------------------------------------------
  alpha Z        PSCENC =      1256.21969845
  Ewald energy   TEWEN  =    -28560.31380985
  -Hartree energ DENC   =    -12316.88868260
  -exchange      EXHF   =         0.00000000
  -V(xc)+E(xc)   XCENC  =      1608.46677165
  PAW double counting   =     39052.60305465   -40675.28499606
  entropy T*S    EENTRO =        -0.03644325
  eigenvalues    EBANDS =     -1555.83655354
  atomic energy  EATOM  =     40708.47505058
  Solvation  Ediel_sol  =         0.00000000
  ---------------------------------------------------
  free energy    TOTEN  =      -482.59590996 eV

  energy without entropy =     -482.55946672  energy(sigma->0) =     -482.57768834


--------------------------------------------------------------------------------------------------------




--------------------------------------- Iteration      1(   7)  ---------------------------------------


    POTLOK:  cpu time    0.1849: real time    0.1853
    SETDIJ:  cpu time    0.0252: real time    0.0252
     EDDAV:  cpu time  124.1527: real time  124.4466
    CHARGE:  cpu time    4.7217: real time    4.7995
    MIXING:  cpu time    0.0050: real time    0.0086
    --------------------------------------------
      LOOP:  cpu time  129.0894: real time  129.4653

 eigenvalue-minimisations  : 38704
 total energy-change (2. order) : 0.1975888E+03  (-0.3295332E+02)
 number of electron     432.0000007 magnetization      44.4293948
 augmentation part      185.1224688 magnetization      34.4951759

 Broyden mixing:
  rms(total) = 0.75049E+01    rms(broyden)= 0.75026E+01
  rms(prec ) = 0.87802E+01
  weight for this iteration     100.00

 eigenvalues of (default mixing * dielectric matrix)
  average eigenvalue GAMMA=   0.6044
  0.7532  0.4555

 Free energy of the ion-electron system (eV)
  ---------------------------------------------------
  alpha Z        PSCENC =      1256.21969845
  Ewald energy   TEWEN  =    -28560.31380985
  -Hartree energ DENC   =    -12649.22898471
  -exchange      EXHF   =         0.00000000
  -V(xc)+E(xc)   XCENC  =      1606.22116038
  PAW double counting   =     41089.19674768   -42923.12494043
  entropy T*S    EENTRO =        -0.06544350
  eigenvalues    EBANDS =      -812.38657361
  atomic energy  EATOM  =     40708.47505058
  Solvation  Ediel_sol  =         0.00000000
  ---------------------------------------------------
  free energy    TOTEN  =      -285.00709502 eV

  energy without entropy =     -284.94165151  energy(sigma->0) =     -284.97437327


--------------------------------------------------------------------------------------------------------




--------------------------------------- Iteration      1(   8)  ---------------------------------------


    POTLOK:  cpu time    0.1841: real time    0.1845
    SETDIJ:  cpu time    0.0241: real time    0.0242
     EDDAV:  cpu time  132.6024: real time  132.9369
    CHARGE:  cpu time    4.8652: real time    4.8792
    MIXING:  cpu time    0.0046: real time    0.0046
    --------------------------------------------
      LOOP:  cpu time  137.6803: real time  138.0294

 eigenvalue-minimisations  : 39456
 total energy-change (2. order) :-0.1205210E+03  (-0.2753959E+02)
 number of electron     432.0000013 magnetization      36.7789174
 augmentation part      175.7047385 magnetization      32.8160185

 Broyden mixing:
  rms(total) = 0.16078E+02    rms(broyden)= 0.16078E+02
  rms(prec ) = 0.22203E+02
  weight for this iteration     100.00

 eigenvalues of (default mixing * dielectric matrix)
  average eigenvalue GAMMA=   0.5837
  1.1688  0.4121  0.1703

 Free energy of the ion-electron system (eV)
  ---------------------------------------------------
  alpha Z        PSCENC =      1256.21969845
  Ewald energy   TEWEN  =    -28560.31380985
  -Hartree energ DENC   =    -12707.61098728
  -exchange      EXHF   =         0.00000000
  -V(xc)+E(xc)   XCENC  =      1605.91203036
  PAW double counting   =     42846.34577115   -44751.56308503
  entropy T*S    EENTRO =        -0.02965173
  eigenvalues    EBANDS =      -802.96314621
  atomic energy  EATOM  =     40708.47505058
  Solvation  Ediel_sol  =         0.00000000
  ---------------------------------------------------
  free energy    TOTEN  =      -405.52812956 eV

  energy without entropy =     -405.49847783  energy(sigma->0) =     -405.51330370


--------------------------------------------------------------------------------------------------------




--------------------------------------- Iteration      1(   9)  ---------------------------------------


    POTLOK:  cpu time    0.1894: real time    0.1898
    SETDIJ:  cpu time    0.0244: real time    0.0245
     EDDAV:  cpu time  132.8580: real time  133.1725
    CHARGE:  cpu time    4.8231: real time    4.8345
    MIXING:  cpu time    0.0045: real time    0.0045
    --------------------------------------------
      LOOP:  cpu time  137.8993: real time  138.2258

 eigenvalue-minimisations  : 40528
 total energy-change (2. order) : 0.3604666E+02  (-0.5102571E+02)
 number of electron     432.0000007 magnetization      31.0996714
 augmentation part      174.2083137 magnetization      24.9932971

 Broyden mixing:
  rms(total) = 0.11852E+02    rms(broyden)= 0.11851E+02
  rms(prec ) = 0.16598E+02
  weight for this iteration     100.00

 eigenvalues of (default mixing * dielectric matrix)
  average eigenvalue GAMMA=   0.5515
  1.4303  0.3957  0.2270  0.1528

 Free energy of the ion-electron system (eV)
  ---------------------------------------------------
  alpha Z        PSCENC =      1256.21969845
  Ewald energy   TEWEN  =    -28560.31380985
  -Hartree energ DENC   =    -12720.85824847
  -exchange      EXHF   =         0.00000000
  -V(xc)+E(xc)   XCENC  =      1605.43184814
  PAW double counting   =     44140.71942349   -46082.80259885
  entropy T*S    EENTRO =        -0.05559396
  eigenvalues    EBANDS =      -716.29723740
  atomic energy  EATOM  =     40708.47505058
  Solvation  Ediel_sol  =         0.00000000
  ---------------------------------------------------
  free energy    TOTEN  =      -369.48146788 eV

  energy without entropy =     -369.42587392  energy(sigma->0) =     -369.45367090


--------------------------------------------------------------------------------------------------------




--------------------------------------- Iteration      1(  10)  ---------------------------------------


    POTLOK:  cpu time    0.1889: real time    0.1893
    SETDIJ:  cpu time    0.0249: real time    0.0249
     EDDAV:  cpu time  125.4120: real time  125.7089
    CHARGE:  cpu time    4.8925: real time    4.9041
    MIXING:  cpu time    0.0051: real time    0.0051
    --------------------------------------------
      LOOP:  cpu time  130.5234: real time  130.8324

 eigenvalue-minimisations  : 37520
 total energy-change (2. order) : 0.2018823E+02  (-0.1402822E+02)
 number of electron     432.0000002 magnetization      26.0203358
 augmentation part      175.9930614 magnetization      19.6339302

 Broyden mixing:
  rms(total) = 0.10254E+02    rms(broyden)= 0.10253E+02
  rms(prec ) = 0.14447E+02
  weight for this iteration     100.00

 eigenvalues of (default mixing * dielectric matrix)
  average eigenvalue GAMMA=   0.5199
  1.6177  0.3715  0.3275  0.1415  0.1415

 Free energy of the ion-electron system (eV)
  ---------------------------------------------------
  alpha Z        PSCENC =      1256.21969845
  Ewald energy   TEWEN  =    -28560.31380985
  -Hartree energ DENC   =    -12692.17475195
  -exchange      EXHF   =         0.00000000
  -V(xc)+E(xc)   XCENC  =      1603.98888216
  PAW double counting   =     45052.70236384   -47009.35598667
  entropy T*S    EENTRO =        -0.06871488
  eigenvalues    EBANDS =      -708.76596752
  atomic energy  EATOM  =     40708.47505058
  Solvation  Ediel_sol  =         0.00000000
  ---------------------------------------------------
  free energy    TOTEN  =      -349.29323584 eV

  energy without entropy =     -349.22452096  energy(sigma->0) =     -349.25887840


--------------------------------------------------------------------------------------------------------




--------------------------------------- Iteration      1(  11)  ---------------------------------------


    POTLOK:  cpu time    0.1813: real time    0.1817
    SETDIJ:  cpu time    0.0239: real time    0.0239
     EDDAV:  cpu time  126.5385: real time  126.8380
    CHARGE:  cpu time    4.6714: real time    4.6825
    MIXING:  cpu time    0.0052: real time    0.0053
    --------------------------------------------
      LOOP:  cpu time  131.4202: real time  131.7313

 eigenvalue-minimisations  : 37680
 total energy-change (2. order) : 0.2756448E+02  (-0.8785491E+01)
 number of electron     432.0000008 magnetization      23.3661535
 augmentation part      180.7137608 magnetization      18.1790120

 Broyden mixing:
  rms(total) = 0.87920E+01    rms(broyden)= 0.87907E+01
  rms(prec ) = 0.12243E+02
  weight for this iteration     100.00

 eigenvalues of (default mixing * dielectric matrix)
  average eigenvalue GAMMA=   0.4781
  1.6961  0.4057  0.2952  0.2174  0.1272  0.1272

 Free energy of the ion-electron system (eV)
  ---------------------------------------------------
  alpha Z        PSCENC =      1256.21969845
  Ewald energy   TEWEN  =    -28560.31380985
  -Hartree energ DENC   =    -12650.48569835
  -exchange      EXHF   =         0.00000000
  -V(xc)+E(xc)   XCENC  =      1602.46679040
  PAW double counting   =     45802.92554881   -47765.68683179
  entropy T*S    EENTRO =        -0.07758718
  eigenvalues    EBANDS =      -715.25191316
  atomic energy  EATOM  =     40708.47505058
  Solvation  Ediel_sol  =         0.00000000
  ---------------------------------------------------
  free energy    TOTEN  =      -321.72875209 eV

  energy without entropy =     -321.65116491  energy(sigma->0) =     -321.68995850


--------------------------------------------------------------------------------------------------------




--------------------------------------- Iteration      1(  12)  ---------------------------------------


    POTLOK:  cpu time    0.1821: real time    0.1826
    SETDIJ:  cpu time    0.0232: real time    0.0233
     EDDAV:  cpu time  129.0949: real time  129.4005
    CHARGE:  cpu time    4.9605: real time    4.9722
    MIXING:  cpu time    0.0056: real time    0.0056
    --------------------------------------------
      LOOP:  cpu time  134.2664: real time  134.5842

 eigenvalue-minimisations  : 38560
 total energy-change (2. order) : 0.2905386E+02  (-0.9475928E+01)
 number of electron     432.0000015 magnetization      22.0081954
 augmentation part      182.8191203 magnetization      16.1430509

 Broyden mixing:
  rms(total) = 0.52854E+01    rms(broyden)= 0.52843E+01
  rms(prec ) = 0.71691E+01
  weight for this iteration     100.00

 eigenvalues of (default mixing * dielectric matrix)
  average eigenvalue GAMMA=   0.4525
  1.6681  0.4931  0.3109  0.3109  0.1384  0.1384  0.1075

 Free energy of the ion-electron system (eV)
  ---------------------------------------------------
  alpha Z        PSCENC =      1256.21969845
  Ewald energy   TEWEN  =    -28560.31380985
  -Hartree energ DENC   =    -12635.53631159
  -exchange      EXHF   =         0.00000000
  -V(xc)+E(xc)   XCENC  =      1601.68783603
  PAW double counting   =     46114.68989459   -48080.05770028
  entropy T*S    EENTRO =        -0.07905512
  eigenvalues    EBANDS =      -697.76049513
  atomic energy  EATOM  =     40708.47505058
  Solvation  Ediel_sol  =         0.00000000
  ---------------------------------------------------
  free energy    TOTEN  =      -292.67489233 eV

  energy without entropy =     -292.59583721  energy(sigma->0) =     -292.63536477


--------------------------------------------------------------------------------------------------------




--------------------------------------- Iteration      1(  13)  ---------------------------------------


    POTLOK:  cpu time    0.1871: real time    0.1875
    SETDIJ:  cpu time    0.0248: real time    0.0249
     EDDAV:  cpu time  120.5617: real time  120.8473
    CHARGE:  cpu time    4.6840: real time    4.6951
    MIXING:  cpu time    0.0052: real time    0.0052
    --------------------------------------------
      LOOP:  cpu time  125.4627: real time  125.7598

 eigenvalue-minimisations  : 36512
 total energy-change (2. order) : 0.7943173E+01  (-0.4401222E+01)
 number of electron     432.0000010 magnetization      20.7983309
 augmentation part      182.2838861 magnetization      15.7518935

 Broyden mixing:
  rms(total) = 0.46083E+01    rms(broyden)= 0.46071E+01
  rms(prec ) = 0.62541E+01
  weight for this iteration     100.00

 eigenvalues of (default mixing * dielectric matrix)
  average eigenvalue GAMMA=   0.4328
  1.6313  0.5716  0.3724  0.3724  0.1444  0.1444  0.1147  0.1115

 Free energy of the ion-electron system (eV)
  ---------------------------------------------------
  alpha Z        PSCENC =      1256.21969845
  Ewald energy   TEWEN  =    -28560.31380985
  -Hartree energ DENC   =    -12632.90588760
  -exchange      EXHF   =         0.00000000
  -V(xc)+E(xc)   XCENC  =      1600.86438063
  PAW double counting   =     46209.38697038   -48173.56605542
  entropy T*S    EENTRO =        -0.08256951
  eigenvalues    EBANDS =      -692.80949701
  atomic energy  EATOM  =     40708.47505058
  Solvation  Ediel_sol  =         0.00000000
  ---------------------------------------------------
  free energy    TOTEN  =      -284.73171935 eV

  energy without entropy =     -284.64914984  energy(sigma->0) =     -284.69043459


--------------------------------------------------------------------------------------------------------




--------------------------------------- Iteration      1(  14)  ---------------------------------------


    POTLOK:  cpu time    0.1801: real time    0.1805
    SETDIJ:  cpu time    0.0235: real time    0.0236
     EDDAV:  cpu time  135.6942: real time  136.0154
    CHARGE:  cpu time    4.7053: real time    4.7165
    MIXING:  cpu time    0.0054: real time    0.0054
    --------------------------------------------
      LOOP:  cpu time  140.6085: real time  140.9414

 eigenvalue-minimisations  : 42640
 total energy-change (2. order) : 0.1902709E+01  (-0.3353883E+01)
 number of electron     432.0000006 magnetization      19.6911199
 augmentation part      181.3164292 magnetization      14.6992194

 Broyden mixing:
  rms(total) = 0.38583E+01    rms(broyden)= 0.38573E+01
  rms(prec ) = 0.53041E+01
  weight for this iteration     100.00

 eigenvalues of (default mixing * dielectric matrix)
  average eigenvalue GAMMA=   0.4084
  1.5786  0.6023  0.4550  0.3627  0.1608  0.1608  0.1281  0.1281  0.0992

 Free energy of the ion-electron system (eV)
  ---------------------------------------------------
  alpha Z        PSCENC =      1256.21969845
  Ewald energy   TEWEN  =    -28560.31380985
  -Hartree energ DENC   =    -12643.09619467
  -exchange      EXHF   =         0.00000000
  -V(xc)+E(xc)   XCENC  =      1600.32104472
  PAW double counting   =     46249.87687569   -48214.67193340
  entropy T*S    EENTRO =        -0.08370742
  eigenvalues    EBANDS =      -679.55603458
  atomic energy  EATOM  =     40708.47505058
  Solvation  Ediel_sol  =         0.00000000
  ---------------------------------------------------
  free energy    TOTEN  =      -282.82901048 eV

  energy without entropy =     -282.74530306  energy(sigma->0) =     -282.78715677


--------------------------------------------------------------------------------------------------------




--------------------------------------- Iteration      1(  15)  ---------------------------------------


    POTLOK:  cpu time    0.1702: real time    0.1706
    SETDIJ:  cpu time    0.0240: real time    0.0241
     EDDAV:  cpu time  129.8454: real time  130.1528
    CHARGE:  cpu time    4.6917: real time    4.7028
    MIXING:  cpu time    0.0056: real time    0.0056
    --------------------------------------------
      LOOP:  cpu time  134.7369: real time  135.0559

 eigenvalue-minimisations  : 40320
 total energy-change (2. order) : 0.4823052E+00  (-0.2903937E+01)
 number of electron     432.0000009 magnetization      18.9231699
 augmentation part      181.0645688 magnetization      14.2263882

 Broyden mixing:
  rms(total) = 0.33221E+01    rms(broyden)= 0.33210E+01
  rms(prec ) = 0.44874E+01
  weight for this iteration     100.00

 eigenvalues of (default mixing * dielectric matrix)
  average eigenvalue GAMMA=   0.3977
  1.5404  0.6041  0.6041  0.2969  0.2969  0.1835  0.1314  0.1314  0.1044  0.0842

 Free energy of the ion-electron system (eV)
  ---------------------------------------------------
  alpha Z        PSCENC =      1256.21969845
  Ewald energy   TEWEN  =    -28560.31380985
  -Hartree energ DENC   =    -12646.83097761
  -exchange      EXHF   =         0.00000000
  -V(xc)+E(xc)   XCENC  =      1599.84443644
  PAW double counting   =     46254.20913715   -48215.71430619
  entropy T*S    EENTRO =        -0.07385025
  eigenvalues    EBANDS =      -678.16208400
  atomic energy  EATOM  =     40708.47505058
  Solvation  Ediel_sol  =         0.00000000
  ---------------------------------------------------
  free energy    TOTEN  =      -282.34670529 eV

  energy without entropy =     -282.27285504  energy(sigma->0) =     -282.30978016


--------------------------------------------------------------------------------------------------------




--------------------------------------- Iteration      1(  16)  ---------------------------------------


    POTLOK:  cpu time    0.1814: real time    0.1818
    SETDIJ:  cpu time    0.0237: real time    0.0238
     EDDAV:  cpu time  129.2732: real time  129.5794
    CHARGE:  cpu time    4.6812: real time    4.6923
    MIXING:  cpu time    0.0081: real time    0.0411
    --------------------------------------------
      LOOP:  cpu time  134.1677: real time  134.5184

 eigenvalue-minimisations  : 40192
 total energy-change (2. order) : 0.9635817E+00  (-0.1205416E+01)
 number of electron     432.0000011 magnetization      17.5897716
 augmentation part      180.6223393 magnetization      12.4418912

 Broyden mixing:
  rms(total) = 0.35012E+01    rms(broyden)= 0.35005E+01
  rms(prec ) = 0.48205E+01
  weight for this iteration     100.00

 eigenvalues of (default mixing * dielectric matrix)
  average eigenvalue GAMMA=   0.4069
  1.6126  0.7156  0.7156  0.3570  0.3570  0.1395  0.1395  0.1421  0.1115  0.0930
  0.0930

 Free energy of the ion-electron system (eV)
  ---------------------------------------------------
  alpha Z        PSCENC =      1256.21969845
  Ewald energy   TEWEN  =    -28560.31380985
  -Hartree energ DENC   =    -12645.78714822
  -exchange      EXHF   =         0.00000000
  -V(xc)+E(xc)   XCENC  =      1599.63722633
  PAW double counting   =     46270.50764480   -48228.38610941
  entropy T*S    EENTRO =        -0.09051179
  eigenvalues    EBANDS =      -681.64516445
  atomic energy  EATOM  =     40708.47505058
  Solvation  Ediel_sol  =         0.00000000
  ---------------------------------------------------
  free energy    TOTEN  =      -281.38312357 eV

  energy without entropy =     -281.29261178  energy(sigma->0) =     -281.33786767


--------------------------------------------------------------------------------------------------------




--------------------------------------- Iteration      1(  17)  ---------------------------------------


    POTLOK:  cpu time    0.1830: real time    0.1835
    SETDIJ:  cpu time    0.0238: real time    0.0239
     EDDAV:  cpu time  128.3376: real time  128.6415
    CHARGE:  cpu time    4.6849: real time    4.6960
    MIXING:  cpu time    0.0064: real time    0.0064
    --------------------------------------------
      LOOP:  cpu time  133.2358: real time  133.5512

 eigenvalue-minimisations  : 39808
 total energy-change (2. order) : 0.8080440E+00  (-0.1731981E+01)
 number of electron     432.0000011 magnetization      15.7643120
 augmentation part      182.0786726 magnetization      11.1163928

 Broyden mixing:
  rms(total) = 0.24008E+01    rms(broyden)= 0.24001E+01
  rms(prec ) = 0.31996E+01
  weight for this iteration     100.00

 eigenvalues of (default mixing * dielectric matrix)
  average eigenvalue GAMMA=   0.4203
  1.6931  0.8419  0.8419  0.3866  0.3866  0.1380  0.1380  0.1751  0.1581  0.1060
  0.0962  0.0826

 Free energy of the ion-electron system (eV)
  ---------------------------------------------------
  alpha Z        PSCENC =      1256.21969845
  Ewald energy   TEWEN  =    -28560.31380985
  -Hartree energ DENC   =    -12638.28870374
  -exchange      EXHF   =         0.00000000
  -V(xc)+E(xc)   XCENC  =      1599.45095562
  PAW double counting   =     46391.31248598   -48344.58293854
  entropy T*S    EENTRO =        -0.08496119
  eigenvalues    EBANDS =      -692.76285685
  atomic energy  EATOM  =     40708.47505058
  Solvation  Ediel_sol  =         0.00000000
  ---------------------------------------------------
  free energy    TOTEN  =      -280.57507954 eV

  energy without entropy =     -280.49011835  energy(sigma->0) =     -280.53259895


--------------------------------------------------------------------------------------------------------




--------------------------------------- Iteration      1(  18)  ---------------------------------------


    POTLOK:  cpu time    0.1804: real time    0.1809
    SETDIJ:  cpu time    0.0232: real time    0.0233
     EDDAV:  cpu time  132.9426: real time  133.2574
    CHARGE:  cpu time    4.6605: real time    4.6716
    MIXING:  cpu time    0.0067: real time    0.0068
    --------------------------------------------
      LOOP:  cpu time  137.8135: real time  138.1399

 eigenvalue-minimisations  : 41600
 total energy-change (2. order) :-0.6365759E+00  (-0.1194572E+01)
 number of electron     432.0000004 magnetization      13.9069358
 augmentation part      182.3036577 magnetization       9.2491483

 Broyden mixing:
  rms(total) = 0.25057E+01    rms(broyden)= 0.25052E+01
  rms(prec ) = 0.35511E+01
  weight for this iteration     100.00

 eigenvalues of (default mixing * dielectric matrix)
  average eigenvalue GAMMA=   0.4326
  1.8352  0.9531  0.9531  0.4026  0.4026  0.2701  0.1367  0.1367  0.1520  0.1013
  0.1013  0.0894  0.0894

 Free energy of the ion-electron system (eV)
  ---------------------------------------------------
  alpha Z        PSCENC =      1256.21969845
  Ewald energy   TEWEN  =    -28560.31380985
  -Hartree energ DENC   =    -12640.15115323
  -exchange      EXHF   =         0.00000000
  -V(xc)+E(xc)   XCENC  =      1599.35826052
  PAW double counting   =     46553.30147506   -48503.67560762
  entropy T*S    EENTRO =        -0.08766766
  eigenvalues    EBANDS =      -694.33790170
  atomic energy  EATOM  =     40708.47505058
  Solvation  Ediel_sol  =         0.00000000
  ---------------------------------------------------
  free energy    TOTEN  =      -281.21165546 eV

  energy without entropy =     -281.12398780  energy(sigma->0) =     -281.16782163


--------------------------------------------------------------------------------------------------------




--------------------------------------- Iteration      1(  19)  ---------------------------------------


    POTLOK:  cpu time    0.1808: real time    0.1812
    SETDIJ:  cpu time    0.0231: real time    0.0232
     EDDAV:  cpu time  130.7537: real time  131.0632
    CHARGE:  cpu time    4.6708: real time    4.6819
    MIXING:  cpu time    0.0070: real time    0.0070
    --------------------------------------------
      LOOP:  cpu time  135.6355: real time  135.9565

 eigenvalue-minimisations  : 40752
 total energy-change (2. order) : 0.6026751E+00  (-0.6362309E+00)
 number of electron     432.0000007 magnetization      12.9877928
 augmentation part      182.2623995 magnetization       8.8162644

 Broyden mixing:
  rms(total) = 0.19424E+01    rms(broyden)= 0.19417E+01
  rms(prec ) = 0.26191E+01
  weight for this iteration     100.00

 eigenvalues of (default mixing * dielectric matrix)
  average eigenvalue GAMMA=   0.4310
  1.7821  1.0682  1.0682  0.4370  0.3596  0.3596  0.1749  0.1382  0.1382  0.1181
  0.1181  0.0937  0.0937  0.0850

 Free energy of the ion-electron system (eV)
  ---------------------------------------------------
  alpha Z        PSCENC =      1256.21969845
  Ewald energy   TEWEN  =    -28560.31380985
  -Hartree energ DENC   =    -12646.82714903
  -exchange      EXHF   =         0.00000000
  -V(xc)+E(xc)   XCENC  =      1599.46089427
  PAW double counting   =     46738.27183617   -48687.57108772
  entropy T*S    EENTRO =        -0.08263400
  eigenvalues    EBANDS =      -688.24177925
  atomic energy  EATOM  =     40708.47505058
  Solvation  Ediel_sol  =         0.00000000
  ---------------------------------------------------
  free energy    TOTEN  =      -280.60898038 eV

  energy without entropy =     -280.52634638  energy(sigma->0) =     -280.56766338


--------------------------------------------------------------------------------------------------------




--------------------------------------- Iteration      1(  20)  ---------------------------------------


    POTLOK:  cpu time    0.1820: real time    0.1824
    SETDIJ:  cpu time    0.0233: real time    0.0233
     EDDAV:  cpu time  129.3035: real time  129.6095
    CHARGE:  cpu time    4.6920: real time    4.7031
    MIXING:  cpu time    0.0060: real time    0.0060
    --------------------------------------------
      LOOP:  cpu time  134.2067: real time  134.5243

 eigenvalue-minimisations  : 40192
 total energy-change (2. order) : 0.6481345E+00  (-0.3020945E+00)
 number of electron     432.0000007 magnetization      11.8101746
 augmentation part      181.8644618 magnetization       7.6329128

 Broyden mixing:
  rms(total) = 0.15989E+01    rms(broyden)= 0.15985E+01
  rms(prec ) = 0.22460E+01
  weight for this iteration     100.00

 eigenvalues of (default mixing * dielectric matrix)
  average eigenvalue GAMMA=   0.4321
  1.7908  1.1377  1.1377  0.4394  0.4394  0.3079  0.3079  0.1397  0.1397  0.1365
  0.1365  0.0992  0.0992  0.0848  0.0848

 Free energy of the ion-electron system (eV)
  ---------------------------------------------------
  alpha Z        PSCENC =      1256.21969845
  Ewald energy   TEWEN  =    -28560.31380985
  -Hartree energ DENC   =    -12652.12843507
  -exchange      EXHF   =         0.00000000
  -V(xc)+E(xc)   XCENC  =      1599.63991905
  PAW double counting   =     46766.80011024   -48713.21008948
  entropy T*S    EENTRO =        -0.08322670
  eigenvalues    EBANDS =      -685.36006310
  atomic energy  EATOM  =     40708.47505058
  Solvation  Ediel_sol  =         0.00000000
  ---------------------------------------------------
  free energy    TOTEN  =      -279.96084588 eV

  energy without entropy =     -279.87761918  energy(sigma->0) =     -279.91923253


--------------------------------------------------------------------------------------------------------




--------------------------------------- Iteration      1(  21)  ---------------------------------------


    POTLOK:  cpu time    0.1755: real time    0.1759
    SETDIJ:  cpu time    0.0233: real time    0.0234
     EDDAV:  cpu time  134.9195: real time  135.2390
    CHARGE:  cpu time    4.6528: real time    4.6639
    MIXING:  cpu time    0.0064: real time    0.0064
    --------------------------------------------
      LOOP:  cpu time  139.7775: real time  140.1085

 eigenvalue-minimisations  : 42512
 total energy-change (2. order) :-0.4086955E+00  (-0.2996892E+00)
 number of electron     432.0000007 magnetization      10.8636576
 augmentation part      181.4835545 magnetization       6.6805384

 Broyden mixing:
  rms(total) = 0.18390E+01    rms(broyden)= 0.18386E+01
  rms(prec ) = 0.25716E+01
  weight for this iteration     100.00

 eigenvalues of (default mixing * dielectric matrix)
  average eigenvalue GAMMA=   0.4446
  1.9688  1.1787  1.1787  0.5233  0.5233  0.3506  0.3506  0.1383  0.1383  0.1410
  0.1410  0.1069  0.1069  0.0995  0.0837  0.0837

 Free energy of the ion-electron system (eV)
  ---------------------------------------------------
  alpha Z        PSCENC =      1256.21969845
  Ewald energy   TEWEN  =    -28560.31380985
  -Hartree energ DENC   =    -12657.04671986
  -exchange      EXHF   =         0.00000000
  -V(xc)+E(xc)   XCENC  =      1599.82970000
  PAW double counting   =     46827.09320875   -48770.64899168
  entropy T*S    EENTRO =        -0.08865947
  eigenvalues    EBANDS =      -683.88901825
  atomic energy  EATOM  =     40708.47505058
  Solvation  Ediel_sol  =         0.00000000
  ---------------------------------------------------
  free energy    TOTEN  =      -280.36954134 eV

  energy without entropy =     -280.28088187  energy(sigma->0) =     -280.32521160


--------------------------------------------------------------------------------------------------------




--------------------------------------- Iteration      1(  22)  ---------------------------------------


    POTLOK:  cpu time    0.1735: real time    0.1739
    SETDIJ:  cpu time    0.0233: real time    0.0234
     EDDAV:  cpu time  137.2576: real time  137.5825
    CHARGE:  cpu time    4.6095: real time    4.6204
    MIXING:  cpu time    0.0072: real time    0.0073
    --------------------------------------------
      LOOP:  cpu time  142.0712: real time  142.4075

 eigenvalue-minimisations  : 43472
 total energy-change (2. order) : 0.2701173E+00  (-0.3092330E+00)
 number of electron     432.0000009 magnetization      10.4083248
 augmentation part      181.9232989 magnetization       6.3849487

 Broyden mixing:
  rms(total) = 0.14176E+01    rms(broyden)= 0.14173E+01
  rms(prec ) = 0.20969E+01
  weight for this iteration     100.00

 eigenvalues of (default mixing * dielectric matrix)
  average eigenvalue GAMMA=   0.4409
  2.0356  1.2334  1.2334  0.5427  0.5427  0.3618  0.3618  0.1863  0.1390  0.1390
  0.1257  0.1257  0.1170  0.0921  0.0921  0.0833  0.0833

 Free energy of the ion-electron system (eV)
  ---------------------------------------------------
  alpha Z        PSCENC =      1256.21969845
  Ewald energy   TEWEN  =    -28560.31380985
  -Hartree energ DENC   =    -12657.83442227
  -exchange      EXHF   =         0.00000000
  -V(xc)+E(xc)   XCENC  =      1599.91403322
  PAW double counting   =     46919.12005682   -48861.50479268
  entropy T*S    EENTRO =        -0.08523003
  eigenvalues    EBANDS =      -684.09000822
  atomic energy  EATOM  =     40708.47505058
  Solvation  Ediel_sol  =         0.00000000
  ---------------------------------------------------
  free energy    TOTEN  =      -280.09942399 eV

  energy without entropy =     -280.01419396  energy(sigma->0) =     -280.05680898


--------------------------------------------------------------------------------------------------------




--------------------------------------- Iteration      1(  23)  ---------------------------------------


    POTLOK:  cpu time    0.1818: real time    0.1822
    SETDIJ:  cpu time    0.0231: real time    0.0231
     EDDAV:  cpu time  129.2842: real time  129.5902
    CHARGE:  cpu time    4.6155: real time    4.6265
    MIXING:  cpu time    0.0072: real time    0.0072
    --------------------------------------------
      LOOP:  cpu time  134.1117: real time  134.4292

 eigenvalue-minimisations  : 40400
 total energy-change (2. order) : 0.3882308E+00  (-0.1789289E+00)
 number of electron     432.0000009 magnetization      10.3275387
 augmentation part      182.0176930 magnetization       6.4542289

 Broyden mixing:
  rms(total) = 0.90815E+00    rms(broyden)= 0.90783E+00
  rms(prec ) = 0.11788E+01
  weight for this iteration     100.00

 eigenvalues of (default mixing * dielectric matrix)
  average eigenvalue GAMMA=   0.4409
  1.9065  1.3535  1.3535  0.6014  0.6014  0.3557  0.3557  0.2903  0.1386  0.1386
  0.1384  0.1384  0.1096  0.1096  0.0961  0.0858  0.0858  0.0764

 Free energy of the ion-electron system (eV)
  ---------------------------------------------------
  alpha Z        PSCENC =      1256.21969845
  Ewald energy   TEWEN  =    -28560.31380985
  -Hartree energ DENC   =    -12659.52205647
  -exchange      EXHF   =         0.00000000
  -V(xc)+E(xc)   XCENC  =      1600.00830795
  PAW double counting   =     46959.03215342   -48900.28621748
  entropy T*S    EENTRO =        -0.08221542
  eigenvalues    EBANDS =      -683.24210432
  atomic energy  EATOM  =     40708.47505058
  Solvation  Ediel_sol  =         0.00000000
  ---------------------------------------------------
  free energy    TOTEN  =      -279.71119314 eV

  energy without entropy =     -279.62897772  energy(sigma->0) =     -279.67008543


--------------------------------------------------------------------------------------------------------




--------------------------------------- Iteration      1(  24)  ---------------------------------------


    POTLOK:  cpu time    0.1788: real time    0.1792
    SETDIJ:  cpu time    0.0234: real time    0.0234
     EDDAV:  cpu time  137.0490: real time  137.3734
    CHARGE:  cpu time    4.6497: real time    4.6608
    MIXING:  cpu time    0.0077: real time    0.0077
    --------------------------------------------
      LOOP:  cpu time  141.9086: real time  142.2445

 eigenvalue-minimisations  : 43456
 total energy-change (2. order) : 0.8318850E-01  (-0.7436769E-01)
 number of electron     432.0000008 magnetization      10.4508646
 augmentation part      181.9195270 magnetization       6.4526485

 Broyden mixing:
  rms(total) = 0.72629E+00    rms(broyden)= 0.72609E+00
  rms(prec ) = 0.95369E+00
  weight for this iteration     100.00

 eigenvalues of (default mixing * dielectric matrix)
  average eigenvalue GAMMA=   0.4329
  1.7853  1.4465  1.4465  0.6205  0.6205  0.3500  0.3500  0.2996  0.1962  0.1395
  0.1395  0.1363  0.1363  0.1087  0.1087  0.0933  0.0845  0.0845  0.0788

 Free energy of the ion-electron system (eV)
  ---------------------------------------------------
  alpha Z        PSCENC =      1256.21969845
  Ewald energy   TEWEN  =    -28560.31380985
  -Hartree energ DENC   =    -12661.85976439
  -exchange      EXHF   =         0.00000000
  -V(xc)+E(xc)   XCENC  =      1600.15612137
  PAW double counting   =     46941.00941249   -48880.08917225
  entropy T*S    EENTRO =        -0.07982869
  eigenvalues    EBANDS =      -683.14571235
  atomic energy  EATOM  =     40708.47505058
  Solvation  Ediel_sol  =         0.00000000
  ---------------------------------------------------
  free energy    TOTEN  =      -279.62800464 eV

  energy without entropy =     -279.54817595  energy(sigma->0) =     -279.58809029


--------------------------------------------------------------------------------------------------------




--------------------------------------- Iteration      1(  25)  ---------------------------------------


    POTLOK:  cpu time    0.1681: real time    0.1685
    SETDIJ:  cpu time    0.0231: real time    0.0231
     EDDAV:  cpu time  141.0402: real time  141.3740
    CHARGE:  cpu time    4.6180: real time    4.6290
    MIXING:  cpu time    0.0079: real time    0.0079
    --------------------------------------------
      LOOP:  cpu time  145.8573: real time  146.2025

 eigenvalue-minimisations  : 45040
 total energy-change (2. order) : 0.6318276E-01  (-0.3701382E-01)
 number of electron     432.0000008 magnetization      10.6249741
 augmentation part      181.8541782 magnetization       6.5201010

 Broyden mixing:
  rms(total) = 0.51923E+00    rms(broyden)= 0.51913E+00
  rms(prec ) = 0.64194E+00
  weight for this iteration     100.00

 eigenvalues of (default mixing * dielectric matrix)
  average eigenvalue GAMMA=   0.4463
  1.8441  1.4954  1.4954  0.7052  0.7052  0.4134  0.4134  0.3135  0.3135  0.1387
  0.1387  0.1437  0.1437  0.1112  0.1112  0.1028  0.0906  0.0849  0.0849  0.0776

 Free energy of the ion-electron system (eV)
  ---------------------------------------------------
  alpha Z        PSCENC =      1256.21969845
  Ewald energy   TEWEN  =    -28560.31380985
  -Hartree energ DENC   =    -12662.21849580
  -exchange      EXHF   =         0.00000000
  -V(xc)+E(xc)   XCENC  =      1600.22708694
  PAW double counting   =     46922.31240609   -48860.48461972
  entropy T*S    EENTRO =        -0.08142667
  eigenvalues    EBANDS =      -683.70071189
  atomic energy  EATOM  =     40708.47505058
  Solvation  Ediel_sol  =         0.00000000
  ---------------------------------------------------
  free energy    TOTEN  =      -279.56482188 eV

  energy without entropy =     -279.48339521  energy(sigma->0) =     -279.52410854


--------------------------------------------------------------------------------------------------------




--------------------------------------- Iteration      1(  26)  ---------------------------------------


    POTLOK:  cpu time    0.1816: real time    0.1820
    SETDIJ:  cpu time    0.0232: real time    0.0232
     EDDAV:  cpu time  131.6003: real time  131.9119
    CHARGE:  cpu time    4.5804: real time    4.5913
    MIXING:  cpu time    0.0081: real time    0.0081
    --------------------------------------------
      LOOP:  cpu time  136.3936: real time  136.7166

 eigenvalue-minimisations  : 41472
 total energy-change (2. order) :-0.8987159E-01  (-0.2712688E-01)
 number of electron     432.0000008 magnetization      10.7833479
 augmentation part      181.8556555 magnetization       6.4856613

 Broyden mixing:
  rms(total) = 0.64367E+00    rms(broyden)= 0.64357E+00
  rms(prec ) = 0.84158E+00
  weight for this iteration     100.00

 eigenvalues of (default mixing * dielectric matrix)
[...]
  in kB       -5.4908687     -4.9740692    350.4051058      6.0263441     55.9903491     37.0217679
  external PRESSURE =     113.3133893 kB  Pullay stress =       0.0000000 kB


 VOLUME and BASIS-vectors are now :
 -----------------------------------------------------------------------------
  energy-cutoff  :      500.00
  volume of cell :      688.56
      direct lattice vectors                 reciprocal lattice vectors
     8.774520000  0.000000000  0.000000000     0.113966348  0.065798502  0.000000000
    -4.387260000  7.598957230  0.000000000     0.000000000  0.131597003  0.000000000
     0.000000000  0.000000000 10.326790000     0.000000000  0.000000000  0.096835512

  length of vectors
     8.774520000  8.774520003 10.326790000     0.131597003  0.131597003  0.096835512


 FORCES acting on ions
    electron-ion (+dipol)            ewald-force                    non-local-force                 convergence-correction
 -----------------------------------------------------------------------------------------------
   -.104E+02 -.763E+01 -.102E+03   0.153E+02 0.530E+01 0.121E+03   -.839E+00 0.121E+01 -.296E+00   -.227E-01 0.646E-01 -.204E-01
   0.103E+03 -.207E+02 -.116E+03   -.102E+03 0.212E+02 0.112E+03   -.189E+00 0.114E+00 0.445E+01   -.131E-01 -.221E-01 0.518E-01
   0.114E+03 0.747E+02 -.223E+03   -.118E+03 -.732E+02 0.236E+03   0.150E+00 -.314E+00 0.315E+01   -.338E-02 0.210E-01 0.465E-02
   -.744E+02 -.115E+00 -.258E+02   0.752E+02 0.629E+00 0.269E+02   0.166E+01 -.125E+00 -.894E+00   -.529E-01 -.223E-01 -.108E+00
   0.505E+02 0.662E+02 -.226E+01   -.519E+02 -.678E+02 0.892E+00   0.109E+01 0.112E+01 -.362E+00   -.194E-01 -.133E+00 -.635E-01
   0.208E+03 0.388E+02 0.244E+03   -.211E+03 -.378E+02 -.257E+03   0.132E+01 0.279E+00 0.346E+00   -.106E+00 -.499E+00 0.167E+00
   -.894E+01 0.335E+02 0.399E+02   0.112E+02 -.326E+02 -.417E+02   -.736E+00 -.455E+00 0.121E+01   -.999E-01 -.135E+00 -.106E+00
   0.633E+02 0.123E+03 -.109E+03   -.627E+02 -.122E+03 0.117E+03   -.288E+00 0.373E-01 -.120E+01   -.266E+00 0.865E-02 -.132E-01
   -.222E+02 0.187E+01 -.376E+02   0.232E+02 -.490E+00 0.390E+02   -.119E+00 -.529E+00 -.304E+00   -.515E+00 -.511E-01 0.795E-01
   0.462E+02 0.825E+01 -.554E+01   -.455E+02 -.772E+01 0.670E+01   -.667E+00 -.186E+00 0.124E+01   0.181E-01 0.987E-01 -.124E+00
   0.593E+02 -.345E+02 -.780E+02   -.588E+02 0.344E+02 0.785E+02   -.633E+00 0.329E+00 0.221E+01   -.155E+00 0.130E+00 0.966E-01
   -.284E+02 0.133E+03 -.271E+03   0.294E+02 -.131E+03 0.278E+03   -.791E+00 0.557E+00 0.290E+01   -.624E-01 0.449E+00 0.130E+00
   -.592E+02 0.870E+02 0.107E+02   0.589E+02 -.864E+02 -.751E+01   0.492E+00 -.625E+00 -.392E+01   0.988E-01 -.103E-02 -.333E+00
   -.440E+02 -.261E+02 -.121E+03   0.444E+02 0.267E+02 0.120E+03   -.142E+00 -.148E+00 0.292E+01   0.754E-01 -.785E-01 0.134E+00
   0.435E+02 0.144E+03 0.260E+03   -.566E+02 -.160E+03 -.328E+03   0.929E+00 0.131E+01 0.406E+01   0.382E+00 -.105E+00 0.137E+00
   0.162E+03 0.251E+02 0.826E+02   -.160E+03 -.252E+02 -.817E+02   -.889E+00 -.180E+00 -.153E+01   0.121E+00 -.750E-01 0.355E-01
   -.312E+02 0.672E+02 -.222E+03   0.309E+02 -.663E+02 0.222E+03   -.375E-01 -.728E+00 0.461E+01   -.522E-01 -.930E-03 -.121E+00
   0.125E+03 -.212E+03 0.102E+03   -.130E+03 0.211E+03 -.110E+03   0.202E+01 -.189E+00 0.180E+01   0.866E-01 -.185E+00 0.345E-01
   -.406E+02 -.928E+02 -.112E+03   0.389E+02 0.953E+02 0.120E+03   0.283E+00 -.805E+00 0.131E+01   0.649E-01 0.102E+00 -.172E+00
   -.147E+03 0.936E+02 0.284E+02   0.145E+03 -.938E+02 -.395E+02   0.788E+00 0.441E-01 0.270E+01   0.168E+00 0.422E-01 0.704E-01
   -.525E+02 0.834E+02 -.109E+03   0.514E+02 -.827E+02 0.106E+03   0.569E+00 -.103E+01 0.235E+01   0.558E-01 0.151E+00 0.117E+00
   0.983E+02 0.596E+02 0.131E+03   -.968E+02 -.616E+02 -.141E+03   -.575E+00 0.975E+00 0.593E+00   0.172E-01 0.326E-01 -.191E+00
   0.445E+02 -.197E+03 0.127E+03   -.456E+02 0.198E+03 -.125E+03   0.246E-01 0.102E+01 -.211E+01   -.320E-01 0.114E+00 0.128E+00
   -.130E+03 -.229E+02 -.222E+03   0.133E+03 0.194E+02 0.240E+03   -.938E+00 0.172E+01 -.274E+01   -.200E+00 0.814E-01 0.187E+00
   -.613E+02 -.407E+02 -.804E+02   0.616E+02 0.397E+02 0.823E+02   0.357E-01 0.683E+00 0.131E+01   0.296E-01 -.137E+00 -.245E+00
   0.227E+02 0.303E+02 -.126E+03   -.217E+02 -.299E+02 0.129E+03   -.613E+00 -.728E+00 0.175E+01   0.178E+00 0.581E-02 0.158E+00
   0.773E+01 -.119E+03 -.639E+02   -.683E+01 0.121E+03 0.663E+02   -.389E+00 -.661E+00 0.135E+01   0.232E+00 -.168E+00 0.620E-01
   0.298E+02 -.550E+02 -.252E+02   -.261E+02 0.611E+02 0.286E+02   -.422E+01 -.685E+01 -.296E+01   -.346E-01 -.935E-03 0.750E-01
   0.616E+01 0.252E+01 0.219E+03   0.510E+01 -.461E+01 -.254E+03   -.925E+01 0.120E+01 0.185E+02   -.382E-01 0.242E-02 0.120E+00
   0.857E+02 0.231E+02 0.235E+03   -.974E+02 -.210E+02 -.273E+03   0.802E+01 -.156E+01 0.185E+02   -.368E-01 0.417E-01 -.183E+00
   -.986E+01 -.287E+02 0.145E+03   0.164E+02 0.359E+02 -.163E+03   -.761E+01 -.751E+01 0.120E+02   -.497E-01 -.560E-01 -.228E+00
   -.345E+01 -.222E+02 -.143E+03   0.761E+01 0.264E+02 0.164E+03   -.411E+01 -.374E+01 -.132E+02   -.288E-01 -.171E+00 0.942E-01
   0.451E+02 0.434E+02 -.209E+03   -.389E+02 -.482E+02 0.238E+03   -.702E+01 0.326E+01 -.164E+02   -.246E-01 -.157E+00 0.115E+00
   -.644E+00 0.613E+02 0.131E+03   0.234E+01 -.633E+02 -.148E+03   -.264E+01 0.140E+01 0.105E+02   -.760E-01 -.309E-01 -.356E-01
   -.761E+01 0.142E+02 -.319E+02   0.714E+01 -.977E+01 0.332E+02   0.951E+00 -.567E+01 -.161E+01   -.228E+00 0.139E-01 0.544E-01
   -.586E+02 -.366E+02 -.160E+02   0.637E+02 0.385E+02 0.194E+02   -.595E+01 -.232E+01 -.316E+01   -.189E+00 -.573E-01 -.644E-02
   0.411E+02 -.824E+02 0.101E+03   -.464E+02 0.869E+02 -.110E+03   0.564E+01 -.510E+01 0.621E+01   -.550E-01 0.372E-01 -.138E+00
   0.210E+02 0.168E+03 0.529E+02   -.278E+02 -.187E+03 -.690E+02   0.646E+01 0.135E+02 0.524E+01   -.882E-01 0.213E+00 0.177E+00
   -.644E+01 -.157E+02 0.160E+03   0.679E+01 0.192E+02 -.176E+03   -.307E+00 -.310E+01 0.145E+02   -.256E-01 0.188E+00 -.317E-01
   -.309E+02 0.330E+02 0.147E+01   0.283E+02 -.362E+02 -.272E+01   0.303E+01 0.322E+01 0.100E+01   0.370E-01 0.415E-02 -.224E+00
   0.840E+01 -.339E+02 0.155E+03   -.370E+01 0.406E+02 -.163E+03   -.596E+01 -.766E+01 0.646E+01   0.210E+00 -.111E+00 0.308E+00
   -.147E+03 -.531E+02 -.355E+03   0.167E+03 0.760E+02 0.440E+03   -.842E+01 -.741E+01 -.203E+02   0.124E+00 -.122E+00 -.232E+00
   -.584E+02 0.549E+02 0.184E+02   0.691E+02 -.612E+02 -.225E+02   -.107E+02 0.657E+01 0.917E+00   0.784E-01 -.528E-01 -.349E+00
   -.659E+02 -.722E+02 0.217E+03   0.784E+02 0.720E+02 -.241E+03   -.124E+02 0.728E+00 0.184E+02   0.374E+00 -.618E-01 -.329E+00
   0.121E+02 -.109E+03 -.174E+03   -.759E+01 0.113E+03 0.201E+03   -.381E+01 -.188E+01 -.141E+02   0.179E+00 -.391E-01 0.662E+00
   -.752E+02 0.306E+01 0.177E+03   0.747E+02 -.549E+01 -.198E+03   0.231E+00 0.214E+01 0.122E+02   0.698E-01 0.495E-01 -.124E+00
   -.106E+03 0.834E+02 -.234E+03   0.113E+03 -.886E+02 0.266E+03   -.365E+01 0.442E+01 -.141E+02   0.885E-01 0.780E-01 0.182E+00
   -.586E+02 0.149E+02 0.254E+03   0.659E+02 -.245E+02 -.282E+03   -.563E+01 0.893E+01 0.190E+02   0.778E-01 0.101E+00 -.942E-02
   0.104E+03 -.619E+02 -.210E+03   -.114E+03 0.722E+02 0.237E+03   0.882E+01 -.947E+01 -.192E+02   -.443E-03 0.438E-01 -.169E+00
   -.294E+02 -.152E+03 0.200E+03   0.263E+02 0.171E+03 -.228E+03   0.373E+01 -.163E+02 0.132E+02   -.119E+00 0.424E-01 0.410E+00
   -.108E+02 -.132E+02 -.141E+01   0.135E+02 0.206E+02 0.222E+00   -.322E+01 -.895E+01 0.121E+01   -.111E+00 -.147E-01 -.106E+00
   -.204E+02 0.251E+02 0.476E+02   0.196E+02 -.282E+02 -.585E+02   0.440E+00 0.351E+01 0.692E+01   0.582E-01 -.179E-01 -.175E+00
   0.105E+02 -.414E+02 0.119E+03   -.108E+02 0.380E+02 -.131E+03   0.731E-02 0.437E+01 0.737E+01   0.127E+00 -.678E-01 0.365E+00
   -.531E+02 -.135E+02 0.695E+02   0.560E+02 0.123E+02 -.767E+02   -.296E+01 0.112E+01 0.422E+01   0.791E-01 -.105E+00 -.135E+00
 -----------------------------------------------------------------------------------------------
   0.587E+02 0.310E+02 -.986E+02   0.277E-12 0.155E-12 0.284E-13   -.590E+02 -.305E+02 0.983E+02   0.323E+00 -.562E+00 0.185E+00
 
 
 POSITION                                       TOTAL-FORCE (eV/Angst)
 -----------------------------------------------------------------------------------
      0.13340      0.00516     10.17127         4.030604     -1.058921     18.537365
      4.31375      7.37147      3.17780         0.743768      0.555064      1.113191
      0.06445      0.01207      6.67587        -3.717827      1.175945     16.617581
      6.94450      2.34521     10.28642         2.417374      0.365990      0.147667
      7.36034      2.34246      3.41498        -0.367631     -0.605814     -1.790749
     -1.17934      2.62450      7.03034        -0.901126      0.820249    -12.756948
      5.34842      5.09539      0.12124         1.448100      0.303605     -0.636198
     -2.84073      5.14832      3.42796         0.007825      1.046196      6.582233
      5.76550      4.95560      6.86034         0.322615      0.804702      1.198458
     -1.52877      7.27248      0.12382        -0.018908      0.437464      2.268876
     -1.41230      7.43623      3.58295        -0.296367      0.436530      2.794003
      3.06018      0.63750      6.66845         0.172295      3.016536     10.803625
      1.41218      2.85158      0.03416         0.299260      0.018506     -1.020867
      1.44219      2.42015      3.40642         0.275909      0.329869      1.811633
      1.30333      2.33065      7.31472       -11.790506    -15.339383    -63.274151
      0.08753      5.08594      0.01308         0.511405     -0.354888     -0.563394
     -0.34469      5.15825      3.22516        -0.401387      0.195591      3.640627
     -0.16463      4.74638      6.92986        -2.589535     -1.019285     -6.956203
      0.98448      7.53230      0.06870        -1.340009      1.755288      8.996972
      5.49685      0.11330      3.55199        -1.513372     -0.078890     -8.306372
      5.93983      0.32349      6.81609        -0.521832     -0.246293     -0.810324
      4.76194      2.43267      0.01802         0.989217     -0.949858     -9.456875
      4.52258      2.08178      3.57295        -1.089807      2.488649      0.002953
      4.26487      2.38559      6.64549         2.266833     -1.643689     14.769702
      2.65814      5.16521      0.00264         0.403195     -0.468522      3.043277
      2.91954      5.19064      3.44148         0.518547     -0.333027      4.679109
      2.95606      5.00508      6.92253         0.742481      0.583994      3.839662
      0.18973      0.14033      1.51095        -0.562727     -0.789987      0.515525
     -4.03281      7.52947      5.29742         1.976440     -0.889724    -16.224614
      8.57253      0.08835      8.83140        -3.673555      0.675415    -19.709518
     -1.25333      2.64059      1.88359        -1.115731     -0.318828     -5.706237
     -1.20896      2.56769      4.91874         0.029234      0.255371      7.363843
     -1.06872      2.42340      8.46974        -0.854541     -1.631700     12.671485
      5.84516      5.06868      1.90836        -1.013733     -0.608333     -7.137368
     -2.93394      5.27417      5.14459         0.257863     -1.246190     -0.293255
     -2.88683      5.16842      8.63193        -1.010779     -0.497527      0.193437
     -1.66096      7.56669      1.95965         0.341220     -0.521917     -2.880574
     -1.51608      7.50245      5.41232        -0.431776     -4.910886    -10.744021
      2.92686      0.08757      8.87118         0.020202      0.542946     -2.042186
      1.32055      2.50636      1.71769         0.403356      0.082844     -0.467422
      1.66462      2.71716      5.55001        -1.060553     -1.109747     -1.036371
      1.54743      2.62119      8.44214        12.358525     15.401458     63.783120
      0.24484      4.91208      1.75959         0.063142      0.174302     -3.605355
      0.36463      4.79942      5.49087         0.442052      0.496257     -5.840091
      0.04674      4.87655      8.35331         0.879158      1.597223     13.690664
      5.44414      0.02628      2.04181        -0.203455     -0.249819     -9.226372
      5.72668      0.06471      4.94276         3.144446     -0.644004     17.864422
      1.33775      7.19600      8.97980         1.825491     -0.564418     -8.412426
      4.36851      2.80506      1.40720        -1.869146      0.870430      8.358365
      4.23814      2.79432      5.27326         0.540163      2.044563    -14.569294
      4.72371      2.74604      8.48451        -0.637654     -1.583584     -0.087267
      2.82781      5.08916      1.85419        -0.329088      0.401163     -4.172776
      2.97925      4.95767      5.32215        -0.156197      0.935056     -4.449471
      2.87844      5.02793      8.71070         0.036524     -0.145975     -3.111098
 -----------------------------------------------------------------------------------
    total drift:                               -0.009992      0.008839     -0.037399


--------------------------------------------------------------------------------------------------------



  FREE ENERGIE OF THE ION-ELECTRON SYSTEM (eV)
  ---------------------------------------------------
  free  energy   TOTEN  =      -279.7868865134 eV

  energy  without entropy=     -279.7184722943  energy(sigma->0) =     -279.75267940
 


--------------------------------------------------------------------------------------------------------


    POTLOK:  cpu time    0.2034: real time    0.2039


--------------------------------------------------------------------------------------------------------


     LOOP+:  cpu time11357.3814: real time11384.6155
    4ORBIT:  cpu time    0.0000: real time    0.0000

volume of typ            1:    25.0 %

volume of typ            2:     6.4 %
 
total charge     
 
# of ion       s       p       d       tot
------------------------------------------
    1        0.428   0.539   7.991   8.959
    2        0.227   0.180   7.967   8.374
    3        0.365   0.356   8.019   8.740
    4        0.213   0.150   7.974   8.337
    5        0.381   0.476   7.930   8.787
    6        0.343   0.354   8.014   8.711
    7        0.221   0.188   7.934   8.343
    8        0.355   0.399   7.929   8.683
    9        0.259   0.242   7.902   8.402
   10        0.293   0.283   7.896   8.473
   11        0.289   0.298   7.945   8.532
   12        0.354   0.355   8.016   8.725
   13        0.241   0.207   7.960   8.408
   14        0.224   0.175   7.966   8.365
   15        0.528   0.697   8.168   9.393
   16        0.241   0.200   7.959   8.400
   17        0.266   0.225   7.994   8.486
   18        0.440   0.580   7.992   9.012
   19        0.343   0.350   7.950   8.643
   20        0.471   0.657   8.015   9.143
   21        0.182   0.119   7.991   8.292
   22        0.375   0.393   7.934   8.702
   23        0.215   0.151   8.009   8.375
   24        0.384   0.425   8.004   8.813
   25        0.286   0.279   7.937   8.502
   26        0.299   0.275   7.933   8.507
   27        0.304   0.298   7.912   8.515
   28        1.276   2.746   0.010   4.033
   29        1.297   2.781   0.020   4.098
   30        1.295   2.818   0.021   4.134
   31        1.282   2.740   0.011   4.033
   32        1.278   2.758   0.011   4.047
   33        1.291   2.777   0.019   4.086
   34        1.278   2.776   0.014   4.068
   35        1.269   2.749   0.008   4.025
   36        1.275   2.693   0.005   3.973
   37        1.272   2.746   0.009   4.027
   38        1.287   2.790   0.019   4.096
   39        1.285   2.694   0.007   3.986
   40        1.275   2.736   0.010   4.021
   41        1.285   2.657   0.004   3.946
   42        1.327   2.933   0.047   4.307
   43        1.282   2.750   0.013   4.045
   44        1.295   2.722   0.012   4.029
   45        1.287   2.802   0.017   4.107
   46        1.278   2.785   0.013   4.075
   47        1.290   2.817   0.021   4.128
   48        1.293   2.735   0.014   4.042
   49        1.293   2.740   0.014   4.048
   50        1.296   2.789   0.022   4.107
   51        1.275   2.686   0.004   3.965
   52        1.271   2.755   0.011   4.037
   53        1.274   2.743   0.010   4.027
   54        1.268   2.756   0.010   4.034
--------------------------------------------------
tot          43.20   83.33  215.62  342.15
 
magnetization (x)
 
# of ion       s       p       d       tot
------------------------------------------
    1        0.010   0.001   0.133   0.144
    2        0.006   0.002   0.221   0.229
    3        0.020   0.019   0.881   0.920
    4       -0.000  -0.000   0.442   0.442
    5        0.016  -0.002   0.692   0.706
    6        0.005   0.004   0.436   0.445
    7        0.005  -0.000   0.501   0.506
    8       -0.008   0.002  -0.539  -0.545
    9        0.018  -0.002   0.853   0.869
   10        0.011  -0.001   1.035   1.045
   11       -0.000   0.001   0.284   0.285
   12        0.001   0.001   0.249   0.252
   13       -0.002  -0.001   0.042   0.038
   14        0.003  -0.000   0.043   0.046
   15        0.001  -0.004  -0.071  -0.074
   16        0.003   0.001   0.460   0.464
   17        0.012   0.012   0.745   0.769
   18        0.010   0.002   0.422   0.434
   19        0.012   0.002   0.862   0.876
   20        0.004  -0.003   0.226   0.227
   21       -0.002  -0.002   0.020   0.016
   22        0.010   0.003   0.781   0.793
   23        0.002   0.004   0.213   0.219
   24       -0.002  -0.001   0.122   0.119
   25       -0.002   0.001  -0.057  -0.058
   26       -0.007  -0.002  -0.665  -0.674
   27        0.016  -0.002   0.692   0.706
   28        0.001   0.069   0.000   0.070
   29        0.010   0.433   0.001   0.444
   30        0.001   0.035   0.000   0.037
   31        0.005   0.205   0.001   0.210
   32        0.006   0.251   0.001   0.258
   33        0.005   0.218   0.000   0.223
   34       -0.004  -0.198  -0.000  -0.202
   35        0.001   0.013   0.000   0.014
   36        0.011   0.431  -0.000   0.442
   37        0.006   0.190   0.000   0.197
   38        0.003   0.113   0.000   0.116
   39        0.011   0.481   0.000   0.493
   40       -0.000   0.005  -0.000   0.005
   41       -0.003  -0.091  -0.000  -0.094
   42       -0.001  -0.018  -0.001  -0.019
   43        0.008   0.338  -0.000   0.346
   44        0.004   0.148   0.000   0.152
   45        0.003   0.123   0.001   0.127
   46        0.003   0.119   0.000   0.123
   47        0.001   0.053   0.000   0.054
   48        0.009   0.407   0.001   0.417
   49        0.007   0.326   0.001   0.333
   50        0.001   0.044   0.000   0.045
   51        0.005   0.176   0.000   0.181
   52       -0.007  -0.263  -0.000  -0.270
   53        0.003   0.116   0.000   0.120
   54        0.003   0.119  -0.000   0.122
--------------------------------------------------
tot           0.24    3.88    9.03   13.14
 

 total amount of memory used by VASP MPI-rank0   403534. kBytes
=======================================================================

   base      :      30000. kBytes
   nonlr-proj:      37289. kBytes
   fftplans  :       6899. kBytes
   grid      :      39583. kBytes
   one-center:       1679. kBytes
   wavefun   :     288084. kBytes
 
  
  
 General timing and accounting informations for this job:
 ========================================================
  
                  Total CPU time used (sec):    11427.807
                            User time (sec):    11416.564
                          System time (sec):       11.242
                         Elapsed time (sec):    11458.793
  
                   Maximum memory used (kb):      486600.
                   Average memory used (kb):           0.
  
                          Minor page faults:        44278
                          Major page faults:           29
                 Voluntary context switches:         1172
