 vasp.5.4.4.18Apr17-6-g9f103f2a35 (build May 12 2020 04:58:55) complex          
  
 MD_VERSION_INFO: Compiled 2020-05-12T11:58:55-UTC in devlin.sd.materialsdesign.
 com:/home/medea2/data/build/wwolf/vasp-gpu5.4.4/13047/x86_64/src/src/build/std 
 from svn 13047
 
 This VASP executable licensed from Materials Design, Inc.
 
 executed on                        Lin64 date 2023.03.24  11:21:09
 running on   16 total cores
 distrk:  each k-point on   16 cores,    1 groups
 distr:  one band on NCORES_PER_BAND=   1 cores,   16 groups


--------------------------------------------------------------------------------------------------------


 INCAR:
 POTCAR:    PAW_PBE Ni 02Aug2007                  
 POTCAR:    PAW_PBE O 08Apr2002                   

 ----------------------------------------------------------------------------- 
|                                                                             |
|           W    W    AA    RRRRR   N    N  II  N    N   GGGG   !!!           |
|           W    W   A  A   R    R  NN   N  II  NN   N  G    G  !!!           |
|           W    W  A    A  R    R  N N  N  II  N N  N  G       !!!           |
|           W WW W  AAAAAA  RRRRR   N  N N  II  N  N N  G  GGG   !            |
|           WW  WW  A    A  R   R   N   NN  II  N   NN  G    G                |
|           W    W  A    A  R    R  N    N  II  N    N   GGGG   !!!           |
|                                                                             |
|      For optimal performance we recommend to set                            |
|        NCORE= 4 - approx SQRT( number of cores)                             |
|      NCORE specifies how many cores store one orbital (NPAR=cpu/NCORE).     |
|      This setting can  greatly improve the performance of VASP for DFT.     |
|      The default,   NCORE=1            might be grossly inefficient         |
|      on modern multi-core architectures or massively parallel machines.     |
|      Do your own testing !!!!                                               |
|      Unfortunately you need to use the default for GW and RPA calculations. |
|      (for HF NCORE is supported but not extensively tested yet)             |
|                                                                             |
 ----------------------------------------------------------------------------- 

 POTCAR:    PAW_PBE Ni 02Aug2007                  
  local pseudopotential read in
  partial core-charges read in
  partial kinetic energy density read in
  atomic valenz-charges read in
  non local Contribution for L=           2  read in
    real space projection operators read in
  non local Contribution for L=           2  read in
    real space projection operators read in
  non local Contribution for L=           0  read in
    real space projection operators read in
  non local Contribution for L=           0  read in
    real space projection operators read in
  non local Contribution for L=           1  read in
    real space projection operators read in
  non local Contribution for L=           1  read in
    real space projection operators read in
    PAW grid and wavefunctions read in
 
   number of l-projection  operators is LMAX  =           6
   number of lm-projection operators is LMMAX =          18
 
 POTCAR:    PAW_PBE O 08Apr2002                   
  local pseudopotential read in
  partial core-charges read in
  partial kinetic energy density read in
  kinetic energy density of atom read in
  atomic valenz-charges read in
  non local Contribution for L=           0  read in
    real space projection operators read in
  non local Contribution for L=           0  read in
    real space projection operators read in
  non local Contribution for L=           1  read in
    real space projection operators read in
  non local Contribution for L=           1  read in
    real space projection operators read in
    PAW grid and wavefunctions read in
 
   number of l-projection  operators is LMAX  =           4
   number of lm-projection operators is LMMAX =           8
 
 Optimization of the real space projectors (new method)

 maximal supplied QI-value         = 16.25
 optimisation between [QCUT,QGAM] = [ 11.38, 22.75] = [ 36.24,144.96] Ry 
 Optimized for a Real-space Cutoff    1.47 Angstroem

   l    n(q)    QCUT    max X(q) W(low)/X(q) W(high)/X(q)  e(spline) 
   2      9    11.376    60.317    0.17E-03    0.16E-04    0.16E-06
   2      9    11.376    55.921    0.17E-03    0.16E-04    0.17E-06
   0     10    11.376    51.690    0.45E-04    0.60E-04    0.21E-06
   0     10    11.376    30.015    0.37E-04    0.55E-04    0.19E-06
   1     10    11.376    18.849    0.83E-04    0.11E-03    0.92E-07
   1     10    11.376    14.624    0.69E-04    0.92E-04    0.82E-07
 Optimization of the real space projectors (new method)

 maximal supplied QI-value         = 24.76
 optimisation between [QCUT,QGAM] = [ 11.39, 22.77] = [ 36.31,145.25] Ry 
 Optimized for a Real-space Cutoff    1.10 Angstroem

   l    n(q)    QCUT    max X(q) W(low)/X(q) W(high)/X(q)  e(spline) 
   0      7    11.387    20.381    0.22E-03    0.48E-03    0.18E-06
   0      7    11.387    15.268    0.22E-03    0.52E-03    0.19E-06
   1      7    11.387     5.964    0.22E-03    0.73E-03    0.24E-06
   1      7    11.387     5.382    0.19E-03    0.60E-03    0.21E-06

 ----------------------------------------------------------------------------- 
|                                                                             |
|  ADVICE TO THIS USER RUNNING 'VASP/VAMP'   (HEAR YOUR MASTER'S VOICE ...):  |
|                                                                             |
|      You enforced a specific xc-type in the INCAR file,                     |
|      a different type was found on the POTCAR file                          |
|          I HOPE YOU KNOW, WHAT YOU ARE  DOING                               |
|                                                                             |
 ----------------------------------------------------------------------------- 

  PAW_PBE Ni 02Aug2007                  :
 energy of atom  1       EATOM=-1077.6739
 kinetic energy error for atom=    0.0030 (will be added to EATOM!!)
  PAW_PBE O 08Apr2002                   :
 energy of atom  2       EATOM= -432.3788
 kinetic energy error for atom=    0.0224 (will be added to EATOM!!)
 
 
 POSCAR: NiO_C2_m_scale_1_025_disp_0_10_round_2  
  positions in direct lattice
  No initial velocities read in
 exchange correlation table for  LEXCH =       14
   RHO(1)=    0.500       N(1)  =     2000
   RHO(2)=  100.500       N(2)  =     4000
 


--------------------------------------------------------------------------------------------------------


 ion  position               nearest neighbor table
   1  1.000  0.009  0.026-  30 1.95  54 2.09  29 2.15  36 2.24  47 2.43   2 2.70   4 2.72  20 2.85
                            13 2.89  26 2.91  10 3.04  19 3.07
   2  0.197  0.118  0.332-  28 1.95  30 1.97  40 2.03  39 2.26  37 2.28  36 2.50   5 2.65   1 2.70
                             3 2.80  13 2.94  14 2.95  12 2.97  20 3.03  11 3.08
   3  0.123  0.228  0.662-  32 1.83  29 1.93  40 1.98  31 2.19  47 2.22  28 2.23   6 2.78  12 2.78
                             5 2.80   2 2.80   4 2.87  13 2.91  15 2.94  21 3.03
   4  0.022  0.323  0.997-  30 1.86  33 2.17  47 2.20  32 2.24  48 2.46  13 2.58   1 2.72   6 2.82
                             3 2.87  20 2.89   7 2.97  16 2.98   5 3.02  19 3.02  21 3.05
   5  0.234  0.430  0.344-  40 1.91  42 1.93  30 2.08  31 2.08  43 2.13  33 2.36  15 2.54   2 2.65
                            14 2.67   3 2.80  13 2.83  17 2.84  16 2.94   4 3.02   6 3.02   8 3.06
   6  0.106  0.530  0.679-  32 1.92  35 2.03  34 2.11  31 2.14  50 2.17  43 2.36   3 2.78  21 2.82
                             4 2.82   9 2.83   7 2.84  18 2.96   5 3.02  15 3.08
   7  0.004  0.645  0.994-  33 1.94  36 1.94  35 1.99  50 2.29  51 2.32  53 2.48   8 2.82   6 2.84
                            23 2.95   4 2.97   9 2.99  22 2.99  16 2.99
   8  0.225  0.766  0.301-  33 1.94  36 1.97  45 2.03  43 2.04  37 2.28  34 2.49  16 2.65   7 2.82
                            17 2.84   9 2.94  10 3.02   5 3.06
   9  0.116  0.851  0.647-  35 1.73  34 1.91  37 2.11  53 2.20  28 2.45  29 2.47  18 2.72   6 2.83
                             8 2.94   7 2.99  10 3.00  24 3.02
  10  0.338  0.011  0.978-  38 1.88  39 1.98  45 2.15  29 2.16  35 2.32  36 2.44  22 2.85  18 2.86
                            19 2.87  11 2.89  12 2.94   9 3.00   8 3.02  13 3.02   1 3.04
  11  0.553  0.141  0.302-  39 1.76  48 1.84  49 2.03  37 2.16  45 2.19  46 2.35  22 2.68  23 2.71
                            14 2.74  20 2.85  10 2.89  19 2.93  12 3.01   2 3.08
  12  0.436  0.232  0.650-  41 1.88  40 1.91  49 1.99  38 2.10  37 2.14  29 2.20  14 2.73  15 2.77
                             3 2.78  24 2.82  10 2.94   2 2.97  11 3.01  22 3.03
  13  0.317  0.337  0.003-  42 2.03  30 2.08  32 2.09  29 2.14  41 2.14  39 2.26   4 2.58  25 2.80
                            16 2.80   5 2.83   1 2.89   3 2.91   2 2.94  22 2.97  10 3.02  14 3.03
  14  0.537  0.438  0.347-  40 1.97  49 2.01  52 2.02  51 2.13  42 2.14  39 2.29  15 2.39   5 2.67
                            12 2.73  11 2.74  24 2.80  17 2.87  26 2.88  23 2.94   2 2.95  25 2.97
  15  0.453  0.548  0.602-  52 1.69  40 1.89  43 2.08  32 2.17  41 2.24  44 2.27  14 2.39   5 2.54
                            24 2.68  27 2.71  12 2.77  17 2.78   3 2.94  18 3.04   6 3.08
  16  0.346  0.663  0.026-  42 1.86  45 2.03  33 2.12  44 2.13  17 2.45  32 2.49   8 2.65  25 2.73
                            13 2.80   5 2.94   4 2.98   7 2.99  19 3.00  18 3.03
  17  0.537  0.757  0.293-  42 1.86  54 1.99  43 2.03  45 2.06  52 2.28  46 2.35  16 2.45  25 2.72
                            15 2.78   8 2.84   5 2.84  26 2.86  14 2.87  19 2.99  20 3.03
  18  0.429  0.870  0.674-  44 1.85  35 2.09  43 2.09  38 2.11  37 2.21  46 2.30   9 2.72  10 2.86
                            19 2.92   6 2.96  16 3.03  15 3.04  27 3.04
  19  0.661  0.014  0.988-  48 2.04  45 2.06  47 2.10  38 2.13  54 2.19  44 2.33  20 2.82  21 2.86
                            10 2.87  18 2.92  11 2.93  22 2.93  17 2.99  16 3.00   4 3.02   1 3.07
  20  0.856  0.111  0.315-  48 1.80  46 1.93  31 2.08  30 2.16  54 2.17  28 2.25  19 2.82  11 2.85
                             1 2.85  23 2.85   4 2.89  21 2.94  17 3.03   2 3.03
  21  0.783  0.226  0.666-  50 1.81  47 1.86  31 2.16  46 2.18  49 2.23  38 2.26   6 2.82  19 2.86
                            20 2.94  23 2.95   3 3.03  24 3.04   4 3.05  22 3.07
  22  0.649  0.335  0.998-  51 1.94  39 2.03  41 2.06  50 2.15  38 2.22  48 2.26  11 2.68  25 2.77
                            10 2.85  19 2.93  23 2.93  13 2.97  24 2.99   7 2.99  12 3.03  14 3.03
  23  0.864  0.435  0.329-  49 2.07  48 2.08  51 2.08  34 2.11  31 2.17  33 2.23  11 2.71  20 2.85
                            22 2.93  26 2.93  14 2.94  21 2.95   7 2.95  24 2.97
  24  0.751  0.548  0.657-  53 1.79  52 1.93  50 2.01  34 2.05  49 2.06  41 2.08  27 2.64  15 2.68
                            14 2.80  12 2.82  26 2.92  25 2.96  23 2.97  22 2.99   9 3.02  21 3.04
  25  0.639  0.640  0.000-  51 2.03  42 2.09  54 2.15  41 2.19  44 2.31  53 2.37  17 2.72  16 2.73
                            22 2.77  13 2.80  26 2.91  24 2.96  14 2.97  27 2.99
  26  0.858  0.760  0.325-  52 2.07  54 2.09  36 2.11  51 2.12  28 2.17  34 2.41  27 2.81  17 2.86
                            14 2.88  25 2.91   1 2.91  24 2.92  23 2.93
  27  0.756  0.847  0.654-  53 1.81  52 1.86  44 2.11  28 2.23  46 2.31  47 2.32  24 2.64  15 2.71
                            26 2.81  25 2.99  18 3.04
  28  0.989  0.998  0.479-   2 1.95  26 2.17   3 2.23  27 2.23  20 2.25   9 2.45
  29  0.205  0.117  0.827-   3 1.93  13 2.14   1 2.15  10 2.16  12 2.20   9 2.47
  30  0.098  0.222  0.168-   4 1.86   1 1.95   2 1.97   5 2.08  13 2.08  20 2.16
  31  0.998  0.328  0.479-   5 2.08  20 2.08   6 2.14  21 2.16  23 2.17   3 2.19
  32  0.235  0.433  0.788-   3 1.83   6 1.92  13 2.09  15 2.17   4 2.24  16 2.49
  33  0.105  0.553  0.162-   7 1.94   8 1.94  16 2.12   4 2.17  23 2.23   5 2.36
  34  0.981  0.635  0.524-   9 1.91  24 2.05   6 2.11  23 2.11  26 2.41   8 2.49
  35  0.190  0.760  0.807-   9 1.73   7 1.99   6 2.03  18 2.09  10 2.32
  36  0.081  0.837  0.164-   7 1.94   8 1.97  26 2.11   1 2.24  10 2.44   2 2.50
  37  0.338  0.003  0.487-   9 2.11  12 2.14  11 2.16  18 2.21   8 2.28   2 2.28
  38  0.528  0.105  0.818-  10 1.88  12 2.10  18 2.11  19 2.13  22 2.22  21 2.26
  39  0.436  0.203  0.157-  11 1.76  10 1.98  22 2.03  13 2.26   2 2.26  14 2.29
  40  0.327  0.325  0.499-  15 1.89   5 1.91  12 1.91  14 1.97   3 1.98   2 2.03
  41  0.528  0.418  0.816-  12 1.88  22 2.06  24 2.08  13 2.14  25 2.19  15 2.24
  42  0.423  0.545  0.172-  16 1.86  17 1.86   5 1.93  13 2.03  25 2.09  14 2.14
  43  0.340  0.675  0.475-  17 2.03   8 2.04  15 2.08  18 2.09   5 2.13   6 2.36
  44  0.527  0.766  0.807-  18 1.85  27 2.11  16 2.13  15 2.27  25 2.31  19 2.33
  45  0.447  0.896  0.155-   8 2.03  16 2.03  17 2.06  19 2.06  10 2.15  11 2.19
  46  0.664  0.002  0.483-  20 1.93  21 2.18  18 2.30  27 2.31  11 2.35  17 2.35
  47  0.869  0.111  0.803-  21 1.86  19 2.10   4 2.20   3 2.22  27 2.32   1 2.43
  48  0.756  0.206  0.180-  20 1.80  11 1.84  19 2.04  23 2.08  22 2.26   4 2.46
  49  0.648  0.330  0.496-  12 1.99  14 2.01  11 2.03  24 2.06  23 2.07  21 2.23
  50  0.849  0.423  0.794-  21 1.81  24 2.01  22 2.15   6 2.17   7 2.29
  51  0.748  0.535  0.160-  22 1.94  25 2.03  23 2.08  26 2.12  14 2.13   7 2.32
  52  0.651  0.652  0.504-  15 1.69  27 1.86  24 1.93  14 2.02  26 2.07  17 2.28
  53  0.861  0.749  0.777-  24 1.79  27 1.81   9 2.20  25 2.37   7 2.48
  54  0.758  0.877  0.154-  17 1.99   1 2.09  26 2.09  25 2.15  20 2.17  19 2.19
 
  LATTYP: Found a hexagonal cell.
 ALAT       =     8.9404805043
 C/A-ratio  =     0.8152863536
  
  Lattice vectors:
  
 A1 = (   8.9404805000,   0.0000000000,   0.0000000000)
 A2 = (  -4.4702402500,   7.7426832400,   0.0000000000)
 A3 = (   0.0000000000,   0.0000000000,   7.2890517500)


Analysis of symmetry for initial positions (statically):
=====================================================================
 Subroutine PRICEL returns:
 Original cell was already a primitive cell.
 

 Routine SETGRP: Setting up the symmetry group for a 
 hexagonal supercell.


 Subroutine GETGRP returns: Found  1 space group operations
 (whereof  1 operations were pure point group operations)
 out of a pool of 24 trial point group operations.


The static configuration has the point symmetry C_1 .


Analysis of symmetry for dynamics (positions and initial velocities):
=====================================================================
 Subroutine PRICEL returns:
 Original cell was already a primitive cell.
 

 Routine SETGRP: Setting up the symmetry group for a 
 hexagonal supercell.


 Subroutine GETGRP returns: Found  1 space group operations
 (whereof  1 operations were pure point group operations)
 out of a pool of 24 trial point group operations.


The dynamic configuration has the point symmetry C_1 .


Analysis of structural, dynamic, and magnetic symmetry:
=====================================================================
 Subroutine PRICEL returns:
 Original cell was already a primitive cell.
 

 Routine SETGRP: Setting up the symmetry group for a 
 hexagonal supercell.


 Subroutine GETGRP returns: Found  1 space group operations
 (whereof  1 operations were pure point group operations)
 out of a pool of 24 trial point group operations.


The magnetic configuration has the point symmetry C_1 .


 Subroutine INISYM returns: Found  1 space group operations
 (whereof  1 operations are pure point group operations),
 and found     1 'primitive' translations

 
 
 KPOINTS: Automatic mesh                          

Automatic generation of k-mesh.
Space group operators:
 irot       det(A)        alpha          n_x          n_y          n_z        tau_x        tau_y        tau_z
    1     1.000000     0.000000     1.000000     0.000000     0.000000     0.000000     0.000000     0.000000
 
 Subroutine IBZKPT returns following result:
 ===========================================
 
 Found     36 irreducible k-points:
 
 Following reciprocal coordinates:
            Coordinates               Weight
  0.000000  0.000000  0.000000      1.000000
  0.250000  0.000000  0.000000      2.000000
  0.500000  0.000000  0.000000      1.000000
  0.000000  0.250000  0.000000      2.000000
  0.250000  0.250000  0.000000      2.000000
  0.500000  0.250000  0.000000      2.000000
 -0.250000  0.250000  0.000000      2.000000
  0.000000  0.500000  0.000000      1.000000
  0.250000  0.500000  0.000000      2.000000
  0.500000  0.500000  0.000000      1.000000
  0.000000  0.000000  0.250000      2.000000
  0.250000  0.000000  0.250000      2.000000
  0.500000  0.000000  0.250000      2.000000
 -0.250000 -0.000000  0.250000      2.000000
  0.000000  0.250000  0.250000      2.000000
  0.250000  0.250000  0.250000      2.000000
  0.500000  0.250000  0.250000      2.000000
 -0.250000  0.250000  0.250000      2.000000
  0.000000  0.500000  0.250000      2.000000
  0.250000  0.500000  0.250000      2.000000
  0.500000  0.500000  0.250000      2.000000
 -0.250000  0.500000  0.250000      2.000000
  0.000000 -0.250000  0.250000      2.000000
  0.250000 -0.250000  0.250000      2.000000
  0.500000 -0.250000  0.250000      2.000000
 -0.250000 -0.250000  0.250000      2.000000
  0.000000  0.000000  0.500000      1.000000
  0.250000  0.000000  0.500000      2.000000
  0.500000  0.000000  0.500000      1.000000
  0.000000  0.250000  0.500000      2.000000
  0.250000  0.250000  0.500000      2.000000
  0.500000  0.250000  0.500000      2.000000
 -0.250000  0.250000  0.500000      2.000000
  0.000000  0.500000  0.500000      1.000000
  0.250000  0.500000  0.500000      2.000000
  0.500000  0.500000  0.500000      1.000000
 
 Following cartesian coordinates:
            Coordinates               Weight
  0.000000  0.000000  0.000000      1.000000
  0.027963  0.016144  0.000000      2.000000
  0.055925  0.032289  0.000000      1.000000
  0.000000  0.032289  0.000000      2.000000
  0.027963  0.048433  0.000000      2.000000
  0.055925  0.064577  0.000000      2.000000
 -0.027963  0.016144  0.000000      2.000000
  0.000000  0.064577  0.000000      1.000000
  0.027963  0.080721  0.000000      2.000000
  0.055925  0.096866  0.000000      1.000000
  0.000000  0.000000  0.034298      2.000000
  0.027963  0.016144  0.034298      2.000000
  0.055925  0.032289  0.034298      2.000000
 -0.027963 -0.016144  0.034298      2.000000
  0.000000  0.032289  0.034298      2.000000
  0.027963  0.048433  0.034298      2.000000
  0.055925  0.064577  0.034298      2.000000
 -0.027963  0.016144  0.034298      2.000000
  0.000000  0.064577  0.034298      2.000000
  0.027963  0.080721  0.034298      2.000000
  0.055925  0.096866  0.034298      2.000000
 -0.027963  0.048433  0.034298      2.000000
  0.000000 -0.032289  0.034298      2.000000
  0.027963 -0.016144  0.034298      2.000000
  0.055925  0.000000  0.034298      2.000000
 -0.027963 -0.048433  0.034298      2.000000
  0.000000  0.000000  0.068596      1.000000
  0.027963  0.016144  0.068596      2.000000
  0.055925  0.032289  0.068596      1.000000
  0.000000  0.032289  0.068596      2.000000
  0.027963  0.048433  0.068596      2.000000
  0.055925  0.064577  0.068596      2.000000
 -0.027963  0.016144  0.068596      2.000000
  0.000000  0.064577  0.068596      1.000000
  0.027963  0.080721  0.068596      2.000000
  0.055925  0.096866  0.068596      1.000000
 


--------------------------------------------------------------------------------------------------------




 Dimension of arrays:
   k-points           NKPTS =     36   k-points in BZ     NKDIM =     36   number of bands    NBANDS=    304
   number of dos      NEDOS =    301   number of ions     NIONS =     54
   non local maximal  LDIM  =      6   non local SUM 2l+1 LMDIM =     18
   total plane-waves  NPLWV = 264600
   max r-space proj   IRMAX =   7090   max aug-charges    IRDMAX=  17196
   dimension x,y,z NGX =    70 NGY =   70 NGZ =   54
   dimension x,y,z NGXF=   140 NGYF=  140 NGZF=  108
   support grid    NGXF=   140 NGYF=  140 NGZF=  108
   ions per type =              27  27
   NGX,Y,Z   is equivalent  to a cutoff of  13.02, 13.02, 12.32 a.u.
   NGXF,Y,Z  is equivalent  to a cutoff of  26.03, 26.03, 24.63 a.u.

 SYSTEM =  unknown system                          
 POSCAR =  NiO_C2_m_scale_1_025_disp_0_10_round_2  

 Startparameter for this run:
   NWRITE =      1    write-flag & timer
   PREC   = accura    normal or accurate (medium, high low for compatibility)
   ISTART =      0    job   : 0-new  1-cont  2-samecut
   ICHARG =      2    charge: 1-file 2-atom 10-const
   ISPIN  =      2    spin polarized calculation?
   LNONCOLLINEAR =      F non collinear calculations
   LSORBIT =      F    spin-orbit coupling
   INIWAV =      1    electr: 0-lowe 1-rand  2-diag
   LASPH  =      F    aspherical Exc in radial PAW
   METAGGA=      F    non-selfconsistent MetaGGA calc.

 Electronic Relaxation 1
   ENCUT  =  500.0 eV  36.75 Ry    6.06 a.u.  16.30 16.30 13.29*2*pi/ulx,y,z
   ENINI  =  500.0     initial cutoff
   ENAUG  =  605.4 eV  augmentation charge cutoff
   NELM   =     80;   NELMIN=  2; NELMDL= -5     # of ELM steps 
   EDIFF  = 0.1E-04   stopping-criterion for ELM
   LREAL  =      T    real-space projection
   NLSPLINE    = F    spline interpolate recip. space projectors
   LCOMPAT=      F    compatible to vasp.4.4
   GGA_COMPAT  = T    GGA compatible to vasp.4.4-vasp.4.6
   LMAXPAW     = -100 max onsite density
   LMAXMIX     =    2 max onsite mixed and CHGCAR
   VOSKOWN=      1    Vosko Wilk Nusair interpolation
   ROPT   =   -0.00025  -0.00025
 Ionic relaxation
   EDIFFG = 0.1E-03   stopping-criterion for IOM
   NSW    =      0    number of steps for IOM
   NBLOCK =      1;   KBLOCK =      1    inner block; outer block 
   IBRION =     -1    ionic relax: 0-MD 1-quasi-New 2-CG
   NFREE  =      0    steps in history (QN), initial steepest desc. (CG)
   ISIF   =      2    stress and relaxation
   IWAVPR =     10    prediction:  0-non 1-charg 2-wave 3-comb
   ISYM   =      2    0-nonsym 1-usesym 2-fastsym
   LCORR  =      T    Harris-Foulkes like correction to forces

   POTIM  = 0.5000    time-step for ionic-motion
   TEIN   =    0.0    initial temperature
   TEBEG  =    0.0;   TEEND  =   0.0 temperature during run
   SMASS  =  -3.00    Nose mass-parameter (am)
   estimated Nose-frequenzy (Omega)   =  0.10E-29 period in steps =****** mass=  -0.183E-26a.u.
   SCALEE = 1.0000    scale energy and forces
   NPACO  =    256;   APACO  = 16.0  distance and # of slots for P.C.
   PSTRESS=    0.0 pullay stress

  Mass of Ions in am
   POMASS =  58.69 16.00
  Ionic Valenz
   ZVAL   =  10.00  6.00
  Atomic Wigner-Seitz radii
   RWIGS  =   1.15  0.73
  virtual crystal weights 
   VCA    =   1.00  1.00
   NELECT =     432.0000    total number of electrons
   NUPDOWN=      -1.0000    fix difference up-down

 DOS related values:
   EMIN   =  10.00;   EMAX   =-10.00  energy-range for DOS
   EFERMI =   0.00
   ISMEAR =     0;   SIGMA  =   0.05  broadening in eV -4-tet -1-fermi 0-gaus

 Electronic relaxation 2 (details)
   IALGO  =     38    algorithm
   LDIAG  =      T    sub-space diagonalisation (order eigenvalues)
   LSUBROT=      F    optimize rotation matrix (better conditioning)
   TURBO    =      0    0=normal 1=particle mesh
   IRESTART =      0    0=no restart 2=restart with 2 vectors
   NREBOOT  =      0    no. of reboots
   NMIN     =      0    reboot dimension
   EREF     =   0.00    reference energy to select bands
   IMIX   =      4    mixing-type and parameters
     AMIX     =   0.40;   BMIX     =  1.00
     AMIX_MAG =   1.60;   BMIX_MAG =  1.00
     AMIN     =   0.10
     WC   =   100.;   INIMIX=   1;  MIXPRE=   1;  MAXMIX= -45

 Intra band minimization:
   WEIMIN = 0.0000     energy-eigenvalue tresh-hold
   EBREAK =  0.82E-08  absolut break condition
   DEPER  =   0.30     relativ break condition  

   TIME   =   0.40     timestep for ELM

  volume/ion in A,a.u.               =       9.34        63.06
  Fermi-wavevector in a.u.,A,eV,Ry     =   1.554515  2.937608 32.878713  2.416517
  Thomas-Fermi vector in A             =   2.658590
 
 Write flags
   LWAVE        =      F    write WAVECAR
   LDOWNSAMPLE  =      F    k-point downsampling of WAVECAR
   LCHARG       =      T    write CHGCAR
   LVTOT        =      F    write LOCPOT, total local potential
   LVHAR        =      F    write LOCPOT, Hartree potential only
   LELF         =      F    write electronic localiz. function (ELF)
   LORBIT       =      0    0 simple, 1 ext, 2 COOP (PROOUT), +10 PAW based schemes


 Dipole corrections
   LMONO  =      F    monopole corrections only (constant potential shift)
   LDIPOL =      F    correct potential (dipole corrections)
   IDIPOL =      0    1-x, 2-y, 3-z, 4-all directions 
   EPSILON=  1.0000000 bulk dielectric constant

 Exchange correlation treatment:
   GGA     =    PS    GGA type
   LEXCH   =    14    internal setting for exchange type
   VOSKOWN=      1    Vosko Wilk Nusair interpolation
   LHFCALC =     F    Hartree Fock is set to
   LHFONE  =     F    Hartree Fock one center treatment
   AEXX    =    0.0000 exact exchange contribution

 Linear response parameters
   LEPSILON=     F    determine dielectric tensor
   LRPA    =     F    only Hartree local field effects (RPA)
   LNABLA  =     F    use nabla operator in PAW spheres
   LVEL    =     F    velocity operator in full k-point grid
   LINTERFAST=   F  fast interpolation
   KINTER  =     0    interpolate to denser k-point grid
   CSHIFT  =0.1000    complex shift for real part using Kramers Kronig
   OMEGAMAX=  -1.0    maximum frequency
   DEG_THRESHOLD= 0.2000000E-02 threshold for treating states as degnerate
   RTIME   =   -0.100 relaxation time in fs
  (WPLASMAI=    0.000 imaginary part of plasma frequency in eV, 0.658/RTIME)
   DFIELD  = 0.0000000 0.0000000 0.0000000 field for delta impulse in time
 
 Orbital magnetization related:
   ORBITALMAG=     F  switch on orbital magnetization
   LCHIMAG   =     F  perturbation theory with respect to B field
   DQ        =  0.001000  dq finite difference perturbation B field
   LLRAUG    =     F  two centre corrections for induced B field



--------------------------------------------------------------------------------------------------------


 Static calculation
 charge density and potential will be updated during run
 spin polarized calculation
 Variant of blocked Davidson
 Davidson routine will perform the subspace rotation
 perform sub-space diagonalisation
    after iterative eigenvector-optimisation
 modified Broyden-mixing scheme, WC =      100.0
 initial mixing is a Kerker type mixing with AMIX =  0.4000 and BMIX =      1.0000
 Hartree-type preconditioning will be used
 using additional bands           88
 real space projection scheme for non local part
 use partial core corrections
 calculate Harris-corrections to forces 
   (improved forces if not selfconsistent)
 use gradient corrections 
 use of overlap-Matrix (Vanderbilt PP)
 Gauss-broadening in eV      SIGMA  =   0.05


--------------------------------------------------------------------------------------------------------


  energy-cutoff  :      500.00
  volume of cell :      504.57
      direct lattice vectors                 reciprocal lattice vectors
     8.940480500  0.000000000  0.000000000     0.111850812  0.064577096  0.000000000
    -4.470240250  7.742683240  0.000000000     0.000000000  0.129154192  0.000000000
     0.000000000  0.000000000  7.289051750     0.000000000  0.000000000  0.137192057

  length of vectors
     8.940480500  8.940480504  7.289051750     0.129154192  0.129154192  0.137192057


 
 k-points in units of 2pi/SCALE and weight: Automatic mesh                          
   0.00000000  0.00000000  0.00000000       0.016
   0.02796270  0.01614427  0.00000000       0.031
   0.05592541  0.03228855  0.00000000       0.016
   0.00000000  0.03228855  0.00000000       0.031
   0.02796270  0.04843282  0.00000000       0.031
   0.05592541  0.06457710  0.00000000       0.031
  -0.02796270  0.01614427  0.00000000       0.031
   0.00000000  0.06457710  0.00000000       0.016
   0.02796270  0.08072137  0.00000000       0.031
   0.05592541  0.09686564  0.00000000       0.016
   0.00000000  0.00000000  0.03429801       0.031
   0.02796270  0.01614427  0.03429801       0.031
   0.05592541  0.03228855  0.03429801       0.031
  -0.02796270 -0.01614427  0.03429801       0.031
   0.00000000  0.03228855  0.03429801       0.031
   0.02796270  0.04843282  0.03429801       0.031
   0.05592541  0.06457710  0.03429801       0.031
  -0.02796270  0.01614427  0.03429801       0.031
   0.00000000  0.06457710  0.03429801       0.031
   0.02796270  0.08072137  0.03429801       0.031
   0.05592541  0.09686564  0.03429801       0.031
  -0.02796270  0.04843282  0.03429801       0.031
   0.00000000 -0.03228855  0.03429801       0.031
   0.02796270 -0.01614427  0.03429801       0.031
   0.05592541  0.00000000  0.03429801       0.031
  -0.02796270 -0.04843282  0.03429801       0.031
   0.00000000  0.00000000  0.06859603       0.016
   0.02796270  0.01614427  0.06859603       0.031
   0.05592541  0.03228855  0.06859603       0.016
   0.00000000  0.03228855  0.06859603       0.031
   0.02796270  0.04843282  0.06859603       0.031
   0.05592541  0.06457710  0.06859603       0.031
  -0.02796270  0.01614427  0.06859603       0.031
   0.00000000  0.06457710  0.06859603       0.016
   0.02796270  0.08072137  0.06859603       0.031
   0.05592541  0.09686564  0.06859603       0.016
 
 k-points in reciprocal lattice and weights: Automatic mesh                          
   0.00000000  0.00000000  0.00000000       0.016
   0.25000000  0.00000000  0.00000000       0.031
   0.50000000  0.00000000  0.00000000       0.016
   0.00000000  0.25000000  0.00000000       0.031
   0.25000000  0.25000000  0.00000000       0.031
   0.50000000  0.25000000  0.00000000       0.031
  -0.25000000  0.25000000  0.00000000       0.031
   0.00000000  0.50000000  0.00000000       0.016
   0.25000000  0.50000000  0.00000000       0.031
   0.50000000  0.50000000  0.00000000       0.016
   0.00000000  0.00000000  0.25000000       0.031
   0.25000000  0.00000000  0.25000000       0.031
   0.50000000  0.00000000  0.25000000       0.031
  -0.25000000 -0.00000000  0.25000000       0.031
   0.00000000  0.25000000  0.25000000       0.031
   0.25000000  0.25000000  0.25000000       0.031
   0.50000000  0.25000000  0.25000000       0.031
  -0.25000000  0.25000000  0.25000000       0.031
   0.00000000  0.50000000  0.25000000       0.031
   0.25000000  0.50000000  0.25000000       0.031
   0.50000000  0.50000000  0.25000000       0.031
  -0.25000000  0.50000000  0.25000000       0.031
   0.00000000 -0.25000000  0.25000000       0.031
   0.25000000 -0.25000000  0.25000000       0.031
   0.50000000 -0.25000000  0.25000000       0.031
  -0.25000000 -0.25000000  0.25000000       0.031
   0.00000000  0.00000000  0.50000000       0.016
   0.25000000  0.00000000  0.50000000       0.031
   0.50000000  0.00000000  0.50000000       0.016
   0.00000000  0.25000000  0.50000000       0.031
   0.25000000  0.25000000  0.50000000       0.031
   0.50000000  0.25000000  0.50000000       0.031
  -0.25000000  0.25000000  0.50000000       0.031
   0.00000000  0.50000000  0.50000000       0.016
   0.25000000  0.50000000  0.50000000       0.031
   0.50000000  0.50000000  0.50000000       0.016
 
 position of ions in fractional coordinates (direct lattice) 
   0.99988978  0.00911870  0.02628579
   0.19748775  0.11768692  0.33160787
   0.12267161  0.22819152  0.66150517
   0.02228318  0.32264448  0.99659215
   0.23420258  0.43006678  0.34368630
   0.10645493  0.53044174  0.67947048
   0.00356314  0.64513413  0.99363299
   0.22518566  0.76623014  0.30123688
   0.11570292  0.85089357  0.64687896
   0.33849741  0.01069243  0.97814494
   0.55280240  0.14134910  0.30206990
   0.43586554  0.23203362  0.65031409
   0.31743186  0.33713893  0.00319131
   0.53693886  0.43788555  0.34687390
   0.45341720  0.54796483  0.60231843
   0.34610382  0.66320411  0.02594146
   0.53736478  0.75662369  0.29349807
   0.42861488  0.86975562  0.67388841
   0.66071836  0.01421849  0.98789393
   0.85550450  0.11149661  0.31544678
   0.78268880  0.22554223  0.66616426
   0.64882204  0.33548097  0.99827481
   0.86417709  0.43486907  0.32888770
   0.75063519  0.54844216  0.65690038
   0.63889790  0.64023307  0.00043186
   0.85782300  0.75975712  0.32477682
   0.75608237  0.84667080  0.65412444
   0.98857259  0.99833341  0.47914997
   0.20492287  0.11682350  0.82651755
   0.09809780  0.22179615  0.16845728
   0.99837067  0.32834140  0.47931303
   0.23474417  0.43284936  0.78780352
   0.10507294  0.55277089  0.16199729
   0.98138912  0.63482512  0.52441614
   0.18962904  0.75974763  0.80741275
   0.08058792  0.83720169  0.16376310
   0.33767252  0.00285128  0.48695962
   0.52846836  0.10454334  0.81814262
   0.43601143  0.20265250  0.15694266
   0.32694767  0.32471143  0.49920822
   0.52815749  0.41757147  0.81621318
   0.42306293  0.54515688  0.17177733
   0.34018945  0.67470792  0.47531408
   0.52743353  0.76564911  0.80697258
   0.44655117  0.89560360  0.15470747
   0.66399135  0.00236326  0.48310708
   0.86935971  0.11062824  0.80307760
   0.75587334  0.20573028  0.17984224
   0.64795015  0.32989509  0.49609569
   0.84920548  0.42295569  0.79387925
   0.74798308  0.53490570  0.15957795
   0.65098568  0.65228141  0.50397166
   0.86142044  0.74906142  0.77726363
   0.75817777  0.87715743  0.15394294
 
 position of ions in cartesian coordinates  (Angst):
   8.89873230  0.07060321  0.19159848
   1.23954657  0.91121254  2.41710693
   0.07667222  1.76681466  4.82174542
  -1.24307600  2.49813401  7.26421175
   0.17138177  3.32987085  2.50514723
  -1.41944379  4.10704237  4.95269549
  -2.85204837  4.99506922  7.24264228
  -1.41196481  5.93267726  2.19573121
  -2.76925899  6.58819938  4.71513422
   2.97853176  0.08278810  7.12974909
   4.31045464  1.09442131  2.20180313
   2.85960133  1.79656282  4.74017306
   1.33090134  2.61035994  0.02326162
   2.84303780  3.39040911  2.52838181
   1.60423320  4.24271811  4.39033021
   0.12965275  5.13497935  0.18908864
   1.42200966  5.85829756  2.13932262
  -0.05599360  6.73424226  4.91200749
   5.84357955  0.11008926  7.20080998
   7.15020467  0.86328293  2.29930790
   5.98938600  1.74630204  4.85570577
   4.30110026  2.59752288  7.27647675
   5.78218920  3.36705346  2.39727947
   4.25937106  4.24641392  4.78818086
   2.85005858  4.95712186  0.00314785
   4.27305295  5.88255872  2.36731505
   2.97491780  6.55550381  4.76794689
   4.37552377  7.72977936  3.49254893
   1.30987981  0.90452736  6.02452919
  -0.11444061  1.71729733  1.22789383
   7.45814856  2.54224345  3.49373748
   0.16378504  3.35141549  5.74234063
  -1.53161611  4.27992991  1.18080663
   5.93626949  4.91524982  3.82249638
  -1.70087970  5.88248524  5.88527332
  -3.02199796  6.48218749  1.19367771
   3.00620867  0.02207656  3.54947387
   4.25742722  0.80944597  5.96348390
   2.99224633  1.56907412  1.14396317
   1.47153116  2.51413775  3.63875455
   2.85533695  3.23312362  5.94942011
   1.34540365  4.22097704  1.25209385
   0.02535064  5.22404970  3.46458893
   1.29287372  5.92817853  5.88206490
  -0.01118123  6.93437498  1.12767075
   5.92583738  0.01829797  3.52139251
   7.27795872  0.85655942  5.85367419
   5.83820708  1.59290439  1.31087939
   4.31827537  2.55427318  3.61606716
   5.70159149  3.27481193  5.78662694
   4.29617115  4.14160540  1.16317194
   2.90427016  5.05040834  3.67347551
   4.35302814  5.79974530  5.66551482
   2.85736912  6.79155213  1.12209806
 


--------------------------------------------------------------------------------------------------------


 k-point  1 :   0.0000 0.0000 0.0000  plane waves:   12783
 k-point  2 :   0.2500 0.0000 0.0000  plane waves:   12792
 k-point  3 :   0.5000 0.0000 0.0000  plane waves:   12824
 k-point  4 :   0.0000 0.2500 0.0000  plane waves:   12792
 k-point  5 :   0.2500 0.2500 0.0000  plane waves:   12812
 k-point  6 :   0.5000 0.2500 0.0000  plane waves:   12812
 k-point  7 :  -0.2500 0.2500 0.0000  plane waves:   12792
 k-point  8 :   0.0000 0.5000 0.0000  plane waves:   12824
 k-point  9 :   0.2500 0.5000 0.0000  plane waves:   12812
 k-point 10 :   0.5000 0.5000 0.0000  plane waves:   12824
 k-point 11 :   0.0000 0.0000 0.2500  plane waves:   12801
 k-point 12 :   0.2500 0.0000 0.2500  plane waves:   12808
 k-point 13 :   0.5000 0.0000 0.2500  plane waves:   12822
 k-point 14 :  -0.2500-0.0000 0.2500  plane waves:   12808
 k-point 15 :   0.0000 0.2500 0.2500  plane waves:   12808
 k-point 16 :   0.2500 0.2500 0.2500  plane waves:   12798
 k-point 17 :   0.5000 0.2500 0.2500  plane waves:   12798
 k-point 18 :  -0.2500 0.2500 0.2500  plane waves:   12808
 k-point 19 :   0.0000 0.5000 0.2500  plane waves:   12822
 k-point 20 :   0.2500 0.5000 0.2500  plane waves:   12798
 k-point 21 :   0.5000 0.5000 0.2500  plane waves:   12822
 k-point 22 :  -0.2500 0.5000 0.2500  plane waves:   12798
 k-point 23 :   0.0000-0.2500 0.2500  plane waves:   12808
 k-point 24 :   0.2500-0.2500 0.2500  plane waves:   12808
 k-point 25 :   0.5000-0.2500 0.2500  plane waves:   12798
 k-point 26 :  -0.2500-0.2500 0.2500  plane waves:   12798
 k-point 27 :   0.0000 0.0000 0.5000  plane waves:   12878
 k-point 28 :   0.2500 0.0000 0.5000  plane waves:   12818
 k-point 29 :   0.5000 0.0000 0.5000  plane waves:   12812
 k-point 30 :   0.0000 0.2500 0.5000  plane waves:   12818
 k-point 31 :   0.2500 0.2500 0.5000  plane waves:   12786
 k-point 32 :   0.5000 0.2500 0.5000  plane waves:   12786
 k-point 33 :  -0.2500 0.2500 0.5000  plane waves:   12818
 k-point 34 :   0.0000 0.5000 0.5000  plane waves:   12812
 k-point 35 :   0.2500 0.5000 0.5000  plane waves:   12786
 k-point 36 :   0.5000 0.5000 0.5000  plane waves:   12812

 maximum and minimum number of plane-waves per node :     12878    12783

 maximum number of plane-waves:     12878
 maximum index in each direction: 
   IXMAX=   16   IYMAX=   16   IZMAX=   13
   IXMIN=  -16   IYMIN=  -16   IZMIN=  -13

 The following grids will avoid any aliasing or wrap around errors in the Hartre
 e energy
  - symmetry arguments have not been applied
  - exchange correlation energies might require even more grid points
  - we recommend to set PREC=Normal or Accurate and rely on VASP defaults
 NGX is ok and might be reduce to    70
 NGY is ok and might be reduce to    70
 NGZ is ok and might be reduce to    54

 serial   3D FFT for wavefunctions
 parallel 3D FFT for charge:
    minimum data exchange during FFTs selected (reduces bandwidth)


 total amount of memory used by VASP MPI-rank0   408184. kBytes
=======================================================================

   base      :      30000. kBytes
   nonlr-proj:      41082. kBytes
   fftplans  :       5725. kBytes
   grid      :      32372. kBytes
   one-center:       1679. kBytes
   wavefun   :     297326. kBytes
 
     INWAV:  cpu time    0.0000: real time    0.0000
 Broyden mixing: mesh for mixing (old mesh)
   NGX = 33   NGY = 33   NGZ = 27
  (NGX  =140   NGY  =140   NGZ  =108)
  gives a total of  29403 points

 initial charge density was supplied:
 charge density of overlapping atoms calculated
 number of electron     432.0000000 magnetization      67.5000000
 keeping initial charge density in first step


--------------------------------------------------------------------------------------------------------


 Maximum index for non-local projection operator         6850
 Maximum index for augmentation-charges         1214 (set IRDMAX)


--------------------------------------------------------------------------------------------------------


 First call to EWALD:  gamma=   0.223
 Maximum number of real-space cells 3x 3x 3
 Maximum number of reciprocal cells 3x 3x 3

    FEWALD:  cpu time    0.0026: real time    0.0026


--------------------------------------- Iteration      1(   1)  ---------------------------------------


    POTLOK:  cpu time    0.1779: real time    0.1806
    SETDIJ:  cpu time    0.0237: real time    0.0237
     EDDAV:  cpu time  134.1084: real time  134.4263
    --------------------------------------------
      LOOP:  cpu time  134.3156: real time  134.6960

 eigenvalue-minimisations  : 43776
 total energy-change (2. order) : 0.5154722E+04  (-0.1753229E+05)
 number of electron     432.0000000 magnetization      67.5000000
 augmentation part      432.0000000 magnetization      67.5000000

 Free energy of the ion-electron system (eV)
  ---------------------------------------------------
  alpha Z        PSCENC =      1714.29250713
  Ewald energy   TEWEN  =    -34076.63228552
  -Hartree energ DENC   =     -9636.77610593
  -exchange      EXHF   =         0.00000000
  -V(xc)+E(xc)   XCENC  =      1645.88094765
  PAW double counting   =     35307.98069315   -37155.18892105
  entropy T*S    EENTRO =        -0.01104504
  eigenvalues    EBANDS =      6646.70075479
  atomic energy  EATOM  =     40708.47505058
  Solvation  Ediel_sol  =         0.00000000
  ---------------------------------------------------
  free energy    TOTEN  =      5154.72159577 eV

  energy without entropy =     5154.73264081  energy(sigma->0) =     5154.72711829


--------------------------------------------------------------------------------------------------------




--------------------------------------- Iteration      1(   2)  ---------------------------------------


     EDDAV:  cpu time  134.5850: real time  134.9636
    --------------------------------------------
      LOOP:  cpu time  134.5853: real time  134.9443

 eigenvalue-minimisations  : 43776
 total energy-change (2. order) :-0.4429595E+04  (-0.4009884E+04)
 number of electron     432.0000000 magnetization      67.5000000
 augmentation part      432.0000000 magnetization      67.5000000

 Free energy of the ion-electron system (eV)
  ---------------------------------------------------
  alpha Z        PSCENC =      1714.29250713
  Ewald energy   TEWEN  =    -34076.63228552
  -Hartree energ DENC   =     -9636.77610593
  -exchange      EXHF   =         0.00000000
  -V(xc)+E(xc)   XCENC  =      1645.88094765
  PAW double counting   =     35307.98069315   -37155.18892105
  entropy T*S    EENTRO =        -0.02628533
  eigenvalues    EBANDS =      2217.12141942
  atomic energy  EATOM  =     40708.47505058
  Solvation  Ediel_sol  =         0.00000000
  ---------------------------------------------------
  free energy    TOTEN  =       725.12702012 eV

  energy without entropy =      725.15330544  energy(sigma->0) =      725.14016278


--------------------------------------------------------------------------------------------------------




--------------------------------------- Iteration      1(   3)  ---------------------------------------


     EDDAV:  cpu time  138.1740: real time  138.5415
    --------------------------------------------
      LOOP:  cpu time  138.1729: real time  138.5123

 eigenvalue-minimisations  : 44896
 total energy-change (2. order) :-0.1006389E+04  (-0.8932266E+03)
 number of electron     432.0000000 magnetization      67.5000000
 augmentation part      432.0000000 magnetization      67.5000000

 Free energy of the ion-electron system (eV)
  ---------------------------------------------------
  alpha Z        PSCENC =      1714.29250713
  Ewald energy   TEWEN  =    -34076.63228552
  -Hartree energ DENC   =     -9636.77610593
  -exchange      EXHF   =         0.00000000
  -V(xc)+E(xc)   XCENC  =      1645.88094765
  PAW double counting   =     35307.98069315   -37155.18892105
  entropy T*S    EENTRO =        -0.10253087
  eigenvalues    EBANDS =      1210.80864555
  atomic energy  EATOM  =     40708.47505058
  Solvation  Ediel_sol  =         0.00000000
  ---------------------------------------------------
  free energy    TOTEN  =      -281.26199930 eV

  energy without entropy =     -281.15946843  energy(sigma->0) =     -281.21073386


--------------------------------------------------------------------------------------------------------




--------------------------------------- Iteration      1(   4)  ---------------------------------------


     EDDAV:  cpu time  150.6469: real time  151.0157
    --------------------------------------------
      LOOP:  cpu time  150.6464: real time  151.0033

 eigenvalue-minimisations  : 51088
 total energy-change (2. order) :-0.1112467E+03  (-0.1055512E+03)
 number of electron     432.0000000 magnetization      67.5000000
 augmentation part      432.0000000 magnetization      67.5000000

 Free energy of the ion-electron system (eV)
  ---------------------------------------------------
  alpha Z        PSCENC =      1714.29250713
  Ewald energy   TEWEN  =    -34076.63228552
  -Hartree energ DENC   =     -9636.77610593
  -exchange      EXHF   =         0.00000000
  -V(xc)+E(xc)   XCENC  =      1645.88094765
  PAW double counting   =     35307.98069315   -37155.18892105
  entropy T*S    EENTRO =        -0.11359663
  eigenvalues    EBANDS =      1099.57297568
  atomic energy  EATOM  =     40708.47505058
  Solvation  Ediel_sol  =         0.00000000
  ---------------------------------------------------
  free energy    TOTEN  =      -392.50873493 eV

  energy without entropy =     -392.39513830  energy(sigma->0) =     -392.45193661


--------------------------------------------------------------------------------------------------------




--------------------------------------- Iteration      1(   5)  ---------------------------------------


     EDDAV:  cpu time  147.9097: real time  148.2603
    CHARGE:  cpu time    4.7116: real time    4.7228
    MIXING:  cpu time    0.0033: real time    0.0033
    --------------------------------------------
      LOOP:  cpu time  152.6203: real time  152.9821

 eigenvalue-minimisations  : 50304
 total energy-change (2. order) :-0.2798954E+01  (-0.2775166E+01)
 number of electron     432.0000021 magnetization      60.1512071
 augmentation part      172.2814258 magnetization      47.3950653

 Broyden mixing:
  rms(total) = 0.83533E+01    rms(broyden)= 0.83521E+01
  rms(prec ) = 0.11036E+02
  weight for this iteration     100.00

 Free energy of the ion-electron system (eV)
  ---------------------------------------------------
  alpha Z        PSCENC =      1714.29250713
  Ewald energy   TEWEN  =    -34076.63228552
  -Hartree energ DENC   =     -9636.77610593
  -exchange      EXHF   =         0.00000000
  -V(xc)+E(xc)   XCENC  =      1645.88094765
  PAW double counting   =     35307.98069315   -37155.18892105
  entropy T*S    EENTRO =        -0.11371243
  eigenvalues    EBANDS =      1096.77413701
  atomic energy  EATOM  =     40708.47505058
  Solvation  Ediel_sol  =         0.00000000
  ---------------------------------------------------
  free energy    TOTEN  =      -395.30768940 eV

  energy without entropy =     -395.19397697  energy(sigma->0) =     -395.25083318


--------------------------------------------------------------------------------------------------------




--------------------------------------- Iteration      1(   6)  ---------------------------------------


    POTLOK:  cpu time    0.1557: real time    0.1561
    SETDIJ:  cpu time    0.0252: real time    0.0253
     EDDAV:  cpu time  176.7903: real time  177.2092
    CHARGE:  cpu time    4.5308: real time    4.5415
    MIXING:  cpu time    0.0034: real time    0.0034
    --------------------------------------------
      LOOP:  cpu time  181.5055: real time  181.9355

 eigenvalue-minimisations  : 62608
 total energy-change (2. order) : 0.6393410E+01  (-0.4451110E+02)
 number of electron     432.0000018 magnetization      50.6412909
 augmentation part      199.3765098 magnetization      44.9331524

 Broyden mixing:
  rms(total) = 0.12922E+02    rms(broyden)= 0.12922E+02
  rms(prec ) = 0.16012E+02
  weight for this iteration     100.00

 eigenvalues of (default mixing * dielectric matrix)
  average eigenvalue GAMMA=   0.2301
  0.2301

 Free energy of the ion-electron system (eV)
  ---------------------------------------------------
  alpha Z        PSCENC =      1714.29250713
  Ewald energy   TEWEN  =    -34076.63228552
  -Hartree energ DENC   =     -9254.70512671
  -exchange      EXHF   =         0.00000000
  -V(xc)+E(xc)   XCENC  =      1639.93439146
  PAW double counting   =     37727.93484234   -39415.14461195
  entropy T*S    EENTRO =        -0.04956572
  eigenvalues    EBANDS =       566.98051868
  atomic energy  EATOM  =     40708.47505058
  Solvation  Ediel_sol  =         0.00000000
  ---------------------------------------------------
  free energy    TOTEN  =      -388.91427971 eV

  energy without entropy =     -388.86471400  energy(sigma->0) =     -388.88949685


--------------------------------------------------------------------------------------------------------




--------------------------------------- Iteration      1(   7)  ---------------------------------------


    POTLOK:  cpu time    0.1442: real time    0.1446
    SETDIJ:  cpu time    0.0243: real time    0.0244
     EDDAV:  cpu time  151.8056: real time  152.1652
    CHARGE:  cpu time    4.5768: real time    4.5876
    MIXING:  cpu time    0.0033: real time    0.0033
    --------------------------------------------
      LOOP:  cpu time  156.5542: real time  156.9250

 eigenvalue-minimisations  : 51792
 total energy-change (2. order) : 0.4155211E+02  (-0.1972403E+02)
 number of electron     432.0000020 magnetization      46.1889974
 augmentation part      186.8529177 magnetization      37.4190817

 Broyden mixing:
  rms(total) = 0.83631E+01    rms(broyden)= 0.83625E+01
  rms(prec ) = 0.11532E+02
  weight for this iteration     100.00

 eigenvalues of (default mixing * dielectric matrix)
  average eigenvalue GAMMA=   0.3496
  0.3496  0.3496

 Free energy of the ion-electron system (eV)
  ---------------------------------------------------
  alpha Z        PSCENC =      1714.29250713
  Ewald energy   TEWEN  =    -34076.63228552
  -Hartree energ DENC   =     -9380.12253575
  -exchange      EXHF   =         0.00000000
  -V(xc)+E(xc)   XCENC  =      1632.53059258
  PAW double counting   =     38924.22684992   -40725.62237767
  entropy T*S    EENTRO =        -0.08289231
  eigenvalues    EBANDS =       855.57292600
  atomic energy  EATOM  =     40708.47505058
  Solvation  Ediel_sol  =         0.00000000
  ---------------------------------------------------
  free energy    TOTEN  =      -347.36216504 eV

  energy without entropy =     -347.27927273  energy(sigma->0) =     -347.32071889


--------------------------------------------------------------------------------------------------------




--------------------------------------- Iteration      1(   8)  ---------------------------------------


    POTLOK:  cpu time    0.1514: real time    0.1518
    SETDIJ:  cpu time    0.0244: real time    0.0245
     EDDAV:  cpu time  161.8075: real time  162.1909
    CHARGE:  cpu time    4.5644: real time    4.5752
    MIXING:  cpu time    0.0037: real time    0.0038
    --------------------------------------------
      LOOP:  cpu time  166.5515: real time  166.9462

 eigenvalue-minimisations  : 56240
 total energy-change (2. order) : 0.1284127E+01  (-0.1288028E+02)
 number of electron     432.0000019 magnetization      42.1604437
 augmentation part      184.8865688 magnetization      34.4413924

 Broyden mixing:
  rms(total) = 0.81282E+01    rms(broyden)= 0.81277E+01
  rms(prec ) = 0.12425E+02
  weight for this iteration     100.00

 eigenvalues of (default mixing * dielectric matrix)
  average eigenvalue GAMMA=   0.4030
  0.5344  0.5344  0.1401

 Free energy of the ion-electron system (eV)
  ---------------------------------------------------
  alpha Z        PSCENC =      1714.29250713
  Ewald energy   TEWEN  =    -34076.63228552
  -Hartree energ DENC   =     -9413.45041469
  -exchange      EXHF   =         0.00000000
  -V(xc)+E(xc)   XCENC  =      1630.80305468
  PAW double counting   =     39658.86400333   -41499.31696306
  entropy T*S    EENTRO =        -0.06958641
  eigenvalues    EBANDS =       930.95659640
  atomic energy  EATOM  =     40708.47505058
  Solvation  Ediel_sol  =         0.00000000
  ---------------------------------------------------
  free energy    TOTEN  =      -346.07803757 eV

  energy without entropy =     -346.00845116  energy(sigma->0) =     -346.04324436


--------------------------------------------------------------------------------------------------------




--------------------------------------- Iteration      1(   9)  ---------------------------------------


    POTLOK:  cpu time    0.1500: real time    0.1504
    SETDIJ:  cpu time    0.0242: real time    0.0243
     EDDAV:  cpu time  164.5061: real time  164.8957
    CHARGE:  cpu time    4.5507: real time    4.5615
    MIXING:  cpu time    0.0039: real time    0.0040
    --------------------------------------------
      LOOP:  cpu time  169.2350: real time  169.6359

 eigenvalue-minimisations  : 57344
 total energy-change (2. order) :-0.1599592E+02  (-0.1419610E+02)
 number of electron     432.0000017 magnetization      34.7462529
 augmentation part      184.4304793 magnetization      28.1569838

 Broyden mixing:
  rms(total) = 0.10144E+02    rms(broyden)= 0.10143E+02
  rms(prec ) = 0.16987E+02
  weight for this iteration     100.00

 eigenvalues of (default mixing * dielectric matrix)
  average eigenvalue GAMMA=   0.4199
  0.8418  0.5618  0.1690  0.1070

 Free energy of the ion-electron system (eV)
  ---------------------------------------------------
  alpha Z        PSCENC =      1714.29250713
  Ewald energy   TEWEN  =    -34076.63228552
  -Hartree energ DENC   =     -9403.20811579
  -exchange      EXHF   =         0.00000000
  -V(xc)+E(xc)   XCENC  =      1629.53941652
  PAW double counting   =     40287.08536125   -42145.35628504
  entropy T*S    EENTRO =        -0.06347143
  eigenvalues    EBANDS =       923.79386597
  atomic energy  EATOM  =     40708.47505058
  Solvation  Ediel_sol  =         0.00000000
  ---------------------------------------------------
  free energy    TOTEN  =      -362.07395634 eV

  energy without entropy =     -362.01048490  energy(sigma->0) =     -362.04222062


--------------------------------------------------------------------------------------------------------




--------------------------------------- Iteration      1(  10)  ---------------------------------------


    POTLOK:  cpu time    0.1523: real time    0.1527
    SETDIJ:  cpu time    0.0241: real time    0.0241
     EDDAV:  cpu time  168.4599: real time  168.8590
    CHARGE:  cpu time    4.5609: real time    4.5717
    MIXING:  cpu time    0.0038: real time    0.0038
    --------------------------------------------
      LOOP:  cpu time  173.2010: real time  173.6113

 eigenvalue-minimisations  : 59168
 total energy-change (2. order) : 0.1701515E+02  (-0.1528449E+02)
 number of electron     432.0000018 magnetization      30.4997280
 augmentation part      185.1876855 magnetization      23.2432403

 Broyden mixing:
  rms(total) = 0.64642E+01    rms(broyden)= 0.64638E+01
  rms(prec ) = 0.99888E+01
  weight for this iteration     100.00

 eigenvalues of (default mixing * dielectric matrix)
  average eigenvalue GAMMA=   0.4634
  1.1904  0.5795  0.3239  0.1115  0.1115

 Free energy of the ion-electron system (eV)
  ---------------------------------------------------
  alpha Z        PSCENC =      1714.29250713
  Ewald energy   TEWEN  =    -34076.63228552
  -Hartree energ DENC   =     -9367.40609698
  -exchange      EXHF   =         0.00000000
  -V(xc)+E(xc)   XCENC  =      1627.88779678
  PAW double counting   =     41357.11902007   -43239.40358265
  entropy T*S    EENTRO =        -0.07154275
  eigenvalues    EBANDS =       930.68032816
  atomic energy  EATOM  =     40708.47505058
  Solvation  Ediel_sol  =         0.00000000
  ---------------------------------------------------
  free energy    TOTEN  =      -345.05880519 eV

  energy without entropy =     -344.98726243  energy(sigma->0) =     -345.02303381


--------------------------------------------------------------------------------------------------------




--------------------------------------- Iteration      1(  11)  ---------------------------------------


    POTLOK:  cpu time    0.1529: real time    0.1533
    SETDIJ:  cpu time    0.0240: real time    0.0240
     EDDAV:  cpu time  156.8637: real time  157.2354
    CHARGE:  cpu time    4.5754: real time    4.5862
    MIXING:  cpu time    0.0044: real time    0.0044
    --------------------------------------------
      LOOP:  cpu time  161.6205: real time  162.0035

 eigenvalue-minimisations  : 54096
 total energy-change (2. order) :-0.1846292E+02  (-0.9318572E+01)
 number of electron     432.0000025 magnetization      26.4183663
 augmentation part      184.3226098 magnetization      20.0943656

 Broyden mixing:
  rms(total) = 0.99968E+01    rms(broyden)= 0.99963E+01
  rms(prec ) = 0.16950E+02
  weight for this iteration     100.00

 eigenvalues of (default mixing * dielectric matrix)
  average eigenvalue GAMMA=   0.4623
  1.4836  0.5860  0.3767  0.1202  0.1202  0.0873

 Free energy of the ion-electron system (eV)
  ---------------------------------------------------
  alpha Z        PSCENC =      1714.29250713
  Ewald energy   TEWEN  =    -34076.63228552
  -Hartree energ DENC   =     -9355.97338806
  -exchange      EXHF   =         0.00000000
  -V(xc)+E(xc)   XCENC  =      1626.91327195
  PAW double counting   =     41986.72231443   -43884.61828582
  entropy T*S    EENTRO =        -0.05379176
  eigenvalues    EBANDS =       917.35288305
  atomic energy  EATOM  =     40708.47505058
  Solvation  Ediel_sol  =         0.00000000
  ---------------------------------------------------
  free energy    TOTEN  =      -363.52172401 eV

  energy without entropy =     -363.46793225  energy(sigma->0) =     -363.49482813


--------------------------------------------------------------------------------------------------------




--------------------------------------- Iteration      1(  12)  ---------------------------------------


    POTLOK:  cpu time    0.1535: real time    0.1538
    SETDIJ:  cpu time    0.0245: real time    0.0245
     EDDAV:  cpu time  159.1708: real time  159.5479
    CHARGE:  cpu time    4.6031: real time    4.6140
    MIXING:  cpu time    0.0044: real time    0.0044
    --------------------------------------------
      LOOP:  cpu time  163.9562: real time  164.3446

 eigenvalue-minimisations  : 55120
 total energy-change (2. order) : 0.1733402E+02  (-0.8288151E+01)
 number of electron     432.0000019 magnetization      24.7711952
 augmentation part      185.1607422 magnetization      18.4314314

 Broyden mixing:
  rms(total) = 0.70329E+01    rms(broyden)= 0.70324E+01
  rms(prec ) = 0.11641E+02
  weight for this iteration     100.00

 eigenvalues of (default mixing * dielectric matrix)
  average eigenvalue GAMMA=   0.4298
  1.5722  0.5768  0.4143  0.1416  0.1132  0.1132  0.0773

 Free energy of the ion-electron system (eV)
  ---------------------------------------------------
  alpha Z        PSCENC =      1714.29250713
  Ewald energy   TEWEN  =    -34076.63228552
  -Hartree energ DENC   =     -9345.42108681
  -exchange      EXHF   =         0.00000000
  -V(xc)+E(xc)   XCENC  =      1626.09230410
  PAW double counting   =     42559.74150343   -44469.71389357
  entropy T*S    EENTRO =        -0.07659414
  eigenvalues    EBANDS =       937.05478643
  atomic energy  EATOM  =     40708.47505058
  Solvation  Ediel_sol  =         0.00000000
  ---------------------------------------------------
  free energy    TOTEN  =      -346.18770837 eV

  energy without entropy =     -346.11111423  energy(sigma->0) =     -346.14941130


--------------------------------------------------------------------------------------------------------




--------------------------------------- Iteration      1(  13)  ---------------------------------------


    POTLOK:  cpu time    0.1559: real time    0.1562
    SETDIJ:  cpu time    0.0258: real time    0.0258
     EDDAV:  cpu time  154.3783: real time  154.8220
    CHARGE:  cpu time    4.5757: real time    4.5865
    MIXING:  cpu time    0.0042: real time    0.0042
    --------------------------------------------
      LOOP:  cpu time  159.1398: real time  159.5948

 eigenvalue-minimisations  : 52336
 total energy-change (2. order) : 0.1298375E+02  (-0.3842729E+01)
 number of electron     432.0000020 magnetization      22.8139130
 augmentation part      185.5559932 magnetization      17.7294403

 Broyden mixing:
  rms(total) = 0.54720E+01    rms(broyden)= 0.54716E+01
  rms(prec ) = 0.86445E+01
  weight for this iteration     100.00

 eigenvalues of (default mixing * dielectric matrix)
  average eigenvalue GAMMA=   0.4311
  1.7505  0.6189  0.3338  0.3338  0.1175  0.1175  0.0884  0.0884

 Free energy of the ion-electron system (eV)
  ---------------------------------------------------
  alpha Z        PSCENC =      1714.29250713
  Ewald energy   TEWEN  =    -34076.63228552
  -Hartree energ DENC   =     -9349.66336849
  -exchange      EXHF   =         0.00000000
  -V(xc)+E(xc)   XCENC  =      1625.94633325
  PAW double counting   =     42810.16929864   -44728.40397448
  entropy T*S    EENTRO =        -0.07054606
  eigenvalues    EBANDS =       962.68302419
  atomic energy  EATOM  =     40708.47505058
  Solvation  Ediel_sol  =         0.00000000
  ---------------------------------------------------
  free energy    TOTEN  =      -333.20396076 eV

  energy without entropy =     -333.13341470  energy(sigma->0) =     -333.16868773


--------------------------------------------------------------------------------------------------------




--------------------------------------- Iteration      1(  14)  ---------------------------------------


    POTLOK:  cpu time    0.1492: real time    0.1496
    SETDIJ:  cpu time    0.0242: real time    0.0243
     EDDAV:  cpu time  155.5259: real time  155.8944
    CHARGE:  cpu time    4.5701: real time    4.5810
    MIXING:  cpu time    0.0050: real time    0.0050
    --------------------------------------------
      LOOP:  cpu time  160.2744: real time  160.6542

 eigenvalue-minimisations  : 53568
 total energy-change (2. order) : 0.1845068E+01  (-0.2727430E+01)
 number of electron     432.0000018 magnetization      21.5385100
 augmentation part      185.8563412 magnetization      17.0222702

 Broyden mixing:
  rms(total) = 0.35469E+01    rms(broyden)= 0.35463E+01
  rms(prec ) = 0.57900E+01
  weight for this iteration     100.00

 eigenvalues of (default mixing * dielectric matrix)
  average eigenvalue GAMMA=   0.4372
  1.7889  0.7512  0.4242  0.4242  0.1388  0.1238  0.1238  0.0801  0.0801

 Free energy of the ion-electron system (eV)
  ---------------------------------------------------
  alpha Z        PSCENC =      1714.29250713
  Ewald energy   TEWEN  =    -34076.63228552
  -Hartree energ DENC   =     -9347.21669029
  -exchange      EXHF   =         0.00000000
  -V(xc)+E(xc)   XCENC  =      1625.39041011
  PAW double counting   =     43034.96281243   -44957.67179960
  entropy T*S    EENTRO =        -0.07147444
  eigenvalues    EBANDS =       967.11257694
  atomic energy  EATOM  =     40708.47505058
  Solvation  Ediel_sol  =         0.00000000
  ---------------------------------------------------
  free energy    TOTEN  =      -331.35889267 eV

  energy without entropy =     -331.28741823  energy(sigma->0) =     -331.32315545


--------------------------------------------------------------------------------------------------------




--------------------------------------- Iteration      1(  15)  ---------------------------------------


    POTLOK:  cpu time    0.1519: real time    0.1523
    SETDIJ:  cpu time    0.0241: real time    0.0242
     EDDAV:  cpu time  155.4871: real time  155.8556
    CHARGE:  cpu time    4.5822: real time    4.5931
    MIXING:  cpu time    0.0054: real time    0.0054
    --------------------------------------------
      LOOP:  cpu time  160.2507: real time  160.6305

 eigenvalue-minimisations  : 53552
 total energy-change (2. order) :-0.1417191E+01  (-0.1249083E+01)
 number of electron     432.0000018 magnetization      21.1782278
 augmentation part      185.2437976 magnetization      16.0664474

 Broyden mixing:
  rms(total) = 0.55575E+01    rms(broyden)= 0.55572E+01
  rms(prec ) = 0.92738E+01
  weight for this iteration     100.00

 eigenvalues of (default mixing * dielectric matrix)
  average eigenvalue GAMMA=   0.4107
  1.7776  0.7896  0.4425  0.4425  0.1692  0.1213  0.1213  0.0835  0.0835  0.0763

 Free energy of the ion-electron system (eV)
  ---------------------------------------------------
  alpha Z        PSCENC =      1714.29250713
  Ewald energy   TEWEN  =    -34076.63228552
  -Hartree energ DENC   =     -9346.22489560
  -exchange      EXHF   =         0.00000000
  -V(xc)+E(xc)   XCENC  =      1624.61125736
  PAW double counting   =     43047.88682574   -44969.71923498
  entropy T*S    EENTRO =        -0.06732965
  eigenvalues    EBANDS =       964.60202147
  atomic energy  EATOM  =     40708.47505058
  Solvation  Ediel_sol  =         0.00000000
  ---------------------------------------------------
  free energy    TOTEN  =      -332.77608347 eV

  energy without entropy =     -332.70875382  energy(sigma->0) =     -332.74241864


--------------------------------------------------------------------------------------------------------




--------------------------------------- Iteration      1(  16)  ---------------------------------------


    POTLOK:  cpu time    0.1469: real time    0.1472
    SETDIJ:  cpu time    0.0244: real time    0.0244
     EDDAV:  cpu time  160.4590: real time  160.8392
    CHARGE:  cpu time    4.5816: real time    4.5924
    MIXING:  cpu time    0.0052: real time    0.0052
    --------------------------------------------
      LOOP:  cpu time  165.2171: real time  165.6085

 eigenvalue-minimisations  : 55808
 total energy-change (2. order) : 0.5400798E+01  (-0.8733200E+00)
 number of electron     432.0000020 magnetization      21.0613516
 augmentation part      185.6209366 magnetization      16.7439729

 Broyden mixing:
  rms(total) = 0.23216E+01    rms(broyden)= 0.23212E+01
  rms(prec ) = 0.37234E+01
  weight for this iteration     100.00

 eigenvalues of (default mixing * dielectric matrix)
  average eigenvalue GAMMA=   0.3856
  1.7297  0.8139  0.4430  0.4430  0.2197  0.1423  0.1135  0.1135  0.0832  0.0786
  0.0610

 Free energy of the ion-electron system (eV)
  ---------------------------------------------------
  alpha Z        PSCENC =      1714.29250713
  Ewald energy   TEWEN  =    -34076.63228552
  -Hartree energ DENC   =     -9345.86648551
  -exchange      EXHF   =         0.00000000
  -V(xc)+E(xc)   XCENC  =      1624.30899534
  PAW double counting   =     43028.32174105   -44948.11915303
  entropy T*S    EENTRO =        -0.06854668
  eigenvalues    EBANDS =       967.91289106
  atomic energy  EATOM  =     40708.47505058
  Solvation  Ediel_sol  =         0.00000000
  ---------------------------------------------------
  free energy    TOTEN  =      -327.37528557 eV

  energy without entropy =     -327.30673890  energy(sigma->0) =     -327.34101223


--------------------------------------------------------------------------------------------------------




--------------------------------------- Iteration      1(  17)  ---------------------------------------


    POTLOK:  cpu time    0.1520: real time    0.1524
    SETDIJ:  cpu time    0.0247: real time    0.0248
     EDDAV:  cpu time  161.9388: real time  162.3226
    CHARGE:  cpu time    4.6018: real time    4.6127
    MIXING:  cpu time    0.0056: real time    0.0057
    --------------------------------------------
      LOOP:  cpu time  166.7230: real time  167.1182

 eigenvalue-minimisations  : 56464
 total energy-change (2. order) : 0.1053833E+01  (-0.1761355E+00)
 number of electron     432.0000019 magnetization      20.7543945
 augmentation part      185.5701966 magnetization      16.2667219

 Broyden mixing:
  rms(total) = 0.16683E+01    rms(broyden)= 0.16681E+01
  rms(prec ) = 0.25414E+01
  weight for this iteration     100.00

 eigenvalues of (default mixing * dielectric matrix)
  average eigenvalue GAMMA=   0.3806
  1.6544  0.8311  0.5038  0.5038  0.3381  0.1553  0.1154  0.1154  0.1251  0.0759
  0.0759  0.0732

 Free energy of the ion-electron system (eV)
  ---------------------------------------------------
  alpha Z        PSCENC =      1714.29250713
  Ewald energy   TEWEN  =    -34076.63228552
  -Hartree energ DENC   =     -9346.53837072
  -exchange      EXHF   =         0.00000000
  -V(xc)+E(xc)   XCENC  =      1624.21510967
  PAW double counting   =     43000.11534075   -44919.21189691
  entropy T*S    EENTRO =        -0.06683613
  eigenvalues    EBANDS =       969.02992819
  atomic energy  EATOM  =     40708.47505058
  Solvation  Ediel_sol  =         0.00000000
  ---------------------------------------------------
  free energy    TOTEN  =      -326.32145295 eV

  energy without entropy =     -326.25461682  energy(sigma->0) =     -326.28803489


--------------------------------------------------------------------------------------------------------




--------------------------------------- Iteration      1(  18)  ---------------------------------------


    POTLOK:  cpu time    0.1536: real time    0.1540
    SETDIJ:  cpu time    0.0243: real time    0.0243
     EDDAV:  cpu time  159.9404: real time  160.3193
    CHARGE:  cpu time    4.5889: real time    4.5998
    MIXING:  cpu time    0.0056: real time    0.0056
    --------------------------------------------
      LOOP:  cpu time  164.7128: real time  165.1030

 eigenvalue-minimisations  : 55600
 total energy-change (2. order) : 0.1107723E+00  (-0.1359718E+00)
 number of electron     432.0000019 magnetization      20.4454914
 augmentation part      185.3407031 magnetization      15.9316610

 Broyden mixing:
  rms(total) = 0.18117E+01    rms(broyden)= 0.18116E+01
  rms(prec ) = 0.28972E+01
  weight for this iteration     100.00

 eigenvalues of (default mixing * dielectric matrix)
  average eigenvalue GAMMA=   0.3622
  1.6485  0.8104  0.5225  0.5225  0.3220  0.1740  0.1740  0.1168  0.1168  0.0798
  0.0798  0.0759  0.0649

 Free energy of the ion-electron system (eV)
  ---------------------------------------------------
  alpha Z        PSCENC =      1714.29250713
  Ewald energy   TEWEN  =    -34076.63228552
  -Hartree energ DENC   =     -9348.33428889
  -exchange      EXHF   =         0.00000000
  -V(xc)+E(xc)   XCENC  =      1624.12090215
  PAW double counting   =     42964.01885796   -44880.05543452
  entropy T*S    EENTRO =        -0.07223300
  eigenvalues    EBANDS =       967.97624348
  atomic energy  EATOM  =     40708.47505058
  Solvation  Ediel_sol  =         0.00000000
  ---------------------------------------------------
  free energy    TOTEN  =      -326.21068064 eV

  energy without entropy =     -326.13844763  energy(sigma->0) =     -326.17456413


--------------------------------------------------------------------------------------------------------




--------------------------------------- Iteration      1(  19)  ---------------------------------------


    POTLOK:  cpu time    0.1492: real time    0.1495
    SETDIJ:  cpu time    0.0247: real time    0.0248
     EDDAV:  cpu time  159.3253: real time  159.7028
    CHARGE:  cpu time    4.5935: real time    4.6044
    MIXING:  cpu time    0.0051: real time    0.0051
    --------------------------------------------
      LOOP:  cpu time  164.0978: real time  164.4866

 eigenvalue-minimisations  : 55296
 total energy-change (2. order) : 0.3261863E+00  (-0.1364853E+00)
 number of electron     432.0000020 magnetization      20.1719757
 augmentation part      185.2580751 magnetization      15.5741877

 Broyden mixing:
  rms(total) = 0.13297E+01    rms(broyden)= 0.13296E+01
  rms(prec ) = 0.21012E+01
  weight for this iteration     100.00

 eigenvalues of (default mixing * dielectric matrix)
  average eigenvalue GAMMA=   0.3558
  1.6265  0.8052  0.5278  0.5278  0.3386  0.3386  0.1723  0.1198  0.1198  0.0929
  0.0929  0.0736  0.0736  0.0715

 Free energy of the ion-electron system (eV)
  ---------------------------------------------------
  alpha Z        PSCENC =      1714.29250713
  Ewald energy   TEWEN  =    -34076.63228552
  -Hartree energ DENC   =     -9349.39505538
  -exchange      EXHF   =         0.00000000
  -V(xc)+E(xc)   XCENC  =      1624.10160895
  PAW double counting   =     42972.22407094   -44886.96186904
  entropy T*S    EENTRO =        -0.06782873
  eigenvalues    EBANDS =       968.07930673
  atomic energy  EATOM  =     40708.47505058
  Solvation  Ediel_sol  =         0.00000000
  ---------------------------------------------------
  free energy    TOTEN  =      -325.88449433 eV

  energy without entropy =     -325.81666560  energy(sigma->0) =     -325.85057997


--------------------------------------------------------------------------------------------------------




--------------------------------------- Iteration      1(  20)  ---------------------------------------


    POTLOK:  cpu time    0.1521: real time    0.1524
    SETDIJ:  cpu time    0.0244: real time    0.0244
     EDDAV:  cpu time  163.9970: real time  164.3857
    CHARGE:  cpu time    4.5806: real time    4.5915
    MIXING:  cpu time    0.0058: real time    0.0058
    --------------------------------------------
      LOOP:  cpu time  168.7599: real time  169.1598

 eigenvalue-minimisations  : 57376
 total energy-change (2. order) : 0.1363088E+00  (-0.4135778E-01)
 number of electron     432.0000019 magnetization      19.6499202
 augmentation part      185.2172483 magnetization      15.1078737

 Broyden mixing:
  rms(total) = 0.11254E+01    rms(broyden)= 0.11253E+01
  rms(prec ) = 0.17075E+01
  weight for this iteration     100.00

 eigenvalues of (default mixing * dielectric matrix)
  average eigenvalue GAMMA=   0.3644
  1.6050  0.8251  0.6011  0.6011  0.4321  0.4321  0.1873  0.1493  0.1166  0.1166
  0.1050  0.0772  0.0772  0.0735  0.0673

 Free energy of the ion-electron system (eV)
  ---------------------------------------------------
  alpha Z        PSCENC =      1714.29250713
  Ewald energy   TEWEN  =    -34076.63228552
  -Hartree energ DENC   =     -9350.50923797
  -exchange      EXHF   =         0.00000000
  -V(xc)+E(xc)   XCENC  =      1624.12708046
  PAW double counting   =     42982.63649528   -44896.16742927
  entropy T*S    EENTRO =        -0.06744540
  eigenvalues    EBANDS =       968.09707917
  atomic energy  EATOM  =     40708.47505058
  Solvation  Ediel_sol  =         0.00000000
  ---------------------------------------------------
  free energy    TOTEN  =      -325.74818554 eV

  energy without entropy =     -325.68074014  energy(sigma->0) =     -325.71446284


--------------------------------------------------------------------------------------------------------




--------------------------------------- Iteration      1(  21)  ---------------------------------------


    POTLOK:  cpu time    0.1524: real time    0.1528
    SETDIJ:  cpu time    0.0246: real time    0.0246
     EDDAV:  cpu time  163.3239: real time  163.7109
    CHARGE:  cpu time    4.5621: real time    4.5729
    MIXING:  cpu time    0.0063: real time    0.0063
    --------------------------------------------
      LOOP:  cpu time  168.0692: real time  168.4675

 eigenvalue-minimisations  : 57120
 total energy-change (2. order) : 0.8738490E-01  (-0.3628722E-01)
 number of electron     432.0000019 magnetization      19.0704623
 augmentation part      185.1570628 magnetization      14.5919233

 Broyden mixing:
  rms(total) = 0.97674E+00    rms(broyden)= 0.97667E+00
  rms(prec ) = 0.14353E+01
  weight for this iteration     100.00

 eigenvalues of (default mixing * dielectric matrix)
  average eigenvalue GAMMA=   0.3993
  1.6431  0.8784  0.8784  0.8136  0.4666  0.4666  0.3347  0.1580  0.1296  0.1173
  0.1173  0.0785  0.0785  0.0852  0.0739  0.0684

 Free energy of the ion-electron system (eV)
  ---------------------------------------------------
  alpha Z        PSCENC =      1714.29250713
  Ewald energy   TEWEN  =    -34076.63228552
  -Hartree energ DENC   =     -9352.08553576
  -exchange      EXHF   =         0.00000000
  -V(xc)+E(xc)   XCENC  =      1624.20435444
  PAW double counting   =     43003.41093490   -44914.51473717
  entropy T*S    EENTRO =        -0.06763795
  eigenvalues    EBANDS =       967.25654872
  atomic energy  EATOM  =     40708.47505058
  Solvation  Ediel_sol  =         0.00000000
  ---------------------------------------------------
  free energy    TOTEN  =      -325.66080064 eV

  energy without entropy =     -325.59316268  energy(sigma->0) =     -325.62698166


--------------------------------------------------------------------------------------------------------




--------------------------------------- Iteration      1(  22)  ---------------------------------------


    POTLOK:  cpu time    0.1487: real time    0.1491
    SETDIJ:  cpu time    0.0249: real time    0.0250
     EDDAV:  cpu time  165.0038: real time  165.3948
    CHARGE:  cpu time    4.5683: real time    4.5791
    MIXING:  cpu time    0.0061: real time    0.0061
    --------------------------------------------
      LOOP:  cpu time  169.7518: real time  170.1540

 eigenvalue-minimisations  : 57808
 total energy-change (2. order) :-0.2128985E+00  (-0.4703202E-01)
 number of electron     432.0000019 magnetization      17.9162507
 augmentation part      185.1122078 magnetization      13.5802542

 Broyden mixing:
  rms(total) = 0.10972E+01    rms(broyden)= 0.10971E+01
  rms(prec ) = 0.16628E+01
  weight for this iteration     100.00

 eigenvalues of (default mixing * dielectric matrix)
  average eigenvalue GAMMA=   0.4136
  1.6983  1.0831  1.0831  0.8139  0.4835  0.4835  0.3744  0.1565  0.1405  0.1175
  0.1175  0.0921  0.0921  0.0773  0.0773  0.0732  0.0677

 Free energy of the ion-electron system (eV)
  ---------------------------------------------------
  alpha Z        PSCENC =      1714.29250713
  Ewald energy   TEWEN  =    -34076.63228552
  -Hartree energ DENC   =     -9353.25602889
  -exchange      EXHF   =         0.00000000
  -V(xc)+E(xc)   XCENC  =      1624.30896804
  PAW double counting   =     43038.16789424   -44947.43375758
  entropy T*S    EENTRO =        -0.06496052
  eigenvalues    EBANDS =       966.26891333
  atomic energy  EATOM  =     40708.47505058
  Solvation  Ediel_sol  =         0.00000000
  ---------------------------------------------------
  free energy    TOTEN  =      -325.87369918 eV

  energy without entropy =     -325.80873866  energy(sigma->0) =     -325.84121892


--------------------------------------------------------------------------------------------------------




--------------------------------------- Iteration      1(  23)  ---------------------------------------


    POTLOK:  cpu time    0.1533: real time    0.1537
    SETDIJ:  cpu time    0.0244: real time    0.0244
     EDDAV:  cpu time  163.2601: real time  163.6470
    CHARGE:  cpu time    4.5510: real time    4.5618
    MIXING:  cpu time    0.0066: real time    0.0066
    --------------------------------------------
      LOOP:  cpu time  167.9954: real time  168.3935

 eigenvalue-minimisations  : 57088
 total energy-change (2. order) : 0.2028454E-01  (-0.4068316E-01)
 number of electron     432.0000019 magnetization      17.4574493
 augmentation part      185.0749467 magnetization      13.2772901

[...]
  in kB      -26.7160488    -28.5495826    -29.3846395     -7.7508566      0.3253297     23.2550785
  external PRESSURE =     -28.2167569 kB  Pullay stress =       0.0000000 kB


 VOLUME and BASIS-vectors are now :
 -----------------------------------------------------------------------------
  energy-cutoff  :      500.00
  volume of cell :      504.57
      direct lattice vectors                 reciprocal lattice vectors
     8.940480500  0.000000000  0.000000000     0.111850812  0.064577096  0.000000000
    -4.470240250  7.742683240  0.000000000     0.000000000  0.129154192  0.000000000
     0.000000000  0.000000000  7.289051750     0.000000000  0.000000000  0.137192057

  length of vectors
     8.940480500  8.940480504  7.289051750     0.129154192  0.129154192  0.137192057


 FORCES acting on ions
    electron-ion (+dipol)            ewald-force                    non-local-force                 convergence-correction
 -----------------------------------------------------------------------------------------------
   -.227E+02 0.186E+03 0.141E+03   0.238E+02 -.186E+03 -.141E+03   -.751E+00 -.638E+00 -.980E+00   0.562E-01 -.101E+00 0.177E-01
   -.651E+02 0.236E+03 0.419E+02   0.637E+02 -.239E+03 -.395E+02   0.222E+01 0.224E+01 -.245E+01   0.103E+00 0.166E-01 -.168E+00
   0.137E+03 0.237E+03 -.206E+02   -.138E+03 -.239E+03 0.226E+02   -.768E+00 0.125E+00 -.268E+01   -.241E-01 -.769E-01 0.901E-02
   0.166E+03 -.238E+02 0.672E+02   -.166E+03 0.237E+02 -.667E+02   -.146E+01 0.628E+00 -.129E+01   -.732E-01 0.450E-02 0.792E-01
   0.224E+03 0.187E+01 0.340E+02   -.229E+03 -.158E+01 -.334E+02   0.178E+01 -.699E-01 -.790E+00   0.671E-01 -.275E-01 -.157E+00
   0.293E+02 -.411E+02 -.104E+02   -.302E+02 0.412E+02 0.103E+02   0.357E+00 0.155E+00 -.441E+00   -.217E+00 0.372E-01 0.295E-01
   0.105E+03 -.239E+02 0.451E+02   -.103E+03 0.262E+02 -.426E+02   -.274E+01 -.224E+01 -.292E+01   -.918E-01 0.524E-01 -.544E-02
   0.126E+03 -.833E+02 -.966E+02   -.127E+03 0.838E+02 0.965E+02   0.294E+00 0.877E-02 0.169E+01   -.578E-01 0.805E-01 -.193E+00
   0.120E+03 -.170E+03 0.277E+02   -.121E+03 0.168E+03 -.289E+02   -.163E+01 0.339E+01 -.421E+00   -.689E-01 -.830E-01 0.124E+00
   0.148E+03 0.149E+03 -.379E+01   -.147E+03 -.147E+03 0.343E+01   -.165E+01 -.294E+01 0.716E+00   0.211E-01 -.161E-01 0.123E+00
   -.123E+02 0.173E+03 -.119E+03   0.120E+02 -.175E+03 0.121E+03   0.105E+01 -.325E+00 0.847E+00   0.512E-01 0.789E-01 -.146E+00
   -.394E+02 0.240E+03 -.576E+02   0.415E+02 -.243E+03 0.592E+02   -.150E+01 -.258E+00 -.117E+01   0.143E+00 0.738E-01 0.549E-01
   -.259E+02 0.712E+02 0.277E+02   0.263E+02 -.720E+02 -.312E+02   -.243E+00 0.509E+00 0.260E+01   0.247E+00 0.331E-03 0.127E+00
   -.933E+02 0.306E+02 0.162E+03   0.967E+02 -.315E+02 -.165E+03   -.287E+01 0.266E+00 0.385E+00   0.163E+00 -.864E-03 -.135E+00
   0.149E+03 -.113E+03 -.220E+03   -.154E+03 0.114E+03 0.225E+03   0.102E+01 -.153E+01 -.713E+00   0.271E+00 0.115E-01 -.297E-01
   0.129E+03 -.429E+02 0.196E+03   -.129E+03 0.439E+02 -.197E+03   -.895E+00 -.812E+00 -.686E+00   0.232E-01 0.106E+00 0.718E-01
   -.318E+02 -.208E+03 -.715E+02   0.304E+02 0.212E+03 0.728E+02   0.112E+01 -.185E+01 0.446E+00   0.132E+00 0.825E-01 -.138E+00
   0.172E+02 -.732E+02 0.444E+02   -.152E+02 0.731E+02 -.456E+02   -.249E+01 0.105E+01 -.406E+00   -.477E-01 0.164E+00 0.880E-01
   -.939E+02 0.319E+02 0.992E+02   0.946E+02 -.320E+02 -.100E+03   -.236E+00 -.493E+00 0.144E+00   -.109E+00 0.246E-01 0.107E+00
   -.980E+02 0.730E+02 -.460E+02   0.975E+02 -.743E+02 0.499E+02   0.295E+01 0.211E+00 -.240E+01   -.161E+00 -.367E-01 -.204E-01
   0.794E-01 0.112E+03 0.248E+02   0.150E+01 -.114E+03 -.239E+02   -.235E+01 -.196E+00 -.253E+01   -.109E+00 -.627E-02 -.322E-01
   -.126E+03 -.666E+01 0.548E+02   0.125E+03 0.876E+01 -.566E+02   0.124E+01 -.245E+01 0.708E+00   -.911E-01 -.159E-01 0.890E-01
   -.108E+03 -.867E+02 0.421E+02   0.109E+03 0.883E+02 -.408E+02   -.376E+00 -.897E+00 -.112E+01   -.161E+00 -.477E-01 -.150E-01
   -.128E+03 -.120E+02 -.769E+02   0.133E+03 0.116E+02 0.787E+02   -.308E+01 -.174E+01 -.230E+01   0.429E-02 0.237E-01 0.111E-01
   -.962E+02 -.149E+03 0.105E+03   0.983E+02 0.150E+03 -.104E+03   -.178E+01 -.154E+00 -.806E+00   0.840E-01 -.629E-01 0.455E-01
   -.137E+03 -.106E+03 0.334E+02   0.139E+03 0.109E+03 -.358E+02   -.821E+00 -.228E+01 0.212E+01   -.648E-01 -.137E+00 -.248E-01
   0.437E+01 -.276E+03 -.887E+02   -.382E+01 0.279E+03 0.904E+02   -.202E+01 0.337E+00 -.159E+01   0.751E-01 -.620E-01 0.107E-01
   0.323E+01 0.482E+02 -.620E+02   -.661E+01 -.496E+02 0.671E+02   0.321E+01 0.146E+01 -.491E+01   -.584E-01 -.919E-01 -.224E-01
   0.183E+02 0.158E+03 -.123E+02   -.163E+02 -.163E+03 0.117E+02   -.183E+01 0.471E+01 0.122E+01   0.254E+00 -.929E-01 0.191E+00
   0.313E+02 0.534E+02 -.782E+01   -.328E+02 -.530E+02 0.138E+02   0.182E+01 -.575E+00 -.540E+01   0.634E-01 0.336E-01 -.542E-02
   0.298E+02 0.602E+01 0.101E+01   -.305E+02 -.581E+01 -.179E+01   0.120E+01 0.491E-01 0.107E+01   -.180E+00 -.281E-01 -.736E-01
   0.242E+02 -.809E+02 -.751E+02   -.168E+02 0.897E+02 0.790E+02   -.779E+01 -.803E+01 -.355E+01   0.755E-01 0.369E-01 0.190E+00
   0.446E+02 0.537E+02 -.283E+01   -.432E+02 -.610E+02 0.729E+01   -.111E+01 0.633E+01 -.483E+01   -.700E-01 0.157E-01 -.187E-01
   -.425E+02 -.409E+02 0.786E+02   0.435E+02 0.379E+02 -.810E+02   -.936E+00 0.249E+01 0.106E+01   -.109E+00 -.548E-01 -.831E-02
   -.330E+02 -.199E+02 -.930E+02   0.402E+02 0.182E+02 0.102E+03   -.528E+01 0.781E+00 -.710E+01   -.609E-01 0.131E+00 0.153E+00
   0.341E+02 -.725E+02 0.150E+02   -.356E+02 0.772E+02 -.133E+02   0.793E+00 -.401E+01 -.185E+01   0.817E-01 0.227E-01 -.904E-01
   0.114E+02 0.566E+02 0.148E+02   -.886E+01 -.564E+02 -.173E+02   -.286E+01 -.233E+00 0.273E+01   0.211E-01 0.567E-01 -.667E-01
   -.518E+02 0.162E+02 0.504E+02   0.557E+02 -.115E+02 -.571E+02   -.324E+01 -.452E+01 0.642E+01   -.966E-01 -.349E-01 0.202E+00
   0.106E+03 0.386E+02 0.276E+02   -.117E+03 -.358E+02 -.299E+02   0.807E+01 -.190E+01 0.962E+00   0.196E-01 -.608E-01 -.109E+00
   0.296E+02 0.124E+03 -.540E+01   -.302E+02 -.131E+03 0.679E+01   0.643E+00 0.532E+01 -.173E+01   0.159E+00 0.333E-01 -.124E+00
   0.702E+01 -.353E+02 -.792E+02   -.109E+02 0.381E+02 0.818E+02   0.388E+01 -.173E+01 -.174E+01   0.498E-01 0.565E-01 0.129E+00
   -.340E+02 0.295E+02 0.619E+02   0.384E+02 -.347E+02 -.619E+02   -.327E+01 0.384E+01 -.305E+00   0.165E+00 0.166E-01 -.805E-01
   0.102E+03 -.668E+02 -.531E+02   -.106E+03 0.673E+02 0.571E+02   0.398E+01 -.516E+00 -.411E+01   0.305E-01 0.402E-01 -.747E-01
   -.372E+02 -.270E+02 -.488E+02   0.416E+02 0.230E+02 0.516E+02   -.366E+01 0.385E+01 -.197E+01   0.138E+00 0.356E-02 0.134E+00
   0.403E+02 -.450E+02 0.566E+00   -.406E+02 0.505E+02 0.230E+01   0.214E+00 -.533E+01 -.342E+01   -.822E-01 0.145E+00 -.143E+00
   0.314E+02 0.367E+02 -.609E+02   -.371E+02 -.414E+02 0.636E+02   0.554E+01 0.462E+01 -.173E+01   0.228E-01 0.583E-01 -.412E-01
   -.648E+02 0.948E+02 -.182E+02   0.717E+02 -.102E+03 0.170E+02   -.632E+01 0.693E+01 0.218E+01   -.148E+00 -.678E-01 -.100E-01
   -.526E+02 -.580E+02 0.104E+03   0.549E+02 0.643E+02 -.113E+03   -.240E+01 -.465E+01 0.732E+01   -.105E+00 -.262E-01 0.380E-01
   -.949E+02 0.612E+02 -.258E+02   0.998E+02 -.637E+02 0.292E+02   -.438E+01 0.278E+01 -.297E+01   0.321E-01 0.596E-01 -.744E-01
   -.499E+02 -.329E+02 -.105E+03   0.497E+02 0.385E+02 0.109E+03   0.237E-01 -.468E+01 -.269E+01   -.106E+00 -.579E-02 -.231E-01
   -.791E+02 -.800E+02 0.405E+02   0.820E+02 0.834E+02 -.398E+02   -.274E+01 -.299E+01 -.259E+00   -.867E-01 -.280E-01 -.149E-01
   -.633E+02 -.140E+03 0.677E+02   0.689E+02 0.147E+03 -.774E+02   -.274E+01 -.469E+01 0.724E+01   0.113E+00 -.206E-01 -.108E-01
   -.858E+02 -.148E+03 -.177E+03   0.949E+02 0.156E+03 0.188E+03   -.817E+01 -.622E+01 -.896E+01   -.509E-01 -.909E-01 0.146E-01
   -.612E+02 -.364E+02 0.712E+02   0.616E+02 0.387E+02 -.734E+02   -.668E-01 -.230E+01 0.208E+01   -.822E-01 -.869E-01 -.160E-01
 -----------------------------------------------------------------------------------------------
   0.429E+02 0.191E+02 0.413E+02   -.782E-12 0.156E-12 -.341E-12   -.431E+02 -.192E+02 -.413E+02   0.154E+00 0.102E+00 -.334E-01
 
 
 POSITION                                       TOTAL-FORCE (eV/Angst)
 -----------------------------------------------------------------------------------
      8.89873      0.07060      0.19160         0.418642     -0.899015     -0.809840
      1.23955      0.91121      2.41711         0.865707     -0.981547     -0.263308
      0.07667      1.76681      4.82175        -1.526537     -2.047847     -0.625191
     -1.24308      2.49813      7.26421        -1.091839      0.547615     -0.695308
      0.17138      3.32987      2.50515        -2.528391      0.195750     -0.391986
     -1.41944      4.10704      4.95270        -0.759336      0.330825     -0.592028
     -2.85205      4.99507      7.24264        -0.784921      0.114752     -0.416421
     -1.41196      5.93268      2.19573        -0.565544      0.578830      1.385230
     -2.76926      6.58820      4.71513        -2.342825      2.000173     -1.460428
      2.97853      0.08279      7.12975        -0.829484     -0.878593      0.475307
      4.31045      1.09442      2.20180         0.829388     -2.925294      2.936486
      2.85960      1.79656      4.74017         0.742901     -2.633281      0.470137
      1.33090      2.61036      0.02326         0.475097     -0.292098     -0.716868
      2.84304      3.39041      2.52838         0.706409     -0.558223     -1.885637
      1.60423      4.24272      4.39033        -3.804004     -0.487110      4.191794
      0.12965      5.13498      0.18909        -0.845796      0.289226     -1.693796
      1.42201      5.85830      2.13932        -0.114947      2.143779      1.577012
     -0.05599      6.73424      4.91201        -0.540305      1.122027     -1.587104
      5.84358      0.11009      7.20081         0.333491     -0.519399     -0.619056
      7.15020      0.86328      2.29931         2.271759     -1.067111      1.508624
      5.98939      1.74630      4.85571        -0.881629     -1.477951     -1.619350
      4.30110      2.59752      7.27648         0.433584     -0.364974     -0.993888
      5.78219      3.36705      2.39728         1.073019      0.648963      0.121581
      4.25937      4.24641      4.78818         1.782668     -2.139598     -0.480714
      2.85006      4.95712      0.00315         0.375845      0.703525     -0.485430
      4.27305      5.88256      2.36732         1.126000      0.608630     -0.267614
      2.97492      6.55550      4.76795        -1.401305      3.286559      0.046562
      4.37552      7.72978      3.49255        -0.224774     -0.027540      0.110008
      1.30988      0.90453      6.02453         0.459985     -0.340760      0.819677
     -0.11444      1.71730      1.22789         0.392312     -0.112746      0.519369
      7.45815      2.54224      3.49374         0.288533      0.237055      0.217095
      0.16379      3.35142      5.74234        -0.288834      0.823953      0.522122
     -1.53162      4.27993      1.18081         0.241471     -1.023298     -0.392561
      5.93627      4.91525      3.82250        -0.072147     -0.532561     -1.316007
     -1.70088      5.88249      5.88527         1.809595     -0.806810      1.905851
     -3.02200      6.48219      1.19368        -0.593562      0.756226     -0.217436
      3.00621      0.02208      3.54947        -0.304006      0.046400      0.169658
      4.25743      0.80945      5.96348         0.507818      0.153260     -0.053372
      2.99225      1.56907      1.14396        -2.197282      0.885896     -1.431937
      1.47153      2.51414      3.63875         0.172799     -1.094569     -0.469767
      2.85534      3.23312      5.94942         0.064277      1.166958      0.933039
      1.34540      4.22098      1.25209         1.253130     -1.339748     -0.401566
      0.02535      5.22405      3.46459        -0.172435      0.091131     -0.226130
      1.29287      5.92818      5.88206         0.884622     -0.151579      0.949737
     -0.01118      6.93437      1.12767        -0.185139      0.271781     -0.698076
      5.92584      0.01830      3.52139        -0.105881     -0.017330      0.884773
      7.27796      0.85656      5.85367         0.407062     -0.153405      1.002713
      5.83821      1.59290      1.31088        -0.189030      1.620210     -1.659372
      4.31828      2.55427      3.61607         0.552238      0.326521      0.323673
      5.70159      3.27481      5.78663        -0.192372      0.917678      1.437303
      4.29617      4.14161      1.16317         0.015388      0.358157      0.413956
      2.90427      5.05041      3.67348         2.907310      1.808367     -2.475417
      4.35303      5.79975      5.66551         0.839560      0.926172      2.253951
      2.85737      6.79155      1.12210         0.311715     -0.088030     -0.230050
 -----------------------------------------------------------------------------------
    total drift:                               -0.000032     -0.006002      0.002604


--------------------------------------------------------------------------------------------------------



  FREE ENERGIE OF THE ION-ELECTRON SYSTEM (eV)
  ---------------------------------------------------
  free  energy   TOTEN  =      -326.2257215646 eV

  energy  without entropy=     -326.1723686049  energy(sigma->0) =     -326.19904508
 


--------------------------------------------------------------------------------------------------------


    POTLOK:  cpu time    0.1688: real time    0.1692


--------------------------------------------------------------------------------------------------------


     LOOP+:  cpu time12558.5402: real time12589.1409
    4ORBIT:  cpu time    0.0000: real time    0.0000

volume of typ            1:    34.1 %

volume of typ            2:     8.7 %
 
total charge     
 
# of ion       s       p       d       tot
------------------------------------------
    1        0.177   0.165   7.978   8.320
    2        0.193   0.195   7.973   8.361
    3        0.220   0.243   7.958   8.421
    4        0.185   0.177   8.010   8.372
    5        0.205   0.229   8.023   8.457
    6        0.201   0.207   7.939   8.348
    7        0.202   0.204   7.934   8.341
    8        0.204   0.215   7.924   8.343
    9        0.227   0.242   7.943   8.413
   10        0.197   0.194   7.968   8.359
   11        0.241   0.276   7.957   8.473
   12        0.217   0.247   7.954   8.419
   13        0.186   0.192   7.996   8.374
   14        0.197   0.217   8.034   8.448
   15        0.245   0.296   8.013   8.554
   16        0.199   0.208   8.003   8.409
   17        0.211   0.233   7.994   8.438
   18        0.204   0.213   7.930   8.347
   19        0.186   0.183   7.942   8.311
   20        0.223   0.245   7.938   8.406
   21        0.226   0.241   7.939   8.406
   22        0.198   0.205   7.951   8.354
   23        0.183   0.185   7.957   8.326
   24        0.243   0.294   7.940   8.478
   25        0.174   0.166   7.977   8.316
   26        0.180   0.177   7.946   8.303
   27        0.218   0.235   7.945   8.398
   28        1.269   2.718   0.004   3.991
   29        1.272   2.724   0.005   4.001
   30        1.259   2.784   0.011   4.053
   31        1.275   2.721   0.005   4.001
   32        1.269   2.756   0.008   4.034
   33        1.263   2.754   0.007   4.024
   34        1.274   2.730   0.006   4.010
   35        1.258   2.788   0.010   4.056
   36        1.262   2.741   0.005   4.008
   37        1.268   2.718   0.004   3.989
   38        1.271   2.741   0.007   4.019
   39        1.265   2.773   0.010   4.048
   40        1.263   2.809   0.014   4.086
   41        1.268   2.757   0.007   4.032
   42        1.257   2.804   0.013   4.073
   43        1.271   2.738   0.006   4.015
   44        1.269   2.738   0.006   4.013
   45        1.266   2.749   0.007   4.022
   46        1.276   2.703   0.004   3.984
   47        1.271   2.723   0.006   4.000
   48        1.262   2.789   0.011   4.062
   49        1.268   2.761   0.007   4.037
   50        1.270   2.748   0.007   4.025
   51        1.255   2.768   0.007   4.029
   52        1.257   2.838   0.016   4.111
   53        1.269   2.765   0.009   4.043
   54        1.259   2.751   0.006   4.016
--------------------------------------------------
tot          39.73   80.27  215.27  335.27
 
magnetization (x)
 
# of ion       s       p       d       tot
------------------------------------------
    1        0.004   0.005   1.125   1.134
    2        0.001   0.004   1.119   1.124
    3        0.004   0.007   0.626   0.637
    4       -0.002  -0.006  -0.974  -0.982
    5        0.002   0.006   0.071   0.080
    6        0.007   0.004   1.108   1.119
    7        0.003   0.011   1.240   1.253
    8        0.002   0.003   1.210   1.215
    9        0.006   0.015   1.023   1.044
   10        0.002   0.006   0.576   0.584
   11        0.002   0.008   0.819   0.828
   12        0.001   0.003  -0.961  -0.957
   13        0.004   0.002   0.684   0.690
   14        0.001   0.001  -0.894  -0.893
   15       -0.003  -0.004  -0.933  -0.940
   16        0.002   0.007   1.031   1.040
   17        0.005   0.005   0.782   0.792
   18        0.005   0.005   0.947   0.956
   19        0.006   0.005   1.238   1.249
   20       -0.001  -0.000  -0.953  -0.954
   21        0.002   0.003   0.396   0.401
   22        0.005   0.005   1.222   1.232
   23        0.006   0.005   0.938   0.948
   24       -0.002   0.001  -0.742  -0.743
   25        0.003   0.002   1.185   1.190
   26        0.005   0.005   1.236   1.246
   27       -0.004  -0.006  -0.959  -0.969
   28        0.004   0.042   0.000   0.046
   29        0.003   0.052   0.000   0.055
   30        0.004   0.051  -0.000   0.056
   31        0.003   0.024   0.000   0.028
   32        0.004   0.065   0.000   0.069
   33        0.015   0.143   0.000   0.159
   34        0.008   0.103   0.000   0.111
   35        0.020   0.196   0.000   0.217
   36        0.017   0.198   0.000   0.216
   37        0.009   0.075   0.000   0.084
   38        0.008   0.100   0.000   0.109
   39        0.014   0.109   0.000   0.123
   40       -0.001   0.009   0.000   0.009
   41        0.001   0.022  -0.000   0.023
   42        0.011   0.102   0.000   0.113
   43        0.004   0.037   0.000   0.042
   44        0.004   0.051   0.000   0.055
   45        0.018   0.188   0.000   0.207
   46        0.000  -0.005   0.000  -0.005
   47        0.005   0.052   0.000   0.057
   48        0.009   0.057   0.000   0.066
   49       -0.002  -0.005  -0.000  -0.008
   50        0.005   0.100   0.000   0.105
   51        0.016   0.123   0.000   0.139
   52       -0.007  -0.079  -0.000  -0.086
   53        0.001   0.023  -0.000   0.023
   54        0.014   0.125   0.000   0.139
--------------------------------------------------
tot           0.25    2.06   12.16   14.48
 

 total amount of memory used by VASP MPI-rank0   408184. kBytes
=======================================================================

   base      :      30000. kBytes
   nonlr-proj:      41082. kBytes
   fftplans  :       5725. kBytes
   grid      :      32372. kBytes
   one-center:       1679. kBytes
   wavefun   :     297326. kBytes
 
  
  
 General timing and accounting informations for this job:
 ========================================================
  
                  Total CPU time used (sec):    12630.263
                            User time (sec):    12622.300
                          System time (sec):        7.963
                         Elapsed time (sec):    12664.653
  
                   Maximum memory used (kb):      508868.
                   Average memory used (kb):           0.
  
                          Minor page faults:        46155
                          Major page faults:           19
                 Voluntary context switches:         1191
