 vasp.5.4.4.18Apr17-6-g9f103f2a35 (build May 12 2020 04:58:55) complex          
  
 MD_VERSION_INFO: Compiled 2020-05-12T11:58:55-UTC in devlin.sd.materialsdesign.
 com:/home/medea2/data/build/wwolf/vasp-gpu5.4.4/13047/x86_64/src/src/build/std 
 from svn 13047
 
 This VASP executable licensed from Materials Design, Inc.
 
 executed on                        Lin64 date 2023.03.24  15:23:22
 running on   16 total cores
 distrk:  each k-point on   16 cores,    1 groups
 distr:  one band on NCORES_PER_BAND=   1 cores,   16 groups


--------------------------------------------------------------------------------------------------------


 INCAR:
 POTCAR:    PAW_PBE Ni 02Aug2007                  
 POTCAR:    PAW_PBE O 08Apr2002                   

 ----------------------------------------------------------------------------- 
|                                                                             |
|           W    W    AA    RRRRR   N    N  II  N    N   GGGG   !!!           |
|           W    W   A  A   R    R  NN   N  II  NN   N  G    G  !!!           |
|           W    W  A    A  R    R  N N  N  II  N N  N  G       !!!           |
|           W WW W  AAAAAA  RRRRR   N  N N  II  N  N N  G  GGG   !            |
|           WW  WW  A    A  R   R   N   NN  II  N   NN  G    G                |
|           W    W  A    A  R    R  N    N  II  N    N   GGGG   !!!           |
|                                                                             |
|      For optimal performance we recommend to set                            |
|        NCORE= 4 - approx SQRT( number of cores)                             |
|      NCORE specifies how many cores store one orbital (NPAR=cpu/NCORE).     |
|      This setting can  greatly improve the performance of VASP for DFT.     |
|      The default,   NCORE=1            might be grossly inefficient         |
|      on modern multi-core architectures or massively parallel machines.     |
|      Do your own testing !!!!                                               |
|      Unfortunately you need to use the default for GW and RPA calculations. |
|      (for HF NCORE is supported but not extensively tested yet)             |
|                                                                             |
 ----------------------------------------------------------------------------- 

 POTCAR:    PAW_PBE Ni 02Aug2007                  
  local pseudopotential read in
  partial core-charges read in
  partial kinetic energy density read in
  atomic valenz-charges read in
  non local Contribution for L=           2  read in
    real space projection operators read in
  non local Contribution for L=           2  read in
    real space projection operators read in
  non local Contribution for L=           0  read in
    real space projection operators read in
  non local Contribution for L=           0  read in
    real space projection operators read in
  non local Contribution for L=           1  read in
    real space projection operators read in
  non local Contribution for L=           1  read in
    real space projection operators read in
    PAW grid and wavefunctions read in
 
   number of l-projection  operators is LMAX  =           6
   number of lm-projection operators is LMMAX =          18
 
 POTCAR:    PAW_PBE O 08Apr2002                   
  local pseudopotential read in
  partial core-charges read in
  partial kinetic energy density read in
  kinetic energy density of atom read in
  atomic valenz-charges read in
  non local Contribution for L=           0  read in
    real space projection operators read in
  non local Contribution for L=           0  read in
    real space projection operators read in
  non local Contribution for L=           1  read in
    real space projection operators read in
  non local Contribution for L=           1  read in
    real space projection operators read in
    PAW grid and wavefunctions read in
 
   number of l-projection  operators is LMAX  =           4
   number of lm-projection operators is LMMAX =           8
 
 Optimization of the real space projectors (new method)

 maximal supplied QI-value         = 16.25
 optimisation between [QCUT,QGAM] = [ 11.38, 22.75] = [ 36.24,144.96] Ry 
 Optimized for a Real-space Cutoff    1.47 Angstroem

   l    n(q)    QCUT    max X(q) W(low)/X(q) W(high)/X(q)  e(spline) 
   2      9    11.376    60.317    0.17E-03    0.16E-04    0.16E-06
   2      9    11.376    55.921    0.17E-03    0.16E-04    0.17E-06
   0     10    11.376    51.690    0.45E-04    0.60E-04    0.21E-06
   0     10    11.376    30.015    0.37E-04    0.55E-04    0.19E-06
   1     10    11.376    18.849    0.83E-04    0.11E-03    0.92E-07
   1     10    11.376    14.624    0.69E-04    0.92E-04    0.82E-07
 Optimization of the real space projectors (new method)

 maximal supplied QI-value         = 24.76
 optimisation between [QCUT,QGAM] = [ 11.39, 22.77] = [ 36.31,145.25] Ry 
 Optimized for a Real-space Cutoff    1.10 Angstroem

   l    n(q)    QCUT    max X(q) W(low)/X(q) W(high)/X(q)  e(spline) 
   0      7    11.387    20.381    0.22E-03    0.48E-03    0.18E-06
   0      7    11.387    15.268    0.22E-03    0.52E-03    0.19E-06
   1      7    11.387     5.964    0.22E-03    0.73E-03    0.24E-06
   1      7    11.387     5.382    0.19E-03    0.60E-03    0.21E-06

 ----------------------------------------------------------------------------- 
|                                                                             |
|  ADVICE TO THIS USER RUNNING 'VASP/VAMP'   (HEAR YOUR MASTER'S VOICE ...):  |
|                                                                             |
|      You enforced a specific xc-type in the INCAR file,                     |
|      a different type was found on the POTCAR file                          |
|          I HOPE YOU KNOW, WHAT YOU ARE  DOING                               |
|                                                                             |
 ----------------------------------------------------------------------------- 

  PAW_PBE Ni 02Aug2007                  :
 energy of atom  1       EATOM=-1077.6739
 kinetic energy error for atom=    0.0030 (will be added to EATOM!!)
  PAW_PBE O 08Apr2002                   :
 energy of atom  2       EATOM= -432.3788
 kinetic energy error for atom=    0.0224 (will be added to EATOM!!)
 
 
 POSCAR: NiO_C2_m_scale_0_975_disp_0_15_round_2  
  positions in direct lattice
  No initial velocities read in
 exchange correlation table for  LEXCH =       14
   RHO(1)=    0.500       N(1)  =     2000
   RHO(2)=  100.500       N(2)  =     4000
 


--------------------------------------------------------------------------------------------------------


 ion  position               nearest neighbor table
   1  0.028  0.002  0.004-  36 1.64  29 1.76  53 1.88  47 2.02  54 2.09  30 2.20   9 2.40  10 2.59
                             2 2.71  27 2.82   4 2.82   7 2.82  19 2.84  26 2.85  13 2.85  20 2.86
   2  0.206  0.073  0.345-  36 1.74  39 1.79  28 1.82  37 2.03  30 2.15  40 2.17  26 2.30   8 2.44
                            10 2.48   1 2.71  12 2.82  20 2.89   9 2.93  11 2.96   3 3.05
   3  0.090  0.232  0.672-  31 1.75  47 1.94  28 2.09  29 2.11  40 2.14  32 2.18   4 2.51  27 2.60
                            21 2.61   6 2.69  15 2.78   5 2.78   1 2.90  20 2.90  13 2.97   9 2.98
   4  0.977  0.303  0.975-  47 1.71  32 1.80  48 1.85  50 1.94  30 2.21  33 2.32   3 2.51  19 2.52
                            22 2.60   6 2.61   1 2.82  23 2.86  21 2.89   7 2.93  20 2.94
   5  0.253  0.476  0.370-  43 1.78  40 1.86  31 2.01  30 2.12  42 2.28  33 2.30  15 2.45  23 2.64
                            17 2.73   3 2.78  14 2.83   8 2.87   6 2.90  16 3.05
   6  0.094  0.550  0.704-  50 1.67  35 1.80  32 1.96  31 2.03  43 2.07  34 2.16   7 2.54   4 2.61
                             3 2.69  24 2.72  21 2.74  16 2.77  23 2.85   9 2.87   5 2.90  15 2.92
   7  0.976  0.647  0.989-  50 1.47  51 1.56  53 1.90  33 1.95  35 2.18  36 2.30  22 2.48   6 2.54
                             9 2.59  24 2.64   1 2.82   4 2.93  26 2.93  25 2.96  10 2.97   8 2.97
   8  0.215  0.791  0.333-  43 1.86  45 2.02  33 2.05  36 2.12  34 2.12  37 2.16  26 2.38  10 2.40
                             2 2.44  11 2.77   5 2.87  23 2.88  16 2.92   7 2.97  18 3.06
   9  0.104  0.891  0.720-  53 1.35  34 1.79  35 1.81  29 1.96  28 2.01  37 2.03   1 2.40  12 2.55
                             7 2.59  27 2.68  24 2.72  26 2.82  10 2.85   6 2.87   2 2.93   3 2.98
  10  0.323  0.989  0.058-  45 1.59  39 1.87  36 1.96  38 2.12  29 2.31  35 2.35   8 2.40   2 2.48
                             1 2.59  16 2.68  11 2.71  13 2.83   9 2.85  12 2.93   7 2.97
  11  0.562  0.089  0.355-  45 1.71  46 1.98  48 2.20  37 2.21  39 2.27  21 2.44  49 2.52  18 2.61
                            20 2.66  17 2.67  10 2.71   8 2.77  12 2.90  23 2.94  19 2.94   2 2.96
  12  0.414  0.178  0.687-  37 1.61  29 1.89  41 2.18  38 2.22  40 2.22   9 2.55  13 2.60  18 2.67
                             2 2.82  11 2.90  10 2.93  22 3.00   3 3.01  21 3.02  15 3.02
  13  0.365  0.335  0.983-  41 1.54  29 1.83  42 1.95  39 2.01  32 2.18  30 2.23  12 2.60  25 2.60
                            15 2.69  22 2.77  10 2.83   1 2.85  14 2.95   3 2.97
  14  0.577  0.461  0.344-  49 1.97  42 2.05  40 2.12  39 2.17  52 2.20  51 2.31  24 2.72  17 2.76
                            15 2.80   5 2.83  22 2.95  13 2.95  26 2.99  25 3.09
  15  0.432  0.541  0.666-  40 1.94  52 2.15  41 2.27  32 2.27  43 2.30  44 2.40   5 2.45  25 2.53
                            13 2.69   3 2.78  14 2.80  16 2.87  18 2.89  24 2.91   6 2.92  12 3.02
  16  0.351  0.693  0.995-  44 1.91  32 1.96  35 2.05  42 2.14  45 2.19  33 2.25  25 2.58  10 2.68
                            18 2.71  19 2.76   6 2.77  17 2.80  15 2.87   8 2.92   7 3.01   5 3.05
  17  0.580  0.786  0.317-  52 1.77  54 1.88  46 2.09  42 2.10  45 2.29  43 2.45  20 2.50  11 2.67
                            19 2.69   5 2.73  14 2.76  16 2.80  25 2.83  18 2.95  27 2.99  26 3.01
  18  0.477  0.901  0.674-  46 1.68  44 1.89  37 2.03  38 2.07  35 2.12  43 2.14  11 2.61  12 2.67
                            16 2.71  27 2.71  21 2.76  19 2.77  15 2.89  17 2.95   8 3.06
  19  0.692  0.998  0.002-  48 1.69  44 1.71  54 1.76  47 1.80  38 1.86  45 2.25   4 2.52  20 2.61
                            25 2.66  27 2.66  17 2.69  16 2.76  18 2.77   1 2.84  11 2.94  22 2.95
  20  0.871  0.082  0.327-  54 1.77  48 1.91  46 2.10  28 2.16  30 2.17  31 2.31  17 2.50  19 2.61
                            21 2.63  11 2.66  23 2.70  26 2.74  27 2.75   1 2.86   2 2.89   3 2.90
  21  0.787  0.232  0.611-  31 1.82  49 1.87  46 1.91  23 2.36  47 2.43  11 2.44   3 2.61  20 2.63
                             6 2.74  18 2.76  27 2.82   4 2.89  24 2.92  12 3.02  22 3.08
  22  0.695  0.346  0.997-  51 1.85  41 1.87  50 1.96  38 1.99  48 2.10   7 2.48   4 2.60  13 2.77
                            24 2.85  23 2.91  19 2.95  14 2.95  25 3.00  12 3.00  21 3.08
  23  0.919  0.421  0.341-  31 1.76  33 1.81  49 2.09  51 2.13  48 2.22  21 2.36   5 2.64  20 2.70
                             6 2.85   4 2.86   8 2.88  22 2.91  11 2.94   7 2.99  24 3.07
  24  0.788  0.573  0.665-  49 1.66  34 1.85  53 2.11  50 2.20  52 2.20  41 2.31   7 2.64  25 2.71
                             6 2.72  14 2.72   9 2.72  26 2.75  27 2.83  22 2.85  15 2.91  21 2.92
  25  0.637  0.664  0.958-  44 1.72  42 1.77  41 1.93  54 2.25  53 2.48  15 2.53  16 2.58  13 2.60
                            19 2.66  27 2.68  24 2.71  17 2.83   7 2.96  22 3.00  14 3.09
  26  0.939  0.800  0.354-  36 1.66  34 1.76  28 1.83  52 2.26   2 2.30  51 2.33  54 2.34   8 2.38
                            20 2.74  24 2.75   9 2.82   1 2.85  27 2.91   7 2.93  14 2.99  17 3.01
  27  0.801  0.911  0.678-  46 1.84  47 1.85  52 1.90  28 1.97  44 2.08  53 2.11   3 2.60  19 2.66
                            25 2.68   9 2.68  18 2.71  20 2.75   1 2.82  21 2.82  24 2.83  26 2.91
  28  0.017  0.996  0.513-   2 1.82  26 1.83  27 1.97   9 2.01   3 2.09  20 2.16
  29  0.215  0.127  0.851-   1 1.76  13 1.83  12 1.89   9 1.96   3 2.11  10 2.31
  30  0.133  0.244  0.188-   5 2.12   2 2.15  20 2.17   1 2.20   4 2.21  13 2.23
  31  0.016  0.342  0.513-   3 1.75  23 1.76  21 1.82   5 2.01   6 2.03  20 2.31
  32  0.202  0.452  0.883-   4 1.80  16 1.96   6 1.96  13 2.18   3 2.18  15 2.27
  33  0.093  0.560  0.168-  23 1.81   7 1.95   8 2.05  16 2.25   5 2.30   4 2.32
  34  0.009  0.714  0.544-  26 1.76   9 1.79  24 1.85   8 2.12   6 2.16
  35  0.218  0.774  0.808-   6 1.80   9 1.81  16 2.05  18 2.12   7 2.18  10 2.35
  36  0.084  0.906  0.174-   1 1.64  26 1.66   2 1.74  10 1.96   8 2.12   7 2.30
  37  0.328  0.000  0.551-  12 1.61   9 2.03  18 2.03   2 2.03   8 2.16  11 2.21
  38  0.562  0.096  0.889-  19 1.86  22 1.99  18 2.07  10 2.12  12 2.22
  39  0.405  0.203  0.200-   2 1.79  10 1.87  13 2.01  14 2.17  11 2.27
  40  0.328  0.331  0.496-   5 1.86  15 1.94  14 2.12   3 2.14   2 2.17  12 2.22
  41  0.546  0.417  0.872-  13 1.54  22 1.87  25 1.93  12 2.18  15 2.27  24 2.31
  42  0.471  0.556  0.139-  25 1.77  13 1.95  14 2.05  17 2.10  16 2.14   5 2.28
  43  0.297  0.676  0.499-   5 1.78   8 1.86   6 2.07  18 2.14  15 2.30  17 2.45
  44  0.576  0.811  0.859-  19 1.71  25 1.72  18 1.89  16 1.91  27 2.08  15 2.40
  45  0.446  0.933  0.179-  10 1.59  11 1.71   8 2.02  16 2.19  19 2.25  17 2.29
  46  0.663  0.982  0.535-  18 1.68  27 1.84  21 1.91  11 1.98  17 2.09  20 2.10
  47  0.894  0.101  0.854-   4 1.71  19 1.80  27 1.85   3 1.94   1 2.02  21 2.43
  48  0.783  0.186  0.142-  19 1.69   4 1.85  20 1.91  22 2.10  11 2.20  23 2.22
  49  0.712  0.392  0.524-  24 1.66  21 1.87  14 1.97  23 2.09  11 2.52
  50  0.930  0.487  0.868-   7 1.47   6 1.67   4 1.94  22 1.96  24 2.20
  51  0.826  0.552  0.147-   7 1.56  22 1.85  23 2.13  14 2.31  26 2.33
  52  0.673  0.715  0.504-  17 1.77  27 1.90  15 2.15  14 2.20  24 2.20  26 2.26
  53  0.950  0.812  0.825-   9 1.35   1 1.88   7 1.90  24 2.11  27 2.11  25 2.48
  54  0.786  0.903  0.157-  19 1.76  20 1.77  17 1.88   1 2.09  25 2.25  26 2.34
 
  LATTYP: Found a hexagonal cell.
 ALAT       =     8.5043595001
 C/A-ratio  =     0.8152863540
  
  Lattice vectors:
  
 A1 = (   8.5043595000,   0.0000000000,   0.0000000000)
 A2 = (  -4.2521797500,   7.3649913700,   0.0000000000)
 A3 = (   0.0000000000,   0.0000000000,   6.9334882500)


Analysis of symmetry for initial positions (statically):
=====================================================================
 Subroutine PRICEL returns:
 Original cell was already a primitive cell.
 

 Routine SETGRP: Setting up the symmetry group for a 
 hexagonal supercell.


 Subroutine GETGRP returns: Found  1 space group operations
 (whereof  1 operations were pure point group operations)
 out of a pool of 24 trial point group operations.


The static configuration has the point symmetry C_1 .


Analysis of symmetry for dynamics (positions and initial velocities):
=====================================================================
 Subroutine PRICEL returns:
 Original cell was already a primitive cell.
 

 Routine SETGRP: Setting up the symmetry group for a 
 hexagonal supercell.


 Subroutine GETGRP returns: Found  1 space group operations
 (whereof  1 operations were pure point group operations)
 out of a pool of 24 trial point group operations.


The dynamic configuration has the point symmetry C_1 .


Analysis of structural, dynamic, and magnetic symmetry:
=====================================================================
 Subroutine PRICEL returns:
 Original cell was already a primitive cell.
 

 Routine SETGRP: Setting up the symmetry group for a 
 hexagonal supercell.


 Subroutine GETGRP returns: Found  1 space group operations
 (whereof  1 operations were pure point group operations)
 out of a pool of 24 trial point group operations.


The magnetic configuration has the point symmetry C_1 .


 Subroutine INISYM returns: Found  1 space group operations
 (whereof  1 operations are pure point group operations),
 and found     1 'primitive' translations

 
 
 KPOINTS: Automatic mesh                          

Automatic generation of k-mesh.
Space group operators:
 irot       det(A)        alpha          n_x          n_y          n_z        tau_x        tau_y        tau_z
    1     1.000000     0.000000     1.000000     0.000000     0.000000     0.000000     0.000000     0.000000
 
 Subroutine IBZKPT returns following result:
 ===========================================
 
 Found     36 irreducible k-points:
 
 Following reciprocal coordinates:
            Coordinates               Weight
  0.000000  0.000000  0.000000      1.000000
  0.250000  0.000000  0.000000      2.000000
  0.500000  0.000000  0.000000      1.000000
  0.000000  0.250000  0.000000      2.000000
  0.250000  0.250000  0.000000      2.000000
  0.500000  0.250000  0.000000      2.000000
 -0.250000  0.250000  0.000000      2.000000
  0.000000  0.500000  0.000000      1.000000
  0.250000  0.500000  0.000000      2.000000
  0.500000  0.500000  0.000000      1.000000
  0.000000  0.000000  0.250000      2.000000
  0.250000  0.000000  0.250000      2.000000
  0.500000  0.000000  0.250000      2.000000
 -0.250000 -0.000000  0.250000      2.000000
  0.000000  0.250000  0.250000      2.000000
  0.250000  0.250000  0.250000      2.000000
  0.500000  0.250000  0.250000      2.000000
 -0.250000  0.250000  0.250000      2.000000
  0.000000  0.500000  0.250000      2.000000
  0.250000  0.500000  0.250000      2.000000
  0.500000  0.500000  0.250000      2.000000
 -0.250000  0.500000  0.250000      2.000000
  0.000000 -0.250000  0.250000      2.000000
  0.250000 -0.250000  0.250000      2.000000
  0.500000 -0.250000  0.250000      2.000000
 -0.250000 -0.250000  0.250000      2.000000
  0.000000  0.000000  0.500000      1.000000
  0.250000  0.000000  0.500000      2.000000
  0.500000  0.000000  0.500000      1.000000
  0.000000  0.250000  0.500000      2.000000
  0.250000  0.250000  0.500000      2.000000
  0.500000  0.250000  0.500000      2.000000
 -0.250000  0.250000  0.500000      2.000000
  0.000000  0.500000  0.500000      1.000000
  0.250000  0.500000  0.500000      2.000000
  0.500000  0.500000  0.500000      1.000000
 
 Following cartesian coordinates:
            Coordinates               Weight
  0.000000  0.000000  0.000000      1.000000
  0.029397  0.016972  0.000000      2.000000
  0.058793  0.033944  0.000000      1.000000
  0.000000  0.033944  0.000000      2.000000
  0.029397  0.050917  0.000000      2.000000
  0.058793  0.067889  0.000000      2.000000
 -0.029397  0.016972  0.000000      2.000000
  0.000000  0.067889  0.000000      1.000000
  0.029397  0.084861  0.000000      2.000000
  0.058793  0.101833  0.000000      1.000000
  0.000000  0.000000  0.036057      2.000000
  0.029397  0.016972  0.036057      2.000000
  0.058793  0.033944  0.036057      2.000000
 -0.029397 -0.016972  0.036057      2.000000
  0.000000  0.033944  0.036057      2.000000
  0.029397  0.050917  0.036057      2.000000
  0.058793  0.067889  0.036057      2.000000
 -0.029397  0.016972  0.036057      2.000000
  0.000000  0.067889  0.036057      2.000000
  0.029397  0.084861  0.036057      2.000000
  0.058793  0.101833  0.036057      2.000000
 -0.029397  0.050917  0.036057      2.000000
  0.000000 -0.033944  0.036057      2.000000
  0.029397 -0.016972  0.036057      2.000000
  0.058793  0.000000  0.036057      2.000000
 -0.029397 -0.050917  0.036057      2.000000
  0.000000  0.000000  0.072114      1.000000
  0.029397  0.016972  0.072114      2.000000
  0.058793  0.033944  0.072114      1.000000
  0.000000  0.033944  0.072114      2.000000
  0.029397  0.050917  0.072114      2.000000
  0.058793  0.067889  0.072114      2.000000
 -0.029397  0.016972  0.072114      2.000000
  0.000000  0.067889  0.072114      1.000000
  0.029397  0.084861  0.072114      2.000000
  0.058793  0.101833  0.072114      1.000000
 


--------------------------------------------------------------------------------------------------------




 Dimension of arrays:
   k-points           NKPTS =     36   k-points in BZ     NKDIM =     36   number of bands    NBANDS=    304
   number of dos      NEDOS =    301   number of ions     NIONS =     54
   non local maximal  LDIM  =      6   non local SUM 2l+1 LMDIM =     18
   total plane-waves  NPLWV = 221184
   max r-space proj   IRMAX =   6887   max aug-charges    IRDMAX=  16707
   dimension x,y,z NGX =    64 NGY =   64 NGZ =   54
   dimension x,y,z NGXF=   128 NGYF=  128 NGZF=  108
   support grid    NGXF=   128 NGYF=  128 NGZF=  108
   ions per type =              27  27
   NGX,Y,Z   is equivalent  to a cutoff of  12.51, 12.51, 12.95 a.u.
   NGXF,Y,Z  is equivalent  to a cutoff of  25.02, 25.02, 25.90 a.u.

 SYSTEM =  unknown system                          
 POSCAR =  NiO_C2_m_scale_0_975_disp_0_15_round_2  

 Startparameter for this run:
   NWRITE =      1    write-flag & timer
   PREC   = accura    normal or accurate (medium, high low for compatibility)
   ISTART =      0    job   : 0-new  1-cont  2-samecut
   ICHARG =      2    charge: 1-file 2-atom 10-const
   ISPIN  =      2    spin polarized calculation?
   LNONCOLLINEAR =      F non collinear calculations
   LSORBIT =      F    spin-orbit coupling
   INIWAV =      1    electr: 0-lowe 1-rand  2-diag
   LASPH  =      F    aspherical Exc in radial PAW
   METAGGA=      F    non-selfconsistent MetaGGA calc.

 Electronic Relaxation 1
   ENCUT  =  500.0 eV  36.75 Ry    6.06 a.u.  15.51 15.51 12.64*2*pi/ulx,y,z
   ENINI  =  500.0     initial cutoff
   ENAUG  =  605.4 eV  augmentation charge cutoff
   NELM   =     80;   NELMIN=  2; NELMDL= -5     # of ELM steps 
   EDIFF  = 0.1E-04   stopping-criterion for ELM
   LREAL  =      T    real-space projection
   NLSPLINE    = F    spline interpolate recip. space projectors
   LCOMPAT=      F    compatible to vasp.4.4
   GGA_COMPAT  = T    GGA compatible to vasp.4.4-vasp.4.6
   LMAXPAW     = -100 max onsite density
   LMAXMIX     =    2 max onsite mixed and CHGCAR
   VOSKOWN=      1    Vosko Wilk Nusair interpolation
   ROPT   =   -0.00025  -0.00025
 Ionic relaxation
   EDIFFG = 0.1E-03   stopping-criterion for IOM
   NSW    =      0    number of steps for IOM
   NBLOCK =      1;   KBLOCK =      1    inner block; outer block 
   IBRION =     -1    ionic relax: 0-MD 1-quasi-New 2-CG
   NFREE  =      0    steps in history (QN), initial steepest desc. (CG)
   ISIF   =      2    stress and relaxation
   IWAVPR =     10    prediction:  0-non 1-charg 2-wave 3-comb
   ISYM   =      2    0-nonsym 1-usesym 2-fastsym
   LCORR  =      T    Harris-Foulkes like correction to forces

   POTIM  = 0.5000    time-step for ionic-motion
   TEIN   =    0.0    initial temperature
   TEBEG  =    0.0;   TEEND  =   0.0 temperature during run
   SMASS  =  -3.00    Nose mass-parameter (am)
   estimated Nose-frequenzy (Omega)   =  0.10E-29 period in steps =****** mass=  -0.165E-26a.u.
   SCALEE = 1.0000    scale energy and forces
   NPACO  =    256;   APACO  = 16.0  distance and # of slots for P.C.
   PSTRESS=    0.0 pullay stress

  Mass of Ions in am
   POMASS =  58.69 16.00
  Ionic Valenz
   ZVAL   =  10.00  6.00
  Atomic Wigner-Seitz radii
   RWIGS  =   1.15  0.73
  virtual crystal weights 
   VCA    =   1.00  1.00
   NELECT =     432.0000    total number of electrons
   NUPDOWN=      -1.0000    fix difference up-down

 DOS related values:
   EMIN   =  10.00;   EMAX   =-10.00  energy-range for DOS
   EFERMI =   0.00
   ISMEAR =     0;   SIGMA  =   0.05  broadening in eV -4-tet -1-fermi 0-gaus

 Electronic relaxation 2 (details)
   IALGO  =     38    algorithm
   LDIAG  =      T    sub-space diagonalisation (order eigenvalues)
   LSUBROT=      F    optimize rotation matrix (better conditioning)
   TURBO    =      0    0=normal 1=particle mesh
   IRESTART =      0    0=no restart 2=restart with 2 vectors
   NREBOOT  =      0    no. of reboots
   NMIN     =      0    reboot dimension
   EREF     =   0.00    reference energy to select bands
   IMIX   =      4    mixing-type and parameters
     AMIX     =   0.40;   BMIX     =  1.00
     AMIX_MAG =   1.60;   BMIX_MAG =  1.00
     AMIN     =   0.10
     WC   =   100.;   INIMIX=   1;  MIXPRE=   1;  MAXMIX= -45

 Intra band minimization:
   WEIMIN = 0.0000     energy-eigenvalue tresh-hold
   EBREAK =  0.82E-08  absolut break condition
   DEPER  =   0.30     relativ break condition  

   TIME   =   0.40     timestep for ELM

  volume/ion in A,a.u.               =       8.04        54.27
  Fermi-wavevector in a.u.,A,eV,Ry     =   1.634234  3.088254 36.337355  2.670720
  Thomas-Fermi vector in A             =   2.725907
 
 Write flags
   LWAVE        =      F    write WAVECAR
   LDOWNSAMPLE  =      F    k-point downsampling of WAVECAR
   LCHARG       =      T    write CHGCAR
   LVTOT        =      F    write LOCPOT, total local potential
   LVHAR        =      F    write LOCPOT, Hartree potential only
   LELF         =      F    write electronic localiz. function (ELF)
   LORBIT       =      0    0 simple, 1 ext, 2 COOP (PROOUT), +10 PAW based schemes


 Dipole corrections
   LMONO  =      F    monopole corrections only (constant potential shift)
   LDIPOL =      F    correct potential (dipole corrections)
   IDIPOL =      0    1-x, 2-y, 3-z, 4-all directions 
   EPSILON=  1.0000000 bulk dielectric constant

 Exchange correlation treatment:
   GGA     =    PS    GGA type
   LEXCH   =    14    internal setting for exchange type
   VOSKOWN=      1    Vosko Wilk Nusair interpolation
   LHFCALC =     F    Hartree Fock is set to
   LHFONE  =     F    Hartree Fock one center treatment
   AEXX    =    0.0000 exact exchange contribution

 Linear response parameters
   LEPSILON=     F    determine dielectric tensor
   LRPA    =     F    only Hartree local field effects (RPA)
   LNABLA  =     F    use nabla operator in PAW spheres
   LVEL    =     F    velocity operator in full k-point grid
   LINTERFAST=   F  fast interpolation
   KINTER  =     0    interpolate to denser k-point grid
   CSHIFT  =0.1000    complex shift for real part using Kramers Kronig
   OMEGAMAX=  -1.0    maximum frequency
   DEG_THRESHOLD= 0.2000000E-02 threshold for treating states as degnerate
   RTIME   =   -0.100 relaxation time in fs
  (WPLASMAI=    0.000 imaginary part of plasma frequency in eV, 0.658/RTIME)
   DFIELD  = 0.0000000 0.0000000 0.0000000 field for delta impulse in time
 
 Orbital magnetization related:
   ORBITALMAG=     F  switch on orbital magnetization
   LCHIMAG   =     F  perturbation theory with respect to B field
   DQ        =  0.001000  dq finite difference perturbation B field
   LLRAUG    =     F  two centre corrections for induced B field



--------------------------------------------------------------------------------------------------------


 Static calculation
 charge density and potential will be updated during run
 spin polarized calculation
 Variant of blocked Davidson
 Davidson routine will perform the subspace rotation
 perform sub-space diagonalisation
    after iterative eigenvector-optimisation
 modified Broyden-mixing scheme, WC =      100.0
 initial mixing is a Kerker type mixing with AMIX =  0.4000 and BMIX =      1.0000
 Hartree-type preconditioning will be used
 using additional bands           88
 real space projection scheme for non local part
 use partial core corrections
 calculate Harris-corrections to forces 
   (improved forces if not selfconsistent)
 use gradient corrections 
 use of overlap-Matrix (Vanderbilt PP)
 Gauss-broadening in eV      SIGMA  =   0.05


--------------------------------------------------------------------------------------------------------


  energy-cutoff  :      500.00
  volume of cell :      434.28
      direct lattice vectors                 reciprocal lattice vectors
     8.504359500  0.000000000  0.000000000     0.117586751  0.067888742  0.000000000
    -4.252179750  7.364991370  0.000000000     0.000000000  0.135777484  0.000000000
     0.000000000  0.000000000  6.933488250     0.000000000  0.000000000  0.144227547

  length of vectors
     8.504359500  8.504359500  6.933488250     0.135777484  0.135777484  0.144227547


 
 k-points in units of 2pi/SCALE and weight: Automatic mesh                          
   0.00000000  0.00000000  0.00000000       0.016
   0.02939669  0.01697219  0.00000000       0.031
   0.05879338  0.03394437  0.00000000       0.016
   0.00000000  0.03394437  0.00000000       0.031
   0.02939669  0.05091656  0.00000000       0.031
   0.05879338  0.06788874  0.00000000       0.031
  -0.02939669  0.01697219  0.00000000       0.031
   0.00000000  0.06788874  0.00000000       0.016
   0.02939669  0.08486093  0.00000000       0.031
   0.05879338  0.10183311  0.00000000       0.016
   0.00000000  0.00000000  0.03605689       0.031
   0.02939669  0.01697219  0.03605689       0.031
   0.05879338  0.03394437  0.03605689       0.031
  -0.02939669 -0.01697219  0.03605689       0.031
   0.00000000  0.03394437  0.03605689       0.031
   0.02939669  0.05091656  0.03605689       0.031
   0.05879338  0.06788874  0.03605689       0.031
  -0.02939669  0.01697219  0.03605689       0.031
   0.00000000  0.06788874  0.03605689       0.031
   0.02939669  0.08486093  0.03605689       0.031
   0.05879338  0.10183311  0.03605689       0.031
  -0.02939669  0.05091656  0.03605689       0.031
   0.00000000 -0.03394437  0.03605689       0.031
   0.02939669 -0.01697219  0.03605689       0.031
   0.05879338  0.00000000  0.03605689       0.031
  -0.02939669 -0.05091656  0.03605689       0.031
   0.00000000  0.00000000  0.07211377       0.016
   0.02939669  0.01697219  0.07211377       0.031
   0.05879338  0.03394437  0.07211377       0.016
   0.00000000  0.03394437  0.07211377       0.031
   0.02939669  0.05091656  0.07211377       0.031
   0.05879338  0.06788874  0.07211377       0.031
  -0.02939669  0.01697219  0.07211377       0.031
   0.00000000  0.06788874  0.07211377       0.016
   0.02939669  0.08486093  0.07211377       0.031
   0.05879338  0.10183311  0.07211377       0.016
 
 k-points in reciprocal lattice and weights: Automatic mesh                          
   0.00000000  0.00000000  0.00000000       0.016
   0.25000000  0.00000000  0.00000000       0.031
   0.50000000  0.00000000  0.00000000       0.016
   0.00000000  0.25000000  0.00000000       0.031
   0.25000000  0.25000000  0.00000000       0.031
   0.50000000  0.25000000  0.00000000       0.031
  -0.25000000  0.25000000  0.00000000       0.031
   0.00000000  0.50000000  0.00000000       0.016
   0.25000000  0.50000000  0.00000000       0.031
   0.50000000  0.50000000  0.00000000       0.016
   0.00000000  0.00000000  0.25000000       0.031
   0.25000000  0.00000000  0.25000000       0.031
   0.50000000  0.00000000  0.25000000       0.031
  -0.25000000 -0.00000000  0.25000000       0.031
   0.00000000  0.25000000  0.25000000       0.031
   0.25000000  0.25000000  0.25000000       0.031
   0.50000000  0.25000000  0.25000000       0.031
  -0.25000000  0.25000000  0.25000000       0.031
   0.00000000  0.50000000  0.25000000       0.031
   0.25000000  0.50000000  0.25000000       0.031
   0.50000000  0.50000000  0.25000000       0.031
  -0.25000000  0.50000000  0.25000000       0.031
   0.00000000 -0.25000000  0.25000000       0.031
   0.25000000 -0.25000000  0.25000000       0.031
   0.50000000 -0.25000000  0.25000000       0.031
  -0.25000000 -0.25000000  0.25000000       0.031
   0.00000000  0.00000000  0.50000000       0.016
   0.25000000  0.00000000  0.50000000       0.031
   0.50000000  0.00000000  0.50000000       0.016
   0.00000000  0.25000000  0.50000000       0.031
   0.25000000  0.25000000  0.50000000       0.031
   0.50000000  0.25000000  0.50000000       0.031
  -0.25000000  0.25000000  0.50000000       0.031
   0.00000000  0.50000000  0.50000000       0.016
   0.25000000  0.50000000  0.50000000       0.031
   0.50000000  0.50000000  0.50000000       0.016
 
 position of ions in fractional coordinates (direct lattice) 
   0.02816891  0.00161275  0.00376383
   0.20623137  0.07313755  0.34500690
   0.08963114  0.23221754  0.67168782
   0.97654522  0.30334506  0.97464216
   0.25294472  0.47639139  0.36985201
   0.09427278  0.54981095  0.70355225
   0.97587481  0.64698761  0.98917493
   0.21475442  0.79131923  0.33329516
   0.10390945  0.89137371  0.72034953
   0.32280012  0.98946226  0.05833793
   0.56232115  0.08928293  0.35458141
   0.41368574  0.17825293  0.68670889
   0.36461027  0.33523291  0.98304168
   0.57660959  0.46059297  0.34351149
   0.43164011  0.54144568  0.66610526
   0.35115285  0.69310237  0.99546729
   0.58026650  0.78576841  0.31736300
   0.47682403  0.90128157  0.67406728
   0.69248117  0.99827515  0.00165720
   0.87105037  0.08226374  0.32689795
   0.78659421  0.23163112  0.61081469
   0.69491878  0.34581166  0.99746434
   0.91913492  0.42141162  0.34097154
   0.78816099  0.57297294  0.66533384
   0.63743422  0.66424410  0.95788243
   0.93938155  0.80005866  0.35351194
   0.80071629  0.91149567  0.67833097
   0.01723190  0.99620592  0.51313770
   0.21548729  0.12703948  0.85079601
   0.13315824  0.24443476  0.18777356
   0.01562439  0.34232725  0.51273087
   0.20200170  0.45159520  0.88339598
   0.09301167  0.56023255  0.16771053
   0.00933853  0.71360394  0.54448426
   0.21819327  0.77372625  0.80782689
   0.08413465  0.90571692  0.17441561
   0.32783716  0.00040898  0.55089356
   0.56157509  0.09563288  0.88906217
   0.40505745  0.20312738  0.20024636
   0.32766573  0.33149386  0.49608736
   0.54606646  0.41712522  0.87200085
   0.47120310  0.55552824  0.13911652
   0.29677537  0.67575107  0.49900141
   0.57595924  0.81139321  0.85850897
   0.44571929  0.93287330  0.17872601
   0.66346472  0.98166106  0.53506060
   0.89388264  0.10125649  0.85394733
   0.78288771  0.18572289  0.14152703
   0.71169453  0.39248000  0.52412345
   0.92993142  0.48731299  0.86809838
   0.82631559  0.55159841  0.14695907
   0.67269409  0.71488298  0.50447252
   0.95004835  0.81154065  0.82478369
   0.78561258  0.90265510  0.15713939
 
 position of ions in cartesian coordinates  (Angst):
   0.23270083  0.01187789  0.02609647
   1.44287170  0.53865742  2.39210129
  -0.22517528  1.71028018  4.65713961
   7.01501390  2.23413375  6.75766996
   0.12543101  3.50861848  2.56436457
  -1.53616538  4.04935290  4.87807126
   5.54808260  4.76505816  6.85843275
  -1.53848281  5.82805930  2.31089808
  -2.90659792  6.56495968  4.99453500
  -1.46216312  7.28738101  0.40448535
   4.40253415  0.65756801  2.45848604
   2.76016875  1.31283129  4.76128802
   1.67530622  2.46898749  6.81590794
   2.94517114  3.39226325  2.38173288
   1.36849831  3.98774276  4.61843299
   0.03913421  5.10469297  6.90206076
   1.59356640  5.78717756  2.20043263
   0.22267173  6.63793098  4.67363757
   1.64426344  7.35228786  0.01149018
   7.05792528  0.60587174  2.26654310
   5.70454278  1.70596120  4.23507648
   4.43938579  2.54689989  6.91590728
   6.02473583  3.10369294  2.36412217
   4.26642047  4.21994076  4.61308436
   2.59648445  4.89215206  6.64146657
   4.58684518  5.89242513  2.45107088
   2.93373576  6.71315774  4.70319981
  -4.08950037  7.33704800  3.55783421
   1.29238668  0.93564467  5.89898414
   0.09304501  1.80025990  1.30192577
  -1.32276157  2.52123724  3.55501346
  -0.20236889  3.32599475  6.12501565
  -1.59120483  4.12610790  1.16281899
  -2.95495401  5.25568686  3.77517522
  -1.43442908  5.69848715  5.60105825
  -3.13575984  6.67059730  1.20930858
   2.78630601  0.00301213  3.81961403
   4.36918826  0.70433534  6.16430211
   2.58102004  1.49603140  1.38840578
   1.37701569  2.44144942  3.43961588
   2.87025407  3.07212365  6.04600765
   1.64507463  4.09146069  0.96456276
  -0.34953058  4.97690080  3.45982041
   1.44797466  5.97590399  5.95246186
  -0.17618788  6.87060380  1.23919469
   1.46814321  7.22992524  3.70983638
   7.17133853  0.74575318  5.92083378
   5.86823142  1.36784748  0.98127600
   4.38361063  2.89061181  3.63400378
   5.83632868  3.58905597  6.01894992
   4.68178925  4.06251753  1.01893899
   2.68102144  5.26510698  3.49775429
   4.62873599  5.97698988  5.71862802
   2.84288007  6.64804702  1.08952411
 


--------------------------------------------------------------------------------------------------------


 k-point  1 :   0.0000 0.0000 0.0000  plane waves:   11029
 k-point  2 :   0.2500 0.0000 0.0000  plane waves:   11041
 k-point  3 :   0.5000 0.0000 0.0000  plane waves:   11030
 k-point  4 :   0.0000 0.2500 0.0000  plane waves:   11041
 k-point  5 :   0.2500 0.2500 0.0000  plane waves:   11024
 k-point  6 :   0.5000 0.2500 0.0000  plane waves:   11024
 k-point  7 :  -0.2500 0.2500 0.0000  plane waves:   11041
 k-point  8 :   0.0000 0.5000 0.0000  plane waves:   11030
 k-point  9 :   0.2500 0.5000 0.0000  plane waves:   11024
 k-point 10 :   0.5000 0.5000 0.0000  plane waves:   11030
 k-point 11 :   0.0000 0.0000 0.2500  plane waves:   11035
 k-point 12 :   0.2500 0.0000 0.2500  plane waves:   11030
 k-point 13 :   0.5000 0.0000 0.2500  plane waves:   11030
 k-point 14 :  -0.2500-0.0000 0.2500  plane waves:   11030
 k-point 15 :   0.0000 0.2500 0.2500  plane waves:   11030
 k-point 16 :   0.2500 0.2500 0.2500  plane waves:   11019
 k-point 17 :   0.5000 0.2500 0.2500  plane waves:   11019
 k-point 18 :  -0.2500 0.2500 0.2500  plane waves:   11030
 k-point 19 :   0.0000 0.5000 0.2500  plane waves:   11030
 k-point 20 :   0.2500 0.5000 0.2500  plane waves:   11019
 k-point 21 :   0.5000 0.5000 0.2500  plane waves:   11030
 k-point 22 :  -0.2500 0.5000 0.2500  plane waves:   11019
 k-point 23 :   0.0000-0.2500 0.2500  plane waves:   11030
 k-point 24 :   0.2500-0.2500 0.2500  plane waves:   11030
 k-point 25 :   0.5000-0.2500 0.2500  plane waves:   11019
 k-point 26 :  -0.2500-0.2500 0.2500  plane waves:   11019
 k-point 27 :   0.0000 0.0000 0.5000  plane waves:   11018
 k-point 28 :   0.2500 0.0000 0.5000  plane waves:   11052
 k-point 29 :   0.5000 0.0000 0.5000  plane waves:   10980
 k-point 30 :   0.0000 0.2500 0.5000  plane waves:   11052
 k-point 31 :   0.2500 0.2500 0.5000  plane waves:   10974
 k-point 32 :   0.5000 0.2500 0.5000  plane waves:   10974
 k-point 33 :  -0.2500 0.2500 0.5000  plane waves:   11052
 k-point 34 :   0.0000 0.5000 0.5000  plane waves:   10980
 k-point 35 :   0.2500 0.5000 0.5000  plane waves:   10974
 k-point 36 :   0.5000 0.5000 0.5000  plane waves:   10980

 maximum and minimum number of plane-waves per node :     11052    10974

 maximum number of plane-waves:     11052
 maximum index in each direction: 
   IXMAX=   15   IYMAX=   15   IZMAX=   12
   IXMIN=  -16   IYMIN=  -16   IZMIN=  -13

 The following grids will avoid any aliasing or wrap around errors in the Hartre
 e energy
  - symmetry arguments have not been applied
  - exchange correlation energies might require even more grid points
  - we recommend to set PREC=Normal or Accurate and rely on VASP defaults
 NGX is ok and might be reduce to    64
 NGY is ok and might be reduce to    64
 NGZ is ok and might be reduce to    54

 serial   3D FFT for wavefunctions
 parallel 3D FFT for charge:
    minimum data exchange during FFTs selected (reduces bandwidth)


 total amount of memory used by VASP MPI-rank0   360468. kBytes
=======================================================================

   base      :      30000. kBytes
   nonlr-proj:      39895. kBytes
   fftplans  :       4688. kBytes
   grid      :      26804. kBytes
   one-center:       1679. kBytes
   wavefun   :     257402. kBytes
 
     INWAV:  cpu time    0.0000: real time    0.0000
 Broyden mixing: mesh for mixing (old mesh)
   NGX = 31   NGY = 31   NGZ = 25
  (NGX  =128   NGY  =128   NGZ  =108)
  gives a total of  24025 points

 initial charge density was supplied:
 charge density of overlapping atoms calculated
 number of electron     432.0000000 magnetization      67.5000000
 keeping initial charge density in first step


--------------------------------------------------------------------------------------------------------


 Maximum index for non-local projection operator         6650
 Maximum index for augmentation-charges         1103 (set IRDMAX)


--------------------------------------------------------------------------------------------------------


 First call to EWALD:  gamma=   0.234
 Maximum number of real-space cells 3x 3x 3
 Maximum number of reciprocal cells 3x 3x 3

    FEWALD:  cpu time    0.0027: real time    0.0027


--------------------------------------- Iteration      1(   1)  ---------------------------------------


    POTLOK:  cpu time    0.1518: real time    0.1629
    SETDIJ:  cpu time    0.0258: real time    0.0291
     EDDAV:  cpu time  138.7043: real time  139.0330
    --------------------------------------------
      LOOP:  cpu time  138.8927: real time  139.2731

 eigenvalue-minimisations  : 43776
 total energy-change (2. order) : 0.5460166E+04  (-0.1719698E+05)
 number of electron     432.0000000 magnetization      67.5000000
 augmentation part      432.0000000 magnetization      67.5000000

 Free energy of the ion-electron system (eV)
  ---------------------------------------------------
  alpha Z        PSCENC =      1991.78600378
  Ewald energy   TEWEN  =    -35409.10875537
  -Hartree energ DENC   =     -9173.74551863
  -exchange      EXHF   =         0.00000000
  -V(xc)+E(xc)   XCENC  =      1671.64995931
  PAW double counting   =     35307.98069315   -37155.18892105
  entropy T*S    EENTRO =        -0.00674599
  eigenvalues    EBANDS =      7518.32441089
  atomic energy  EATOM  =     40708.47505058
  Solvation  Ediel_sol  =         0.00000000
  ---------------------------------------------------
  free energy    TOTEN  =      5460.16617669 eV

  energy without entropy =     5460.17292268  energy(sigma->0) =     5460.16954969


--------------------------------------------------------------------------------------------------------




--------------------------------------- Iteration      1(   2)  ---------------------------------------


     EDDAV:  cpu time  138.5022: real time  138.8682
    --------------------------------------------
      LOOP:  cpu time  138.4955: real time  138.8242

 eigenvalue-minimisations  : 43776
 total energy-change (2. order) :-0.4637173E+04  (-0.4169152E+04)
 number of electron     432.0000000 magnetization      67.5000000
 augmentation part      432.0000000 magnetization      67.5000000

 Free energy of the ion-electron system (eV)
  ---------------------------------------------------
  alpha Z        PSCENC =      1991.78600378
  Ewald energy   TEWEN  =    -35409.10875537
  -Hartree energ DENC   =     -9173.74551863
  -exchange      EXHF   =         0.00000000
  -V(xc)+E(xc)   XCENC  =      1671.64995931
  PAW double counting   =     35307.98069315   -37155.18892105
  entropy T*S    EENTRO =        -0.02329450
  eigenvalues    EBANDS =      2881.16814142
  atomic energy  EATOM  =     40708.47505058
  Solvation  Ediel_sol  =         0.00000000
  ---------------------------------------------------
  free energy    TOTEN  =       822.99335870 eV

  energy without entropy =      823.01665320  energy(sigma->0) =      823.00500595


--------------------------------------------------------------------------------------------------------




--------------------------------------- Iteration      1(   3)  ---------------------------------------


     EDDAV:  cpu time  141.0686: real time  141.4144
    --------------------------------------------
      LOOP:  cpu time  141.0695: real time  141.4311

 eigenvalue-minimisations  : 44720
 total energy-change (2. order) :-0.1075098E+04  (-0.9538007E+03)
 number of electron     432.0000000 magnetization      67.5000000
 augmentation part      432.0000000 magnetization      67.5000000

 Free energy of the ion-electron system (eV)
  ---------------------------------------------------
  alpha Z        PSCENC =      1991.78600378
  Ewald energy   TEWEN  =    -35409.10875537
  -Hartree energ DENC   =     -9173.74551863
  -exchange      EXHF   =         0.00000000
  -V(xc)+E(xc)   XCENC  =      1671.64995931
  PAW double counting   =     35307.98069315   -37155.18892105
  entropy T*S    EENTRO =        -0.07317151
  eigenvalues    EBANDS =      1806.12005901
  atomic energy  EATOM  =     40708.47505058
  Solvation  Ediel_sol  =         0.00000000
  ---------------------------------------------------
  free energy    TOTEN  =      -252.10460072 eV

  energy without entropy =     -252.03142921  energy(sigma->0) =     -252.06801496


--------------------------------------------------------------------------------------------------------




--------------------------------------- Iteration      1(   4)  ---------------------------------------


     EDDAV:  cpu time  154.5521: real time  154.9344
    --------------------------------------------
      LOOP:  cpu time  154.5537: real time  154.9499

 eigenvalue-minimisations  : 50048
 total energy-change (2. order) :-0.1139346E+03  (-0.1083124E+03)
 number of electron     432.0000000 magnetization      67.5000000
 augmentation part      432.0000000 magnetization      67.5000000

 Free energy of the ion-electron system (eV)
  ---------------------------------------------------
  alpha Z        PSCENC =      1991.78600378
  Ewald energy   TEWEN  =    -35409.10875537
  -Hartree energ DENC   =     -9173.74551863
  -exchange      EXHF   =         0.00000000
  -V(xc)+E(xc)   XCENC  =      1671.64995931
  PAW double counting   =     35307.98069315   -37155.18892105
  entropy T*S    EENTRO =        -0.08557671
  eigenvalues    EBANDS =      1692.19786716
  atomic energy  EATOM  =     40708.47505058
  Solvation  Ediel_sol  =         0.00000000
  ---------------------------------------------------
  free energy    TOTEN  =      -366.03919777 eV

  energy without entropy =     -365.95362106  energy(sigma->0) =     -365.99640941


--------------------------------------------------------------------------------------------------------




--------------------------------------- Iteration      1(   5)  ---------------------------------------


     EDDAV:  cpu time  153.6120: real time  154.0060
    CHARGE:  cpu time    4.4433: real time    4.4966
    MIXING:  cpu time    0.0039: real time    0.0119
    --------------------------------------------
      LOOP:  cpu time  158.0525: real time  158.4781

 eigenvalue-minimisations  : 49424
 total energy-change (2. order) :-0.2651381E+01  (-0.2633859E+01)
 number of electron     432.0000035 magnetization      56.7898659
 augmentation part      172.9722972 magnetization      45.0919445

 Broyden mixing:
  rms(total) = 0.12664E+02    rms(broyden)= 0.12663E+02
  rms(prec ) = 0.14703E+02
  weight for this iteration     100.00

 Free energy of the ion-electron system (eV)
  ---------------------------------------------------
  alpha Z        PSCENC =      1991.78600378
  Ewald energy   TEWEN  =    -35409.10875537
  -Hartree energ DENC   =     -9173.74551863
  -exchange      EXHF   =         0.00000000
  -V(xc)+E(xc)   XCENC  =      1671.64995931
  PAW double counting   =     35307.98069315   -37155.18892105
  entropy T*S    EENTRO =        -0.08592037
  eigenvalues    EBANDS =      1689.54682988
  atomic energy  EATOM  =     40708.47505058
  Solvation  Ediel_sol  =         0.00000000
  ---------------------------------------------------
  free energy    TOTEN  =      -368.69057870 eV

  energy without entropy =     -368.60465833  energy(sigma->0) =     -368.64761852


--------------------------------------------------------------------------------------------------------




--------------------------------------- Iteration      1(   6)  ---------------------------------------


    POTLOK:  cpu time    0.1334: real time    0.1337
    SETDIJ:  cpu time    0.0247: real time    0.0247
     EDDAV:  cpu time  199.4938: real time  199.9757
    CHARGE:  cpu time    4.4531: real time    4.4637
    MIXING:  cpu time    0.0068: real time    0.2587
    --------------------------------------------
      LOOP:  cpu time  204.1118: real time  204.8565

 eigenvalue-minimisations  : 63152
 total energy-change (2. order) : 0.1081862E+02  (-0.3662232E+02)
 number of electron     432.0000037 magnetization      44.8700870
 augmentation part      196.8689686 magnetization      39.3607101

 Broyden mixing:
  rms(total) = 0.12936E+02    rms(broyden)= 0.12935E+02
  rms(prec ) = 0.16016E+02
  weight for this iteration     100.00

 eigenvalues of (default mixing * dielectric matrix)
  average eigenvalue GAMMA=   0.3911
  0.3911

 Free energy of the ion-electron system (eV)
  ---------------------------------------------------
  alpha Z        PSCENC =      1991.78600378
  Ewald energy   TEWEN  =    -35409.10875537
  -Hartree energ DENC   =     -8842.68628272
  -exchange      EXHF   =         0.00000000
  -V(xc)+E(xc)   XCENC  =      1663.98080530
  PAW double counting   =     40166.81336091   -41884.32579366
  entropy T*S    EENTRO =        -0.03832203
  eigenvalues    EBANDS =      1247.23197808
  atomic energy  EATOM  =     40708.47505058
  Solvation  Ediel_sol  =         0.00000000
  ---------------------------------------------------
  free energy    TOTEN  =      -357.87195513 eV

  energy without entropy =     -357.83363310  energy(sigma->0) =     -357.85279411


--------------------------------------------------------------------------------------------------------




--------------------------------------- Iteration      1(   7)  ---------------------------------------


    POTLOK:  cpu time    0.1436: real time    0.1439
    SETDIJ:  cpu time    0.0256: real time    0.0256
     EDDAV:  cpu time  157.0043: real time  157.3763
    CHARGE:  cpu time    4.3770: real time    4.3874
    MIXING:  cpu time    0.0050: real time    0.0194
    --------------------------------------------
      LOOP:  cpu time  161.5554: real time  161.9526

 eigenvalue-minimisations  : 51536
 total energy-change (2. order) : 0.1049280E+02  (-0.2228780E+02)
 number of electron     432.0000036 magnetization      38.5884244
 augmentation part      185.1840274 magnetization      32.0503991

 Broyden mixing:
  rms(total) = 0.13759E+02    rms(broyden)= 0.13758E+02
  rms(prec ) = 0.18408E+02
  weight for this iteration     100.00

 eigenvalues of (default mixing * dielectric matrix)
  average eigenvalue GAMMA=   0.3969
  0.5301  0.2637

 Free energy of the ion-electron system (eV)
  ---------------------------------------------------
  alpha Z        PSCENC =      1991.78600378
  Ewald energy   TEWEN  =    -35409.10875537
  -Hartree energ DENC   =     -8959.29247058
  -exchange      EXHF   =         0.00000000
  -V(xc)+E(xc)   XCENC  =      1658.21009331
  PAW double counting   =     42218.59646749   -44065.03479315
  entropy T*S    EENTRO =        -0.05778745
  eigenvalues    EBANDS =      1509.04703418
  atomic energy  EATOM  =     40708.47505058
  Solvation  Ediel_sol  =         0.00000000
  ---------------------------------------------------
  free energy    TOTEN  =      -347.37915720 eV

  energy without entropy =     -347.32136976  energy(sigma->0) =     -347.35026348


--------------------------------------------------------------------------------------------------------




--------------------------------------- Iteration      1(   8)  ---------------------------------------


    POTLOK:  cpu time    0.1361: real time    0.1364
    SETDIJ:  cpu time    0.0254: real time    0.0255
     EDDAV:  cpu time  160.1252: real time  160.5047
    CHARGE:  cpu time    4.3919: real time    4.4023
    MIXING:  cpu time    0.0039: real time    0.0039
    --------------------------------------------
      LOOP:  cpu time  164.6825: real time  165.0728

 eigenvalue-minimisations  : 52528
 total energy-change (2. order) : 0.1546366E+02  (-0.1561805E+02)
 number of electron     432.0000036 magnetization      32.4034765
 augmentation part      183.1050018 magnetization      25.8902130

 Broyden mixing:
  rms(total) = 0.94123E+01    rms(broyden)= 0.94118E+01
  rms(prec ) = 0.13166E+02
  weight for this iteration     100.00

 eigenvalues of (default mixing * dielectric matrix)
  average eigenvalue GAMMA=   0.4748
  0.8254  0.4201  0.1789

 Free energy of the ion-electron system (eV)
  ---------------------------------------------------
  alpha Z        PSCENC =      1991.78600378
  Ewald energy   TEWEN  =    -35409.10875537
  -Hartree energ DENC   =     -9007.51581041
  -exchange      EXHF   =         0.00000000
  -V(xc)+E(xc)   XCENC  =      1656.89572528
  PAW double counting   =     43578.50603758   -45474.13523076
  entropy T*S    EENTRO =        -0.06296344
  eigenvalues    EBANDS =      1623.24444975
  atomic energy  EATOM  =     40708.47505058
  Solvation  Ediel_sol  =         0.00000000
  ---------------------------------------------------
  free energy    TOTEN  =      -331.91549301 eV

  energy without entropy =     -331.85252956  energy(sigma->0) =     -331.88401128


--------------------------------------------------------------------------------------------------------




--------------------------------------- Iteration      1(   9)  ---------------------------------------


    POTLOK:  cpu time    0.1337: real time    0.1340
    SETDIJ:  cpu time    0.0249: real time    0.0250
     EDDAV:  cpu time  165.9135: real time  166.3067
    CHARGE:  cpu time    4.0060: real time    4.0156
    MIXING:  cpu time    0.0035: real time    0.0049
    --------------------------------------------
      LOOP:  cpu time  170.0817: real time  170.4862

 eigenvalue-minimisations  : 54304
 total energy-change (2. order) :-0.6745514E+01  (-0.1176392E+02)
 number of electron     432.0000042 magnetization      22.4649151
 augmentation part      182.7364804 magnetization      18.4953601

 Broyden mixing:
  rms(total) = 0.91685E+01    rms(broyden)= 0.91676E+01
  rms(prec ) = 0.15279E+02
  weight for this iteration     100.00

 eigenvalues of (default mixing * dielectric matrix)
  average eigenvalue GAMMA=   0.5663
  1.3549  0.5568  0.2188  0.1346

 Free energy of the ion-electron system (eV)
  ---------------------------------------------------
  alpha Z        PSCENC =      1991.78600378
  Ewald energy   TEWEN  =    -35409.10875537
  -Hartree energ DENC   =     -9009.05349959
  -exchange      EXHF   =         0.00000000
  -V(xc)+E(xc)   XCENC  =      1655.62362520
  PAW double counting   =     44995.27747761   -46922.43809367
  entropy T*S    EENTRO =        -0.06006403
  eigenvalues    EBANDS =      1650.83724861
  atomic energy  EATOM  =     40708.47505058
  Solvation  Ediel_sol  =         0.00000000
  ---------------------------------------------------
  free energy    TOTEN  =      -338.66100689 eV

  energy without entropy =     -338.60094286  energy(sigma->0) =     -338.63097488


--------------------------------------------------------------------------------------------------------




--------------------------------------- Iteration      1(  10)  ---------------------------------------


    POTLOK:  cpu time    0.1182: real time    0.1185
    SETDIJ:  cpu time    0.0239: real time    0.0239
     EDDAV:  cpu time  174.3564: real time  174.7717
    CHARGE:  cpu time    4.2302: real time    4.2403
    MIXING:  cpu time    0.0036: real time    0.0036
    --------------------------------------------
      LOOP:  cpu time  178.7322: real time  179.1580

 eigenvalue-minimisations  : 57408
 total energy-change (2. order) :-0.5483110E+02  (-0.1565044E+02)
 number of electron     432.0000031 magnetization      12.1207671
 augmentation part      182.5432260 magnetization       8.9110200

 Broyden mixing:
  rms(total) = 0.11897E+02    rms(broyden)= 0.11896E+02
  rms(prec ) = 0.19773E+02
  weight for this iteration     100.00

 eigenvalues of (default mixing * dielectric matrix)
  average eigenvalue GAMMA=   0.5701
  1.7414  0.5874  0.2564  0.1327  0.1327

 Free energy of the ion-electron system (eV)
  ---------------------------------------------------
  alpha Z        PSCENC =      1991.78600378
  Ewald energy   TEWEN  =    -35409.10875537
  -Hartree energ DENC   =     -8976.29771623
  -exchange      EXHF   =         0.00000000
  -V(xc)+E(xc)   XCENC  =      1653.40548653
  PAW double counting   =     46906.33344115   -48859.81375444
  entropy T*S    EENTRO =        -0.03667434
  eigenvalues    EBANDS =      1591.76481264
  atomic energy  EATOM  =     40708.47505058
  Solvation  Ediel_sol  =         0.00000000
  ---------------------------------------------------
  free energy    TOTEN  =      -393.49210570 eV

  energy without entropy =     -393.45543136  energy(sigma->0) =     -393.47376853


--------------------------------------------------------------------------------------------------------




--------------------------------------- Iteration      1(  11)  ---------------------------------------


    POTLOK:  cpu time    0.1278: real time    0.1281
    SETDIJ:  cpu time    0.0257: real time    0.0258
     EDDAV:  cpu time  160.5368: real time  160.9224
    CHARGE:  cpu time    4.0977: real time    4.1075
    MIXING:  cpu time    0.0041: real time    0.0041
    --------------------------------------------
      LOOP:  cpu time  164.7921: real time  165.1878

 eigenvalue-minimisations  : 50528
 total energy-change (2. order) : 0.1591886E+02  (-0.1340785E+02)
 number of electron     432.0000037 magnetization       9.1950325
 augmentation part      183.8902622 magnetization       7.4931891

 Broyden mixing:
  rms(total) = 0.10958E+02    rms(broyden)= 0.10957E+02
  rms(prec ) = 0.18842E+02
  weight for this iteration     100.00

 eigenvalues of (default mixing * dielectric matrix)
  average eigenvalue GAMMA=   0.5254
  1.8717  0.5907  0.2756  0.1497  0.1322  0.1322

 Free energy of the ion-electron system (eV)
  ---------------------------------------------------
  alpha Z        PSCENC =      1991.78600378
  Ewald energy   TEWEN  =    -35409.10875537
  -Hartree energ DENC   =     -8936.46834130
  -exchange      EXHF   =         0.00000000
  -V(xc)+E(xc)   XCENC  =      1651.92976125
  PAW double counting   =     48933.29957684   -50906.87049514
  entropy T*S    EENTRO =        -0.04043765
  eigenvalues    EBANDS =      1589.42438950
  atomic energy  EATOM  =     40708.47505058
  Solvation  Ediel_sol  =         0.00000000
  ---------------------------------------------------
  free energy    TOTEN  =      -377.57324751 eV

  energy without entropy =     -377.53280986  energy(sigma->0) =     -377.55302868


--------------------------------------------------------------------------------------------------------




--------------------------------------- Iteration      1(  12)  ---------------------------------------


    POTLOK:  cpu time    0.1357: real time    0.1360
    SETDIJ:  cpu time    0.0253: real time    0.0254
     EDDAV:  cpu time  164.1315: real time  164.5496
    CHARGE:  cpu time    4.5786: real time    4.5984
    MIXING:  cpu time    0.0045: real time    0.0045
    --------------------------------------------
      LOOP:  cpu time  168.8756: real time  169.3139

 eigenvalue-minimisations  : 51456
 total energy-change (2. order) : 0.5605624E+02  (-0.7735800E+01)
 number of electron     432.0000037 magnetization       8.8369529
 augmentation part      185.6791970 magnetization       6.8440579

 Broyden mixing:
  rms(total) = 0.51289E+01    rms(broyden)= 0.51281E+01
  rms(prec ) = 0.86818E+01
  weight for this iteration     100.00

 eigenvalues of (default mixing * dielectric matrix)
  average eigenvalue GAMMA=   0.4982
  1.8981  0.6147  0.3013  0.3013  0.1366  0.1366  0.0987

 Free energy of the ion-electron system (eV)
  ---------------------------------------------------
  alpha Z        PSCENC =      1991.78600378
  Ewald energy   TEWEN  =    -35409.10875537
  -Hartree energ DENC   =     -8925.15946339
  -exchange      EXHF   =         0.00000000
  -V(xc)+E(xc)   XCENC  =      1651.55722930
  PAW double counting   =     49484.48802032   -51464.73258683
  entropy T*S    EENTRO =        -0.05909379
  eigenvalues    EBANDS =      1641.23658613
  atomic energy  EATOM  =     40708.47505058
  Solvation  Ediel_sol  =         0.00000000
  ---------------------------------------------------
  free energy    TOTEN  =      -321.51700927 eV

  energy without entropy =     -321.45791548  energy(sigma->0) =     -321.48746237


--------------------------------------------------------------------------------------------------------




--------------------------------------- Iteration      1(  13)  ---------------------------------------


    POTLOK:  cpu time    0.1369: real time    0.1373
    SETDIJ:  cpu time    0.0253: real time    0.0254
     EDDAV:  cpu time  163.1899: real time  163.5845
    CHARGE:  cpu time    3.9783: real time    3.9877
    MIXING:  cpu time    0.0044: real time    0.0044
    --------------------------------------------
      LOOP:  cpu time  167.3347: real time  167.7393

 eigenvalue-minimisations  : 51904
 total energy-change (2. order) : 0.1097899E+02  (-0.5642713E+01)
 number of electron     432.0000040 magnetization       8.9335083
 augmentation part      186.0653548 magnetization       7.2857058

 Broyden mixing:
  rms(total) = 0.34407E+01    rms(broyden)= 0.34401E+01
  rms(prec ) = 0.53820E+01
  weight for this iteration     100.00

 eigenvalues of (default mixing * dielectric matrix)
  average eigenvalue GAMMA=   0.4653
  1.8534  0.6523  0.3466  0.3466  0.1397  0.1397  0.1471  0.0969

 Free energy of the ion-electron system (eV)
  ---------------------------------------------------
  alpha Z        PSCENC =      1991.78600378
  Ewald energy   TEWEN  =    -35409.10875537
  -Hartree energ DENC   =     -8920.01193132
  -exchange      EXHF   =         0.00000000
  -V(xc)+E(xc)   XCENC  =      1651.03464528
  PAW double counting   =     49529.23032348   -51509.91224523
  entropy T*S    EENTRO =        -0.05445021
  eigenvalues    EBANDS =      1648.02333518
  atomic energy  EATOM  =     40708.47505058
  Solvation  Ediel_sol  =         0.00000000
  ---------------------------------------------------
  free energy    TOTEN  =      -310.53802383 eV

  energy without entropy =     -310.48357362  energy(sigma->0) =     -310.51079873


--------------------------------------------------------------------------------------------------------




--------------------------------------- Iteration      1(  14)  ---------------------------------------


    POTLOK:  cpu time    0.1609: real time    0.1613
    SETDIJ:  cpu time    0.0255: real time    0.0255
     EDDAV:  cpu time  171.9704: real time  172.3778
    CHARGE:  cpu time    3.4042: real time    3.4123
    MIXING:  cpu time    0.0044: real time    0.0044
    --------------------------------------------
      LOOP:  cpu time  175.5655: real time  175.9814

 eigenvalue-minimisations  : 56000
 total energy-change (2. order) : 0.1816213E+01  (-0.2314313E+01)
 number of electron     432.0000037 magnetization       9.1872042
 augmentation part      184.8963631 magnetization       7.1268355

 Broyden mixing:
  rms(total) = 0.34590E+01    rms(broyden)= 0.34585E+01
  rms(prec ) = 0.57885E+01
  weight for this iteration     100.00

 eigenvalues of (default mixing * dielectric matrix)
  average eigenvalue GAMMA=   0.4313
  1.8083  0.6651  0.3112  0.3112  0.3077  0.1339  0.1339  0.1068  0.1034

 Free energy of the ion-electron system (eV)
  ---------------------------------------------------
  alpha Z        PSCENC =      1991.78600378
  Ewald energy   TEWEN  =    -35409.10875537
  -Hartree energ DENC   =     -8920.05385371
  -exchange      EXHF   =         0.00000000
  -V(xc)+E(xc)   XCENC  =      1650.19353729
  PAW double counting   =     49411.52368071   -51389.98150008
  entropy T*S    EENTRO =        -0.06072180
  eigenvalues    EBANDS =      1648.50474766
  atomic energy  EATOM  =     40708.47505058
  Solvation  Ediel_sol  =         0.00000000
  ---------------------------------------------------
  free energy    TOTEN  =      -308.72181093 eV

  energy without entropy =     -308.66108913  energy(sigma->0) =     -308.69145003


--------------------------------------------------------------------------------------------------------




--------------------------------------- Iteration      1(  15)  ---------------------------------------


    POTLOK:  cpu time    0.1332: real time    0.1335
    SETDIJ:  cpu time    0.0252: real time    0.0252
     EDDAV:  cpu time  180.2957: real time  180.7230
    CHARGE:  cpu time    4.2379: real time    5.1336
    MIXING:  cpu time    0.0047: real time    0.0047
    --------------------------------------------
      LOOP:  cpu time  184.6967: real time  186.0201

 eigenvalue-minimisations  : 60960
 total energy-change (2. order) : 0.3357119E+01  (-0.1272238E+01)
 number of electron     432.0000038 magnetization       9.2033998
 augmentation part      184.9328906 magnetization       7.4660145

 Broyden mixing:
  rms(total) = 0.23049E+01    rms(broyden)= 0.23044E+01
  rms(prec ) = 0.35596E+01
  weight for this iteration     100.00

 eigenvalues of (default mixing * dielectric matrix)
  average eigenvalue GAMMA=   0.4162
  1.7700  0.6674  0.3936  0.3554  0.3554  0.1470  0.1470  0.1182  0.1182  0.0893

 Free energy of the ion-electron system (eV)
  ---------------------------------------------------
  alpha Z        PSCENC =      1991.78600378
  Ewald energy   TEWEN  =    -35409.10875537
  -Hartree energ DENC   =     -8918.51741710
  -exchange      EXHF   =         0.00000000
  -V(xc)+E(xc)   XCENC  =      1649.91548097
  PAW double counting   =     49334.25038376   -51309.97727953
  entropy T*S    EENTRO =        -0.05929345
  eigenvalues    EBANDS =      1647.87113471
  atomic energy  EATOM  =     40708.47505058
  Solvation  Ediel_sol  =         0.00000000
  ---------------------------------------------------
  free energy    TOTEN  =      -305.36469163 eV

  energy without entropy =     -305.30539818  energy(sigma->0) =     -305.33504491


--------------------------------------------------------------------------------------------------------




--------------------------------------- Iteration      1(  16)  ---------------------------------------


    POTLOK:  cpu time    0.1324: real time    0.1327
    SETDIJ:  cpu time    0.0248: real time    0.0248
     EDDAV:  cpu time  164.7668: real time  165.1573
    CHARGE:  cpu time    3.6494: real time    3.6580
    MIXING:  cpu time    0.0086: real time    0.2833
    --------------------------------------------
      LOOP:  cpu time  168.5820: real time  169.2562

 eigenvalue-minimisations  : 54992
 total energy-change (2. order) : 0.4577870E+00  (-0.6922522E+00)
 number of electron     432.0000039 magnetization       8.8284745
 augmentation part      184.7956788 magnetization       7.0058440

 Broyden mixing:
  rms(total) = 0.21616E+01    rms(broyden)= 0.21613E+01
  rms(prec ) = 0.35700E+01
  weight for this iteration     100.00

 eigenvalues of (default mixing * dielectric matrix)
  average eigenvalue GAMMA=   0.4060
  1.7560  0.6729  0.4100  0.4100  0.4127  0.2155  0.1391  0.1391  0.1209  0.1043
  0.0857

 Free energy of the ion-electron system (eV)
  ---------------------------------------------------
  alpha Z        PSCENC =      1991.78600378
  Ewald energy   TEWEN  =    -35409.10875537
  -Hartree energ DENC   =     -8916.73195891
  -exchange      EXHF   =         0.00000000
  -V(xc)+E(xc)   XCENC  =      1649.67465107
  PAW double counting   =     49256.89924449   -51228.54028065
  entropy T*S    EENTRO =        -0.06166059
  eigenvalues    EBANDS =      1642.70080100
  atomic energy  EATOM  =     40708.47505058
  Solvation  Ediel_sol  =         0.00000000
  ---------------------------------------------------
  free energy    TOTEN  =      -304.90690459 eV

  energy without entropy =     -304.84524400  energy(sigma->0) =     -304.87607430


--------------------------------------------------------------------------------------------------------




--------------------------------------- Iteration      1(  17)  ---------------------------------------


    POTLOK:  cpu time    0.1256: real time    0.2348
    SETDIJ:  cpu time    0.0237: real time    0.0238
     EDDAV:  cpu time  172.4136: real time  172.8221
    CHARGE:  cpu time    4.1795: real time    4.1895
    MIXING:  cpu time    0.0046: real time    0.0047
    --------------------------------------------
      LOOP:  cpu time  176.7471: real time  177.2747

 eigenvalue-minimisations  : 56592
 total energy-change (2. order) : 0.5415683E+00  (-0.6137013E+00)
 number of electron     432.0000038 magnetization       8.2873542
 augmentation part      184.8493215 magnetization       6.5743904

 Broyden mixing:
  rms(total) = 0.17996E+01    rms(broyden)= 0.17992E+01
  rms(prec ) = 0.28909E+01
  weight for this iteration     100.00

 eigenvalues of (default mixing * dielectric matrix)
  average eigenvalue GAMMA=   0.4149
  1.7434  0.6655  0.5613  0.5613  0.3641  0.3641  0.1428  0.1428  0.1266  0.1266
  0.0989  0.0808

 Free energy of the ion-electron system (eV)
  ---------------------------------------------------
  alpha Z        PSCENC =      1991.78600378
  Ewald energy   TEWEN  =    -35409.10875537
  -Hartree energ DENC   =     -8916.01645538
  -exchange      EXHF   =         0.00000000
  -V(xc)+E(xc)   XCENC  =      1649.46691740
  PAW double counting   =     49236.39555793   -51203.17206088
  entropy T*S    EENTRO =        -0.05861505
  eigenvalues    EBANDS =      1637.86702071
  atomic energy  EATOM  =     40708.47505058
  Solvation  Ediel_sol  =         0.00000000
  ---------------------------------------------------
  free energy    TOTEN  =      -304.36533629 eV

  energy without entropy =     -304.30672123  energy(sigma->0) =     -304.33602876


--------------------------------------------------------------------------------------------------------




--------------------------------------- Iteration      1(  18)  ---------------------------------------


    POTLOK:  cpu time    0.1260: real time    0.1263
    SETDIJ:  cpu time    0.0248: real time    0.0248
     EDDAV:  cpu time  173.5645: real time  173.9757
    CHARGE:  cpu time    3.8102: real time    3.8192
    MIXING:  cpu time    0.0048: real time    0.0048
    --------------------------------------------
      LOOP:  cpu time  177.5302: real time  177.9508

 eigenvalue-minimisations  : 57760
 total energy-change (2. order) : 0.4756541E+00  (-0.4684111E+00)
 number of electron     432.0000038 magnetization       6.7386715
 augmentation part      184.9007209 magnetization       5.1297510

 Broyden mixing:
  rms(total) = 0.14268E+01    rms(broyden)= 0.14265E+01
  rms(prec ) = 0.20132E+01
  weight for this iteration     100.00

 eigenvalues of (default mixing * dielectric matrix)
  average eigenvalue GAMMA=   0.4415
  1.7732  0.8374  0.8374  0.6302  0.3976  0.3976  0.1672  0.1424  0.1424  0.1349
  0.1041  0.0954  0.0798

 Free energy of the ion-electron system (eV)
  ---------------------------------------------------
  alpha Z        PSCENC =      1991.78600378
  Ewald energy   TEWEN  =    -35409.10875537
  -Hartree energ DENC   =     -8914.95318978
  -exchange      EXHF   =         0.00000000
  -V(xc)+E(xc)   XCENC  =      1649.34812326
  PAW double counting   =     49270.69672894   -51234.30205371
  entropy T*S    EENTRO =        -0.05640534
  eigenvalues    EBANDS =      1634.22481540
  atomic energy  EATOM  =     40708.47505058
  Solvation  Ediel_sol  =         0.00000000
  ---------------------------------------------------
  free energy    TOTEN  =      -303.88968223 eV

  energy without entropy =     -303.83327689  energy(sigma->0) =     -303.86147956


--------------------------------------------------------------------------------------------------------




--------------------------------------- Iteration      1(  19)  ---------------------------------------


    POTLOK:  cpu time    0.1259: real time    0.1262
    SETDIJ:  cpu time    0.0247: real time    0.0248
     EDDAV:  cpu time  171.9385: real time  172.3460
    CHARGE:  cpu time    3.9509: real time    3.9603
    MIXING:  cpu time    0.0050: real time    0.0050
    --------------------------------------------
      LOOP:  cpu time  176.0450: real time  176.4622

 eigenvalue-minimisations  : 56736
 total energy-change (2. order) :-0.1413409E+00  (-0.2983772E+00)
 number of electron     432.0000038 magnetization       6.0331513
 augmentation part      184.8255447 magnetization       4.5140410

 Broyden mixing:
  rms(total) = 0.13168E+01    rms(broyden)= 0.13166E+01
  rms(prec ) = 0.22220E+01
  weight for this iteration     100.00

 eigenvalues of (default mixing * dielectric matrix)
  average eigenvalue GAMMA=   0.4618
  1.7687  1.0317  1.0317  0.6245  0.4013  0.3819  0.3819  0.1424  0.1424  0.1387
  0.1387  0.1056  0.0950  0.0802

 Free energy of the ion-electron system (eV)
  ---------------------------------------------------
  alpha Z        PSCENC =      1991.78600378
  Ewald energy   TEWEN  =    -35409.10875537
  -Hartree energ DENC   =     -8915.02905451
  -exchange      EXHF   =         0.00000000
  -V(xc)+E(xc)   XCENC  =      1649.32957303
  PAW double counting   =     49466.47457591   -51427.62176278
  entropy T*S    EENTRO =        -0.05844775
  eigenvalues    EBANDS =      1631.72179396
  atomic energy  EATOM  =     40708.47505058
  Solvation  Ediel_sol  =         0.00000000
  ---------------------------------------------------
  free energy    TOTEN  =      -304.03102315 eV

  energy without entropy =     -303.97257540  energy(sigma->0) =     -304.00179928


--------------------------------------------------------------------------------------------------------




--------------------------------------- Iteration      1(  20)  ---------------------------------------


    POTLOK:  cpu time    0.1250: real time    0.1252
    SETDIJ:  cpu time    0.0250: real time    0.0250
     EDDAV:  cpu time  168.6476: real time  169.0471
    CHARGE:  cpu time    4.0469: real time    4.0565
    MIXING:  cpu time    0.0054: real time    0.0054
    --------------------------------------------
      LOOP:  cpu time  172.8499: real time  173.2594

 eigenvalue-minimisations  : 55664
 total energy-change (2. order) :-0.6319263E-01  (-0.3157336E+00)
 number of electron     432.0000039 magnetization       4.5141808
 augmentation part      184.8217209 magnetization       3.2463589

 Broyden mixing:
  rms(total) = 0.12950E+01    rms(broyden)= 0.12947E+01
  rms(prec ) = 0.20200E+01
  weight for this iteration     100.00

 eigenvalues of (default mixing * dielectric matrix)
  average eigenvalue GAMMA=   0.4910
  1.9239  1.2374  1.2374  0.6451  0.4659  0.4453  0.4453  0.1421  0.1421  0.1574
  0.1349  0.1127  0.1018  0.0942  0.0800

 Free energy of the ion-electron system (eV)
  ---------------------------------------------------
  alpha Z        PSCENC =      1991.78600378
  Ewald energy   TEWEN  =    -35409.10875537
  -Hartree energ DENC   =     -8915.21815041
  -exchange      EXHF   =         0.00000000
  -V(xc)+E(xc)   XCENC  =      1649.26527079
  PAW double counting   =     49544.23470327   -51502.87603993
  entropy T*S    EENTRO =        -0.05858516
  eigenvalues    EBANDS =      1629.40628666
  atomic energy  EATOM  =     40708.47505058
  Solvation  Ediel_sol  =         0.00000000
  ---------------------------------------------------
  free energy    TOTEN  =      -304.09421578 eV

  energy without entropy =     -304.03563062  energy(sigma->0) =     -304.06492320


--------------------------------------------------------------------------------------------------------




--------------------------------------- Iteration      1(  21)  ---------------------------------------


    POTLOK:  cpu time    0.1361: real time    0.1364
    SETDIJ:  cpu time    0.0254: real time    0.0255
     EDDAV:  cpu time  172.7999: real time  173.2093
    CHARGE:  cpu time    4.1086: real time    4.1184
    MIXING:  cpu time    0.0057: real time    0.0057
    --------------------------------------------
      LOOP:  cpu time  177.0758: real time  177.4953

 eigenvalue-minimisations  : 57264
 total energy-change (2. order) : 0.3521754E+00  (-0.2144147E+00)
 number of electron     432.0000038 magnetization       4.1107580
 augmentation part      184.8410618 magnetization       3.0791695

 Broyden mixing:
  rms(total) = 0.86849E+00    rms(broyden)= 0.86820E+00
  rms(prec ) = 0.13698E+01
  weight for this iteration     100.00

 eigenvalues of (default mixing * dielectric matrix)
  average eigenvalue GAMMA=   0.4904
  2.0231  1.2614  1.2614  0.7609  0.4478  0.4478  0.4273  0.2665  0.1425  0.1425
  0.1440  0.1331  0.1138  0.0996  0.0946  0.0801

 Free energy of the ion-electron system (eV)
  ---------------------------------------------------
  alpha Z        PSCENC =      1991.78600378
  Ewald energy   TEWEN  =    -35409.10875537
  -Hartree energ DENC   =     -8915.38410212
  -exchange      EXHF   =         0.00000000
  -V(xc)+E(xc)   XCENC  =      1649.21111538
  PAW double counting   =     49702.41440990   -51656.04864141
  entropy T*S    EENTRO =        -0.05743518
  eigenvalues    EBANDS =      1624.97031411
  atomic energy  EATOM  =     40708.47505058
  Solvation  Ediel_sol  =         0.00000000
  ---------------------------------------------------
  free energy    TOTEN  =      -303.74204033 eV

  energy without entropy =     -303.68460515  energy(sigma->0) =     -303.71332274


--------------------------------------------------------------------------------------------------------




--------------------------------------- Iteration      1(  22)  ---------------------------------------


    POTLOK:  cpu time    0.1347: real time    0.1350
    SETDIJ:  cpu time    0.0254: real time    0.0255
     EDDAV:  cpu time  172.4201: real time  172.8286
    CHARGE:  cpu time    4.0956: real time    4.1053
    MIXING:  cpu time    0.0060: real time    0.0060
    --------------------------------------------
      LOOP:  cpu time  176.6819: real time  177.1005

 eigenvalue-minimisations  : 57088
 total energy-change (2. order) : 0.1257531E+00  (-0.1325376E+00)
 number of electron     432.0000038 magnetization       3.6529461
 augmentation part      184.8462496 magnetization       2.7169789

 Broyden mixing:
  rms(total) = 0.67416E+00    rms(broyden)= 0.67393E+00
  rms(prec ) = 0.10934E+01
  weight for this iteration     100.00

 eigenvalues of (default mixing * dielectric matrix)
  average eigenvalue GAMMA=   0.4958
  2.1603  1.1894  1.1894  1.0480  0.4844  0.4844  0.4017  0.4017  0.1422  0.1422
  0.1478  0.1393  0.1191  0.1090  0.0801  0.0948  0.0948

 Free energy of the ion-electron system (eV)
  ---------------------------------------------------
  alpha Z        PSCENC =      1991.78600378
  Ewald energy   TEWEN  =    -35409.10875537
  -Hartree energ DENC   =     -8916.12994173
  -exchange      EXHF   =         0.00000000
  -V(xc)+E(xc)   XCENC  =      1649.24095866
  PAW double counting   =     49739.79145432   -51692.18176704
  entropy T*S    EENTRO =        -0.05613746
  eigenvalues    EBANDS =      1624.56684707
  atomic energy  EATOM  =     40708.47505058
  Solvation  Ediel_sol  =         0.00000000
  ---------------------------------------------------
  free energy    TOTEN  =      -303.61628718 eV

  energy without entropy =     -303.56014973  energy(sigma->0) =     -303.58821846


--------------------------------------------------------------------------------------------------------




--------------------------------------- Iteration      1(  23)  ---------------------------------------


    POTLOK:  cpu time    0.1348: real time    0.1351
    SETDIJ:  cpu time    0.0253: real time    0.0254
     EDDAV:  cpu time  171.8846: real time  172.2918
    CHARGE:  cpu time    4.1030: real time    4.1128
    MIXING:  cpu time    0.0061: real time    0.0062
    --------------------------------------------
[...]
  in kB      527.3667224    550.7975516    556.9904180     53.4715252    -12.2739508   -102.1158889
  external PRESSURE =     545.0515640 kB  Pullay stress =       0.0000000 kB


 VOLUME and BASIS-vectors are now :
 -----------------------------------------------------------------------------
  energy-cutoff  :      500.00
  volume of cell :      434.28
      direct lattice vectors                 reciprocal lattice vectors
     8.504359500  0.000000000  0.000000000     0.117586751  0.067888742  0.000000000
    -4.252179750  7.364991370  0.000000000     0.000000000  0.135777484  0.000000000
     0.000000000  0.000000000  6.933488250     0.000000000  0.000000000  0.144227547

  length of vectors
     8.504359500  8.504359500  6.933488250     0.135777484  0.135777484  0.144227547


 FORCES acting on ions
    electron-ion (+dipol)            ewald-force                    non-local-force                 convergence-correction
 -----------------------------------------------------------------------------------------------
   0.121E+03 -.863E+02 -.728E+02   -.127E+03 0.905E+02 0.735E+02   0.392E+00 -.176E+01 -.967E+00   0.533E-01 0.114E-01 -.309E-03
   -.553E+02 -.295E+03 -.940E+02   0.561E+02 0.305E+03 0.965E+02   -.439E+00 -.448E+01 -.214E+00   0.268E-01 -.423E-02 0.234E-01
   -.148E+03 -.926E+02 0.484E+02   0.152E+03 0.921E+02 -.493E+02   -.857E+00 -.321E+00 0.167E+01   0.631E-01 0.155E-01 0.265E-01
   -.551E+02 -.110E+03 -.130E+03   0.583E+02 0.113E+03 0.134E+03   -.244E+01 -.262E+00 -.803E+00   0.183E-01 0.123E-02 -.185E-01
   -.848E+02 -.162E+02 0.173E+03   0.860E+02 0.144E+02 -.175E+03   -.124E+01 0.366E+00 -.270E+00   0.233E-01 -.149E-01 0.203E-01
   -.135E+03 0.389E+02 0.182E+03   0.141E+03 -.355E+02 -.187E+03   -.229E+01 -.242E+01 -.522E+00   -.956E-02 0.130E-01 0.123E-01
   0.133E+02 -.157E+03 -.152E+03   -.109E+02 0.170E+03 0.160E+03   0.329E+00 0.232E+01 -.373E+01   -.135E-01 0.282E-01 -.146E-01
   -.127E+03 0.126E+03 0.560E+01   0.132E+03 -.132E+03 -.276E+01   -.364E+01 0.427E+01 -.272E+01   -.268E-01 0.380E-01 0.217E-01
   -.212E+03 -.178E+03 0.121E+03   0.237E+03 0.191E+03 -.142E+03   -.244E+01 0.166E+01 0.270E+01   0.607E-01 0.456E-01 0.111E-01
   -.387E+02 -.514E+02 0.181E+03   0.397E+02 0.556E+02 -.186E+03   -.471E+01 -.281E+01 -.291E+00   -.376E-01 0.279E-01 -.447E-01
   0.771E+02 -.239E+03 -.609E+02   -.776E+02 0.241E+03 0.598E+02   0.836E+00 0.651E+00 0.288E+01   -.508E-01 0.171E-01 0.430E-01
   -.155E+03 -.282E+03 0.412E+02   0.156E+03 0.286E+03 -.405E+02   0.678E+00 0.202E+01 0.155E+01   -.260E-02 -.121E-01 0.458E-02
   0.984E+02 -.463E+02 -.123E+03   -.107E+03 0.433E+02 0.132E+03   0.158E+00 0.666E+00 -.155E+01   0.157E-01 -.451E-01 -.470E-01
   -.361E+02 0.339E+02 0.165E+02   0.355E+02 -.361E+02 -.168E+02   0.634E+00 0.167E+01 -.663E-01   0.107E-01 -.281E-01 0.205E-01
   -.488E+02 -.327E+01 0.229E+02   0.500E+02 0.181E+01 -.255E+02   -.826E+00 0.171E+01 0.262E+01   0.140E-01 -.543E-01 0.130E-01
   0.128E+02 0.821E+02 -.126E+03   -.150E+02 -.858E+02 0.125E+03   0.127E+01 0.296E+01 0.150E+01   -.178E-01 -.103E-02 -.260E-01
   0.133E+03 0.185E+03 0.898E+01   -.131E+03 -.188E+03 -.805E+01   -.415E+01 0.229E+01 -.192E+01   0.329E-02 -.568E-02 0.253E-02
   0.959E+02 0.582E+02 0.140E+02   -.100E+03 -.602E+02 -.126E+02   0.120E+00 0.592E-01 0.425E+00   -.902E-01 0.427E-01 -.884E-02
   0.140E+03 0.320E+02 -.158E+02   -.145E+03 -.313E+02 0.154E+02   0.448E+00 -.116E+01 0.553E+00   -.107E-01 0.247E-01 0.879E-02
   -.543E+02 -.133E+03 -.900E+02   0.569E+02 0.135E+03 0.878E+02   -.123E+01 0.372E+00 0.408E+01   0.211E-01 0.364E-02 -.218E-01
   0.182E+03 -.211E+02 -.109E+03   -.185E+03 0.207E+02 0.109E+03   0.166E+01 -.316E+00 0.612E+00   -.589E-01 0.145E-01 0.171E-01
   0.141E+03 0.101E+03 -.635E+02   -.144E+03 -.105E+03 0.639E+02   0.211E+01 0.136E+01 0.176E+00   -.342E-01 -.450E-02 -.307E-01
   0.136E+03 -.179E+02 0.427E+02   -.138E+03 0.211E+02 -.465E+02   -.917E+00 -.221E+01 0.277E+01   -.292E-01 0.465E-02 0.904E-02
   0.227E+03 0.138E+03 -.195E+01   -.229E+03 -.138E+03 0.863E-01   -.249E+00 0.232E+01 0.443E+01   0.412E-02 -.354E-01 0.153E-02
   -.165E+03 0.872E+02 -.469E+02   0.167E+03 -.894E+02 0.478E+02   0.201E+01 0.141E+01 -.175E+01   0.264E-01 -.475E-01 0.858E-02
   0.240E+03 0.304E+03 0.804E+02   -.245E+03 -.309E+03 -.774E+02   0.779E+00 0.123E+01 -.227E+01   0.177E-01 -.649E-02 -.193E-01
   0.324E+02 0.110E+03 0.281E+02   -.331E+02 -.113E+03 -.308E+02   0.991E+00 0.626E+00 0.303E+01   0.280E-01 0.182E-02 0.400E-02
   0.568E+02 -.105E+03 -.360E+01   -.594E+02 0.110E+03 0.104E+02   0.563E+00 -.341E+01 -.621E+01   0.560E-01 0.955E-02 -.130E-01
   -.527E+02 -.117E+03 0.302E+02   0.523E+02 0.121E+03 -.351E+02   0.111E+01 -.289E+01 0.299E+01   0.496E-01 0.114E-01 -.256E-01
   -.114E+02 -.123E+03 -.298E+02   0.123E+02 0.126E+03 0.299E+02   -.110E+01 -.347E+01 -.168E+00   0.163E-01 -.178E-01 -.234E-01
   -.555E+02 -.268E+02 0.682E+02   0.640E+02 0.288E+02 -.733E+02   -.819E+01 -.101E+01 0.477E+01   0.951E-02 -.101E-01 0.290E-01
   -.132E+03 -.272E+02 -.334E+02   0.141E+03 0.288E+02 0.380E+02   -.690E+01 -.922E+00 -.619E+01   0.115E-01 -.270E-01 -.143E-01
   -.138E+03 0.113E+02 -.251E+02   0.145E+03 -.120E+02 0.175E+02   -.414E+01 0.163E+01 0.783E+01   -.176E-01 0.128E-01 -.197E-01
   -.614E+02 0.153E+03 0.967E+02   0.737E+02 -.160E+03 -.981E+02   -.106E+02 0.442E+01 0.617E+00   -.102E-02 0.185E-01 0.346E-02
   -.143E+03 -.497E+02 -.482E+02   0.149E+03 0.559E+02 0.492E+02   -.323E+01 -.540E+01 0.180E+01   -.184E-01 0.351E-01 -.189E-01
   -.289E+02 0.946E+02 0.539E+02   0.325E+02 -.105E+03 -.618E+02   0.485E+00 0.752E+01 0.582E+01   -.825E-02 -.322E-02 -.124E-01
   -.854E+02 -.718E+01 0.725E+02   0.870E+02 -.809E+01 -.813E+02   -.138E+01 0.112E+02 0.527E+01   0.814E-02 0.597E-01 0.549E-01
   0.758E+02 -.871E+02 0.640E+02   -.810E+02 0.880E+02 -.652E+02   0.425E+01 0.249E+00 -.744E-02   -.566E-01 0.906E-02 -.405E-01
   -.103E+03 -.189E+03 -.498E+02   0.109E+03 0.201E+03 0.502E+02   -.449E+01 -.102E+02 -.155E+00   -.976E-03 -.716E-03 -.969E-02
   -.978E+02 0.151E+01 0.177E+02   0.103E+03 -.126E+02 -.207E+02   -.376E+01 0.109E+02 0.391E+01   0.397E-01 -.264E-01 0.426E-01
   -.991E+02 -.264E+02 0.132E+03   0.115E+03 0.325E+02 -.148E+03   -.796E+01 -.322E+01 0.993E+01   -.193E-01 -.433E-01 -.267E-01
   0.461E+02 0.506E+02 -.119E+03   -.538E+02 -.561E+02 0.127E+03   0.675E+01 0.483E+01 -.496E+01   0.249E-01 -.267E-01 -.126E-01
   -.817E+02 -.179E+02 -.492E+01   0.818E+02 0.260E+02 0.131E+02   0.657E+00 -.747E+01 -.693E+01   -.478E-02 0.270E-01 0.279E-01
   0.483E+02 0.103E+03 0.829E+02   -.523E+02 -.105E+03 -.936E+02   0.263E+01 0.159E+01 0.804E+01   -.315E-01 -.150E-01 -.205E-02
   -.110E+03 0.957E+02 -.216E+02   0.127E+03 -.104E+03 0.204E+02   -.118E+02 0.298E+01 0.336E+01   -.273E-01 0.218E-01 0.193E-02
   0.191E+02 0.229E+00 0.573E+02   -.119E+02 -.339E+01 -.644E+02   -.571E+01 0.492E+01 0.440E+01   -.687E-01 0.169E-01 -.135E-01
   0.818E+01 -.248E+02 0.523E+02   -.727E+01 0.211E+02 -.562E+02   0.129E+01 0.197E+01 0.141E+01   0.284E-01 0.483E-01 0.273E-01
   0.109E+03 -.134E+03 -.116E+03   -.119E+03 0.142E+03 0.126E+03   0.791E+01 -.575E+01 -.724E+01   -.202E-03 0.284E-02 -.300E-02
   0.116E+03 0.961E+02 0.745E+02   -.122E+03 -.105E+03 -.804E+02   0.544E+01 0.614E+01 0.325E+01   -.396E-01 -.179E-01 0.240E-01
   0.605E+02 0.193E+03 0.770E+02   -.631E+02 -.219E+03 -.893E+02   0.283E+01 0.138E+02 0.528E+01   -.649E-02 0.119E-01 -.318E-02
   0.201E+03 0.412E+02 -.204E+03   -.214E+03 -.430E+02 0.226E+03   0.636E+01 -.199E+01 -.141E+02   -.925E-02 0.229E-01 -.603E-02
   -.988E+00 0.151E+03 0.965E+01   0.544E+01 -.154E+03 -.698E+01   -.319E+01 0.854E+00 -.149E+01   0.107E-01 -.472E-01 -.242E-01
   0.250E+03 0.157E+03 -.123E+03   -.289E+03 -.180E+03 0.146E+03   0.146E+02 0.852E+01 -.671E+01   0.545E-01 0.175E-02 0.209E-01
   -.818E+02 0.161E+03 -.180E+02   0.958E+02 -.173E+03 0.151E+02   -.120E+02 0.893E+01 0.245E+01   0.350E-01 -.738E-04 0.343E-02
 -----------------------------------------------------------------------------------------------
   0.426E+02 -.571E+02 -.289E+02   -.767E-12 -.142E-12 -.131E-12   -.426E+02 0.570E+02 0.289E+02   0.388E-01 0.105E+00 -.166E-01
 
 
 POSITION                                       TOTAL-FORCE (eV/Angst)
 -----------------------------------------------------------------------------------
      0.23270      0.01188      0.02610        -5.678251      2.411394     -0.243328
      1.44287      0.53866      2.39210         0.340411      5.591833      2.284254
     -0.22518      1.71028      4.65714         2.825921     -0.791543      0.768313
      7.01501      2.23413      6.75767         0.772726      3.293690      3.490307
      0.12543      3.50862      2.56436        -0.008672     -1.378352     -2.762019
     -1.53617      4.04935      4.87807         2.912912      0.951821     -5.051033
      5.54808      4.76506      6.85843         2.774260     15.385137      3.794215
     -1.53848      5.82806      2.31090         0.665008     -1.134986      0.136384
     -2.90660      6.56496      4.99454        22.982130     15.527225    -17.797087
     -1.46216      7.28738      0.40449        -3.713354      1.409178     -5.428020
      4.40253      0.65757      2.45849         0.225671      2.730260      1.824431
      2.76017      1.31283      4.76129         1.289600      5.896537      2.230753
      1.67531      2.46899      6.81591        -8.843459     -2.386642      6.929174
      2.94517      3.39226      2.38173         0.057370     -0.630286     -0.376886
      1.36850      3.98774      4.61843         0.402635      0.202564     -0.018147
      0.03913      5.10469      6.90206        -0.978039     -0.691442      1.314153
      1.59357      5.78718      2.20043        -2.141870     -0.527405     -0.989049
      0.22267      6.63793      4.67364        -4.526061     -1.852361      1.802945
      1.64426      7.35229      0.01149        -4.239085     -0.424915      0.181917
      7.05793      0.60587      2.26654         1.415064      2.660976      1.905844
      5.70454      1.70596      4.23508        -1.956088     -0.726565      0.388390
      4.43939      2.54690      6.91591        -0.814133     -2.521406      0.627879
      6.02474      3.10369      2.36412        -2.513384      0.992336     -1.031577
      4.26642      4.21994      4.61308        -1.807313      2.282112      2.572351
      2.59648      4.89215      6.64147         3.153157     -0.869791     -0.809733
      4.58685      5.89243      2.45107        -4.017947     -4.373719      0.791259
      2.93374      6.71316      4.70320         0.370476     -1.733165      0.307090
     -4.08950      7.33705      3.55783        -1.946693      1.931119      0.579477
      1.29239      0.93564      5.89898         0.690787      1.071799     -1.893927
      0.09305      1.80026      1.30193        -0.165755     -0.006312     -0.153441
     -1.32276      2.52124      3.55501         0.385692      0.976241     -0.304948
     -0.20237      3.32599      6.12502         2.282291      0.601667     -1.640334
     -1.59120      4.12611      1.16282         2.537800      0.924626      0.256919
     -2.95495      5.25569      3.77518         1.628482     -3.020869     -0.731465
     -1.43443      5.69849      5.60106         2.852001      0.786001      2.744607
     -3.13576      6.67060      1.20931         4.135797     -2.784032     -2.069478
      2.78631      0.00301      3.81961         0.206414     -3.984962     -3.433076
      4.36919      0.70434      6.16430        -0.927078      1.136447     -1.203549
      2.58102      1.49603      1.38841         1.793470      1.579552      0.280260
      1.37702      2.44145      3.43962         1.094572     -0.168120      0.965532
      2.87025      3.07212      6.04601         7.935410      2.812431     -6.052992
      1.64507      4.09146      0.96456        -0.981014     -0.696552      2.838497
     -0.34953      4.97690      3.45982         0.733564      0.693612      1.269774
      1.44797      5.97590      5.95246        -1.397061     -1.121600     -2.606634
     -0.17619      6.87060      1.23919         5.126876     -5.046333      2.157315
      1.46814      7.22993      3.70984         1.454496      1.773521     -2.628297
      7.17134      0.74575      5.92083         2.230175     -1.703187     -2.520736
      5.86823      1.36785      0.98128        -1.324552      3.112054      2.376527
      4.38361      2.89061      3.63400        -0.454920     -2.934742     -2.654327
      5.83633      3.58906      6.01895         0.246071    -12.453058     -6.961908
      4.68179      4.06252      1.01894        -6.721407     -3.799380      7.924072
      2.68102      5.26511      3.49775         1.271324     -2.349008      1.160273
      4.62874      5.97699      5.71863       -23.789803    -13.862166     15.890362
      2.84288      6.64805      1.08952         2.153375     -2.761235     -0.431282
 -----------------------------------------------------------------------------------
    total drift:                               -0.000644     -0.029550      0.002149


--------------------------------------------------------------------------------------------------------



  FREE ENERGIE OF THE ION-ELECTRON SYSTEM (eV)
  ---------------------------------------------------
  free  energy   TOTEN  =      -303.5176174413 eV

  energy  without entropy=     -303.4609807635  energy(sigma->0) =     -303.48929910
 


--------------------------------------------------------------------------------------------------------


    POTLOK:  cpu time    0.1613: real time    0.1616


--------------------------------------------------------------------------------------------------------


     LOOP+:  cpu time13570.3311: real time13604.7533
    4ORBIT:  cpu time    0.0000: real time    0.0000

volume of typ            1:    39.6 %

volume of typ            2:    10.1 %
 
total charge     
 
# of ion       s       p       d       tot
------------------------------------------
    1        0.286   0.389   8.087   8.762
    2        0.276   0.374   8.039   8.688
    3        0.225   0.269   8.064   8.559
    4        0.274   0.361   8.042   8.677
    5        0.239   0.275   8.000   8.514
    6        0.270   0.356   8.038   8.665
    7        0.389   0.533   8.170   9.092
    8        0.219   0.257   8.048   8.524
    9        0.403   0.608   8.220   9.232
   10        0.276   0.348   8.101   8.725
   11        0.225   0.252   8.082   8.560
   12        0.254   0.288   8.088   8.630
   13        0.300   0.397   8.049   8.747
   14        0.185   0.185   8.002   8.372
   15        0.188   0.183   8.046   8.418
   16        0.203   0.223   8.032   8.458
   17        0.226   0.259   8.054   8.539
   18        0.247   0.314   8.034   8.595
   19        0.332   0.496   8.052   8.880
   20        0.228   0.265   8.051   8.544
   21        0.236   0.271   8.107   8.614
   22        0.234   0.267   8.041   8.542
   23        0.246   0.281   8.057   8.585
   24        0.258   0.296   8.080   8.634
   25        0.265   0.310   8.082   8.657
   26        0.280   0.364   8.100   8.745
   27        0.243   0.303   8.067   8.613
   28        1.271   2.823   0.013   4.107
   29        1.263   2.847   0.015   4.125
   30        1.287   2.708   0.004   3.999
   31        1.257   2.847   0.019   4.123
   32        1.278   2.777   0.010   4.065
   33        1.287   2.753   0.009   4.049
   34        1.285   2.816   0.015   4.115
   35        1.284   2.795   0.011   4.090
   36        1.258   2.917   0.028   4.204
   37        1.271   2.826   0.016   4.113
   38        1.282   2.756   0.007   4.045
   39        1.282   2.771   0.010   4.063
   40        1.279   2.748   0.009   4.036
   41        1.267   2.852   0.021   4.139
   42        1.271   2.784   0.011   4.065
   43        1.273   2.780   0.010   4.062
   44        1.259   2.874   0.019   4.152
   45        1.274   2.848   0.021   4.143
   46        1.269   2.834   0.018   4.122
   47        1.261   2.867   0.018   4.146
   48        1.269   2.838   0.015   4.122
   49        1.264   2.807   0.014   4.085
   50        1.282   2.919   0.032   4.232
   51        1.276   2.832   0.017   4.125
   52        1.275   2.778   0.010   4.063
   53        1.288   2.959   0.040   4.287
   54        1.271   2.832   0.015   4.118
--------------------------------------------------
tot          41.39   84.91  218.26  344.57
 
magnetization (x)
 
# of ion       s       p       d       tot
------------------------------------------
    1        0.002   0.003   0.425   0.429
    2        0.001   0.003   0.310   0.313
    3        0.002   0.001   0.560   0.563
    4       -0.000  -0.001  -0.083  -0.085
    5       -0.003  -0.002  -0.387  -0.391
    6        0.001   0.002   0.361   0.364
    7        0.001   0.004   0.039   0.044
    8        0.001   0.003   0.654   0.658
    9        0.000   0.002   0.038   0.040
   10       -0.001  -0.002  -0.214  -0.217
   11        0.004   0.003   0.541   0.548
   12        0.005   0.002   0.204   0.212
   13       -0.002  -0.001  -0.126  -0.129
   14        0.004   0.002   0.790   0.796
   15       -0.001  -0.003  -0.987  -0.990
   16        0.001   0.000  -0.746  -0.745
   17       -0.001  -0.007  -0.632  -0.640
   18       -0.002  -0.002  -0.378  -0.382
   19       -0.002   0.000  -0.107  -0.109
   20        0.002   0.006   0.868   0.876
   21        0.000   0.001   0.242   0.244
   22        0.001   0.001   0.292   0.294
   23        0.002   0.001   0.223   0.226
   24        0.003   0.002   0.031   0.035
   25       -0.002  -0.010  -0.633  -0.645
   26       -0.001  -0.007  -0.375  -0.384
   27        0.003   0.001   0.259   0.263
   28        0.004   0.033   0.000   0.037
   29        0.004   0.026   0.000   0.030
   30        0.003   0.062   0.000   0.064
   31        0.008   0.048   0.000   0.056
   32       -0.001  -0.018  -0.000  -0.019
   33        0.002   0.038  -0.000   0.040
   34       -0.001  -0.018  -0.000  -0.019
   35        0.001  -0.009   0.000  -0.009
   36        0.004   0.024   0.000   0.028
   37        0.004   0.035   0.000   0.039
   38        0.000  -0.008   0.000  -0.008
   39       -0.001  -0.007  -0.000  -0.008
   40       -0.001  -0.027   0.000  -0.027
   41       -0.003  -0.051  -0.000  -0.054
   42       -0.006  -0.064  -0.000  -0.070
   43       -0.000  -0.037   0.000  -0.037
   44       -0.006  -0.060   0.000  -0.066
   45        0.001   0.051   0.000   0.052
   46        0.002   0.026  -0.000   0.028
   47        0.001   0.013  -0.000   0.014
   48        0.008   0.045   0.000   0.053
   49        0.005   0.044  -0.000   0.049
   50        0.005   0.039   0.000   0.043
   51        0.001   0.017   0.000   0.018
   52       -0.001  -0.065  -0.000  -0.066
   53        0.004   0.023   0.000   0.027
   54        0.001   0.008   0.000   0.009
--------------------------------------------------
tot           0.06    0.17    1.17    1.40
 

 total amount of memory used by VASP MPI-rank0   360468. kBytes
=======================================================================

   base      :      30000. kBytes
   nonlr-proj:      39895. kBytes
   fftplans  :       4688. kBytes
   grid      :      26804. kBytes
   one-center:       1679. kBytes
   wavefun   :     257402. kBytes
 
  
  
 General timing and accounting informations for this job:
 ========================================================
  
                  Total CPU time used (sec):    13640.140
                            User time (sec):    13630.186
                          System time (sec):        9.953
                         Elapsed time (sec):    13678.465
  
                   Maximum memory used (kb):      463364.
                   Average memory used (kb):           0.
  
                          Minor page faults:        46757
                          Major page faults:           53
                 Voluntary context switches:         1234
