 vasp.5.4.4.18Apr17-6-g9f103f2a35 (build May 12 2020 04:58:55) complex          
  
 MD_VERSION_INFO: Compiled 2020-05-12T11:58:55-UTC in devlin.sd.materialsdesign.
 com:/home/medea2/data/build/wwolf/vasp-gpu5.4.4/13047/x86_64/src/src/build/std 
 from svn 13047
 
 This VASP executable licensed from Materials Design, Inc.
 
 executed on                        Lin64 date 2023.03.24  15:25:29
 running on   16 total cores
 distrk:  each k-point on   16 cores,    1 groups
 distr:  one band on NCORES_PER_BAND=   1 cores,   16 groups


--------------------------------------------------------------------------------------------------------


 INCAR:
 POTCAR:    PAW_PBE Ni 02Aug2007                  
 POTCAR:    PAW_PBE O 08Apr2002                   

 ----------------------------------------------------------------------------- 
|                                                                             |
|           W    W    AA    RRRRR   N    N  II  N    N   GGGG   !!!           |
|           W    W   A  A   R    R  NN   N  II  NN   N  G    G  !!!           |
|           W    W  A    A  R    R  N N  N  II  N N  N  G       !!!           |
|           W WW W  AAAAAA  RRRRR   N  N N  II  N  N N  G  GGG   !            |
|           WW  WW  A    A  R   R   N   NN  II  N   NN  G    G                |
|           W    W  A    A  R    R  N    N  II  N    N   GGGG   !!!           |
|                                                                             |
|      For optimal performance we recommend to set                            |
|        NCORE= 4 - approx SQRT( number of cores)                             |
|      NCORE specifies how many cores store one orbital (NPAR=cpu/NCORE).     |
|      This setting can  greatly improve the performance of VASP for DFT.     |
|      The default,   NCORE=1            might be grossly inefficient         |
|      on modern multi-core architectures or massively parallel machines.     |
|      Do your own testing !!!!                                               |
|      Unfortunately you need to use the default for GW and RPA calculations. |
|      (for HF NCORE is supported but not extensively tested yet)             |
|                                                                             |
 ----------------------------------------------------------------------------- 

 POTCAR:    PAW_PBE Ni 02Aug2007                  
  local pseudopotential read in
  partial core-charges read in
  partial kinetic energy density read in
  atomic valenz-charges read in
  non local Contribution for L=           2  read in
    real space projection operators read in
  non local Contribution for L=           2  read in
    real space projection operators read in
  non local Contribution for L=           0  read in
    real space projection operators read in
  non local Contribution for L=           0  read in
    real space projection operators read in
  non local Contribution for L=           1  read in
    real space projection operators read in
  non local Contribution for L=           1  read in
    real space projection operators read in
    PAW grid and wavefunctions read in
 
   number of l-projection  operators is LMAX  =           6
   number of lm-projection operators is LMMAX =          18
 
 POTCAR:    PAW_PBE O 08Apr2002                   
  local pseudopotential read in
  partial core-charges read in
  partial kinetic energy density read in
  kinetic energy density of atom read in
  atomic valenz-charges read in
  non local Contribution for L=           0  read in
    real space projection operators read in
  non local Contribution for L=           0  read in
    real space projection operators read in
  non local Contribution for L=           1  read in
    real space projection operators read in
  non local Contribution for L=           1  read in
    real space projection operators read in
    PAW grid and wavefunctions read in
 
   number of l-projection  operators is LMAX  =           4
   number of lm-projection operators is LMMAX =           8
 
 Optimization of the real space projectors (new method)

 maximal supplied QI-value         = 16.25
 optimisation between [QCUT,QGAM] = [ 11.38, 22.75] = [ 36.24,144.96] Ry 
 Optimized for a Real-space Cutoff    1.47 Angstroem

   l    n(q)    QCUT    max X(q) W(low)/X(q) W(high)/X(q)  e(spline) 
   2      9    11.376    60.317    0.17E-03    0.16E-04    0.16E-06
   2      9    11.376    55.921    0.17E-03    0.16E-04    0.17E-06
   0     10    11.376    51.690    0.45E-04    0.60E-04    0.21E-06
   0     10    11.376    30.015    0.37E-04    0.55E-04    0.19E-06
   1     10    11.376    18.849    0.83E-04    0.11E-03    0.92E-07
   1     10    11.376    14.624    0.69E-04    0.92E-04    0.82E-07
 Optimization of the real space projectors (new method)

 maximal supplied QI-value         = 24.76
 optimisation between [QCUT,QGAM] = [ 11.39, 22.77] = [ 36.31,145.25] Ry 
 Optimized for a Real-space Cutoff    1.10 Angstroem

   l    n(q)    QCUT    max X(q) W(low)/X(q) W(high)/X(q)  e(spline) 
   0      7    11.387    20.381    0.22E-03    0.48E-03    0.18E-06
   0      7    11.387    15.268    0.22E-03    0.52E-03    0.19E-06
   1      7    11.387     5.964    0.22E-03    0.73E-03    0.24E-06
   1      7    11.387     5.382    0.19E-03    0.60E-03    0.21E-06

 ----------------------------------------------------------------------------- 
|                                                                             |
|  ADVICE TO THIS USER RUNNING 'VASP/VAMP'   (HEAR YOUR MASTER'S VOICE ...):  |
|                                                                             |
|      You enforced a specific xc-type in the INCAR file,                     |
|      a different type was found on the POTCAR file                          |
|          I HOPE YOU KNOW, WHAT YOU ARE  DOING                               |
|                                                                             |
 ----------------------------------------------------------------------------- 

  PAW_PBE Ni 02Aug2007                  :
 energy of atom  1       EATOM=-1077.6739
 kinetic energy error for atom=    0.0030 (will be added to EATOM!!)
  PAW_PBE O 08Apr2002                   :
 energy of atom  2       EATOM= -432.3788
 kinetic energy error for atom=    0.0224 (will be added to EATOM!!)
 
 
 POSCAR: NiO_C2_m_scale_0_975_disp_0_15_round_1  
  positions in direct lattice
  No initial velocities read in
 exchange correlation table for  LEXCH =       14
   RHO(1)=    0.500       N(1)  =     2000
   RHO(2)=  100.500       N(2)  =     4000
 


--------------------------------------------------------------------------------------------------------


 ion  position               nearest neighbor table
   1  0.031  0.015  0.967-  29 1.60  53 1.65  47 1.72  30 2.01  36 2.11  27 2.39   9 2.46  54 2.51
                             3 2.53  25 2.65   4 2.67   7 2.80  19 2.81  13 2.85  10 2.90   2 2.91
   2  0.234  0.127  0.326-  40 1.83  30 1.84  39 1.93  36 1.93  37 2.05  28 2.26   8 2.63  10 2.63
                            26 2.77  20 2.77  13 2.81  14 2.86   9 2.89   1 2.91   3 2.95   5 3.04
   3  0.120  0.230  0.684-  31 1.86  29 1.89  28 1.92  32 1.99  40 2.14  47 2.20   4 2.38   1 2.53
                            27 2.64   5 2.65   9 2.69  15 2.71  21 2.78  13 2.80  12 2.84  20 2.87
   4  0.015  0.320  0.957-  32 1.66  47 1.80  50 1.84  48 1.94  30 2.16   3 2.38  21 2.58   1 2.67
                            13 2.69  20 2.81   6 2.81  22 2.82  19 2.84  23 3.00  16 3.07
   5  0.200  0.461  0.393-  31 1.63  43 1.74  33 2.21  23 2.39  40 2.42  30 2.45  20 2.48   6 2.50
                             3 2.65  15 2.87   8 2.92   2 3.04  17 3.05
   6  0.151  0.604  0.686-  50 1.80  35 1.83  43 1.89  32 2.08  34 2.09  31 2.26   5 2.50  18 2.59
                            15 2.62  16 2.68   4 2.81   9 2.82   7 2.89   8 2.89  24 2.97   3 3.05
   7  0.004  0.677  0.027-  33 1.78  50 1.93  51 1.93  36 1.98  53 2.01  35 2.09  23 2.62   8 2.68
                            22 2.70  25 2.73   1 2.80  26 2.87   6 2.89  10 2.91   9 3.01  24 3.01
   8  0.222  0.811  0.334-  36 1.78  37 1.80  43 1.84  33 1.93  45 1.94  34 2.13  10 2.44   2 2.63
                            26 2.65   7 2.68   9 2.82  23 2.85  11 2.86   6 2.89  17 2.91   5 2.92
   9  0.092  0.902  0.666-  28 1.71  34 1.95  53 2.00  37 2.09  29 2.18  35 2.27   1 2.46  26 2.48
                            27 2.50  24 2.68   3 2.69   6 2.82   8 2.82  12 2.88   2 2.89  18 2.99
  10  0.359  0.004  0.052-  45 1.67  39 1.92  36 2.04  35 2.07  38 2.14  29 2.38   8 2.44  11 2.57
                             2 2.63  16 2.73  18 2.77  12 2.86   1 2.90  19 2.91   7 2.91  22 2.92
  11  0.585  0.112  0.334-  46 1.84  45 1.84  39 2.13  37 2.22  48 2.27  49 2.27  17 2.47  10 2.57
                            14 2.62  22 2.69  20 2.73  21 2.80  19 2.84   8 2.86  23 2.88  18 2.95
  12  0.447  0.218  0.708-  41 1.75  40 1.92  29 1.98  38 2.14  37 2.16  49 2.28  18 2.59  13 2.74
                             3 2.84  10 2.86   9 2.88  21 2.91  14 2.91  15 2.94  22 2.96  24 3.01
  13  0.348  0.362  0.007-  42 1.78  41 1.86  32 1.89  29 1.96  39 2.12  30 2.13  15 2.40   4 2.69
                            16 2.71  12 2.74   3 2.80   2 2.81   1 2.85  25 3.04  14 3.08
  14  0.598  0.425  0.355-  49 1.57  39 1.89  51 1.93  40 2.09  52 2.19  24 2.57  22 2.60  11 2.62
                            23 2.66   2 2.86  12 2.91  26 2.98  13 3.08
  15  0.429  0.554  0.727-  32 1.80  44 2.06  41 2.10  13 2.40  16 2.41  40 2.42  52 2.42   6 2.62
                            25 2.68   3 2.71   5 2.87  12 2.94  18 2.99  24 3.01
  16  0.364  0.689  0.999-  44 1.77  42 1.82  35 1.99  32 2.06  45 2.09  33 2.20  15 2.41  19 2.64
                            18 2.65   6 2.68  13 2.71  10 2.73  25 2.81  17 2.92   7 3.02   8 3.04
  17  0.564  0.812  0.362-  46 1.65  54 1.97  45 1.97  43 2.03  52 2.18  42 2.39  11 2.47  19 2.79
                            18 2.85   8 2.91  16 2.92  26 2.96  27 3.04   5 3.05  20 3.05
  18  0.448  0.914  0.702-  38 1.65  35 1.89  44 1.90  37 2.05  43 2.32  46 2.37   6 2.59  12 2.59
                            16 2.65  10 2.77  21 2.77  19 2.79  17 2.85  11 2.95   9 2.99  15 2.99
  19  0.688  0.984  0.006-  54 1.43  47 1.71  44 1.72  38 1.94  45 2.22  48 2.35  25 2.37  27 2.47
                            16 2.64  18 2.79  17 2.79   1 2.81   4 2.84  11 2.84  20 2.88  21 2.89
  20  0.928  0.163  0.326-  48 1.59  30 1.76  31 1.89  54 2.05  46 2.08  28 2.26   5 2.48  23 2.48
                            11 2.73   2 2.77   4 2.81  21 2.84   3 2.87  19 2.88  26 2.98  17 3.05
  21  0.789  0.221  0.674-  38 2.00  31 2.00  46 2.09  49 2.12  47 2.24  50 2.32   4 2.58  27 2.67
                            18 2.77   3 2.78  11 2.80  20 2.84  19 2.89  12 2.91  22 2.95  23 3.00
  22  0.703  0.345  0.036-  51 1.89  48 2.05  39 2.08  41 2.11  50 2.30  38 2.32  23 2.53  14 2.60
                            11 2.69   7 2.70   4 2.82  10 2.92  21 2.95  12 2.96  19 3.02
  23  0.921  0.451  0.317-  48 1.75  33 1.80  31 2.15  49 2.18  34 2.20  51 2.24   5 2.39  20 2.48
                            22 2.53   7 2.62  14 2.66   8 2.85  11 2.88   4 3.00  21 3.00  24 3.02
  24  0.790  0.576  0.657-  34 1.77  52 1.79  49 1.82  41 2.28  53 2.28  50 2.37  14 2.57  26 2.63
                             9 2.68  25 2.76  27 2.86   6 2.97  12 3.01   7 3.01  15 3.01  23 3.02
  25  0.707  0.717  0.976-  53 1.62  44 1.98  51 2.06  42 2.08  54 2.16  27 2.36  19 2.37  41 2.40
                             1 2.65  15 2.68   7 2.73  24 2.76  16 2.81  13 3.04
  26  0.908  0.804  0.366-  34 1.90  52 1.91  28 1.92  36 1.96  51 2.25   9 2.48  54 2.49  24 2.63
                             8 2.65   2 2.77  27 2.87   7 2.87  17 2.96  14 2.98  20 2.98  23 3.08
  27  0.811  0.920  0.713-  47 1.70  28 1.85  53 1.88  44 2.10  46 2.24  52 2.25  25 2.36   1 2.39
                            19 2.47   9 2.50   3 2.64  21 2.67  24 2.86  26 2.87  17 3.04  18 3.06
  28  0.001  0.009  0.539-   9 1.71  27 1.85   3 1.92  26 1.92  20 2.26   2 2.26
  29  0.221  0.135  0.860-   1 1.60   3 1.89  13 1.96  12 1.98   9 2.18  10 2.38
  30  0.110  0.205  0.174-  20 1.76   2 1.84   1 2.01  13 2.13   4 2.16   5 2.45
  31  0.022  0.336  0.526-   5 1.63   3 1.86  20 1.89  21 2.00  23 2.15   6 2.26
  32  0.218  0.445  0.858-   4 1.66  15 1.80  13 1.89   3 1.99  16 2.06   6 2.08
  33  0.119  0.596  0.175-   7 1.78  23 1.80   8 1.93  16 2.20   5 2.21
  34  0.993  0.677  0.520-  24 1.77  26 1.90   9 1.95   6 2.09   8 2.13  23 2.20
  35  0.236  0.795  0.854-   6 1.83  18 1.89  16 1.99  10 2.07   7 2.09   9 2.27
  36  0.114  0.901  0.186-   8 1.78   2 1.93  26 1.96   7 1.98  10 2.04   1 2.11
  37  0.329  0.998  0.501-   8 1.80   2 2.05  18 2.05   9 2.09  12 2.16  11 2.22
  38  0.574  0.085  0.847-  18 1.65  19 1.94  21 2.00  10 2.14  12 2.14  22 2.32
  39  0.457  0.234  0.181-  14 1.89  10 1.92   2 1.93  22 2.08  13 2.12  11 2.13
  40  0.354  0.304  0.508-   2 1.83  12 1.92  14 2.09   3 2.14  15 2.42   5 2.42
  41  0.547  0.412  0.854-  12 1.75  13 1.86  15 2.10  22 2.11  24 2.28  25 2.40
  42  0.465  0.574  0.128-  13 1.78  16 1.82  25 2.08  17 2.39
  43  0.309  0.686  0.472-   5 1.74   8 1.84   6 1.89  17 2.03  18 2.32
  44  0.558  0.807  0.852-  19 1.72  16 1.77  18 1.90  25 1.98  15 2.06  27 2.10
  45  0.446  0.906  0.189-  10 1.67  11 1.84   8 1.94  17 1.97  16 2.09  19 2.22
  46  0.689  0.006  0.478-  17 1.65  11 1.84  20 2.08  21 2.09  27 2.24  18 2.37
  47  0.888  0.087  0.881-  27 1.70  19 1.71   1 1.72   4 1.80   3 2.20  21 2.24
  48  0.855  0.256  0.178-  20 1.59  23 1.75   4 1.94  22 2.05  11 2.27  19 2.35
  49  0.693  0.369  0.513-  14 1.57  24 1.82  21 2.12  23 2.18  11 2.27  12 2.28
  50  0.961  0.485  0.848-   6 1.80   4 1.84   7 1.93  22 2.30  21 2.32  24 2.37
  51  0.773  0.569  0.161-  22 1.89  14 1.93   7 1.93  25 2.06  23 2.24  26 2.25
  52  0.690  0.679  0.514-  24 1.79  26 1.91  17 2.18  14 2.19  27 2.25  15 2.42
  53  0.905  0.809  0.875-  25 1.62   1 1.65  27 1.88   9 2.00   7 2.01  24 2.28
  54  0.758  0.936  0.170-  19 1.43  17 1.97  20 2.05  25 2.16  26 2.49   1 2.51
 
  LATTYP: Found a hexagonal cell.
 ALAT       =     8.5043595001
 C/A-ratio  =     0.8152863540
  
  Lattice vectors:
  
 A1 = (   8.5043595000,   0.0000000000,   0.0000000000)
 A2 = (  -4.2521797500,   7.3649913700,   0.0000000000)
 A3 = (   0.0000000000,   0.0000000000,   6.9334882500)


Analysis of symmetry for initial positions (statically):
=====================================================================
 Subroutine PRICEL returns:
 Original cell was already a primitive cell.
 

 Routine SETGRP: Setting up the symmetry group for a 
 hexagonal supercell.


 Subroutine GETGRP returns: Found  1 space group operations
 (whereof  1 operations were pure point group operations)
 out of a pool of 24 trial point group operations.


The static configuration has the point symmetry C_1 .


Analysis of symmetry for dynamics (positions and initial velocities):
=====================================================================
 Subroutine PRICEL returns:
 Original cell was already a primitive cell.
 

 Routine SETGRP: Setting up the symmetry group for a 
 hexagonal supercell.


 Subroutine GETGRP returns: Found  1 space group operations
 (whereof  1 operations were pure point group operations)
 out of a pool of 24 trial point group operations.


The dynamic configuration has the point symmetry C_1 .


Analysis of structural, dynamic, and magnetic symmetry:
=====================================================================
 Subroutine PRICEL returns:
 Original cell was already a primitive cell.
 

 Routine SETGRP: Setting up the symmetry group for a 
 hexagonal supercell.


 Subroutine GETGRP returns: Found  1 space group operations
 (whereof  1 operations were pure point group operations)
 out of a pool of 24 trial point group operations.


The magnetic configuration has the point symmetry C_1 .


 Subroutine INISYM returns: Found  1 space group operations
 (whereof  1 operations are pure point group operations),
 and found     1 'primitive' translations

 
 
 KPOINTS: Automatic mesh                          

Automatic generation of k-mesh.
Space group operators:
 irot       det(A)        alpha          n_x          n_y          n_z        tau_x        tau_y        tau_z
    1     1.000000     0.000000     1.000000     0.000000     0.000000     0.000000     0.000000     0.000000
 
 Subroutine IBZKPT returns following result:
 ===========================================
 
 Found     36 irreducible k-points:
 
 Following reciprocal coordinates:
            Coordinates               Weight
  0.000000  0.000000  0.000000      1.000000
  0.250000  0.000000  0.000000      2.000000
  0.500000  0.000000  0.000000      1.000000
  0.000000  0.250000  0.000000      2.000000
  0.250000  0.250000  0.000000      2.000000
  0.500000  0.250000  0.000000      2.000000
 -0.250000  0.250000  0.000000      2.000000
  0.000000  0.500000  0.000000      1.000000
  0.250000  0.500000  0.000000      2.000000
  0.500000  0.500000  0.000000      1.000000
  0.000000  0.000000  0.250000      2.000000
  0.250000  0.000000  0.250000      2.000000
  0.500000  0.000000  0.250000      2.000000
 -0.250000 -0.000000  0.250000      2.000000
  0.000000  0.250000  0.250000      2.000000
  0.250000  0.250000  0.250000      2.000000
  0.500000  0.250000  0.250000      2.000000
 -0.250000  0.250000  0.250000      2.000000
  0.000000  0.500000  0.250000      2.000000
  0.250000  0.500000  0.250000      2.000000
  0.500000  0.500000  0.250000      2.000000
 -0.250000  0.500000  0.250000      2.000000
  0.000000 -0.250000  0.250000      2.000000
  0.250000 -0.250000  0.250000      2.000000
  0.500000 -0.250000  0.250000      2.000000
 -0.250000 -0.250000  0.250000      2.000000
  0.000000  0.000000  0.500000      1.000000
  0.250000  0.000000  0.500000      2.000000
  0.500000  0.000000  0.500000      1.000000
  0.000000  0.250000  0.500000      2.000000
  0.250000  0.250000  0.500000      2.000000
  0.500000  0.250000  0.500000      2.000000
 -0.250000  0.250000  0.500000      2.000000
  0.000000  0.500000  0.500000      1.000000
  0.250000  0.500000  0.500000      2.000000
  0.500000  0.500000  0.500000      1.000000
 
 Following cartesian coordinates:
            Coordinates               Weight
  0.000000  0.000000  0.000000      1.000000
  0.029397  0.016972  0.000000      2.000000
  0.058793  0.033944  0.000000      1.000000
  0.000000  0.033944  0.000000      2.000000
  0.029397  0.050917  0.000000      2.000000
  0.058793  0.067889  0.000000      2.000000
 -0.029397  0.016972  0.000000      2.000000
  0.000000  0.067889  0.000000      1.000000
  0.029397  0.084861  0.000000      2.000000
  0.058793  0.101833  0.000000      1.000000
  0.000000  0.000000  0.036057      2.000000
  0.029397  0.016972  0.036057      2.000000
  0.058793  0.033944  0.036057      2.000000
 -0.029397 -0.016972  0.036057      2.000000
  0.000000  0.033944  0.036057      2.000000
  0.029397  0.050917  0.036057      2.000000
  0.058793  0.067889  0.036057      2.000000
 -0.029397  0.016972  0.036057      2.000000
  0.000000  0.067889  0.036057      2.000000
  0.029397  0.084861  0.036057      2.000000
  0.058793  0.101833  0.036057      2.000000
 -0.029397  0.050917  0.036057      2.000000
  0.000000 -0.033944  0.036057      2.000000
  0.029397 -0.016972  0.036057      2.000000
  0.058793  0.000000  0.036057      2.000000
 -0.029397 -0.050917  0.036057      2.000000
  0.000000  0.000000  0.072114      1.000000
  0.029397  0.016972  0.072114      2.000000
  0.058793  0.033944  0.072114      1.000000
  0.000000  0.033944  0.072114      2.000000
  0.029397  0.050917  0.072114      2.000000
  0.058793  0.067889  0.072114      2.000000
 -0.029397  0.016972  0.072114      2.000000
  0.000000  0.067889  0.072114      1.000000
  0.029397  0.084861  0.072114      2.000000
  0.058793  0.101833  0.072114      1.000000
 


--------------------------------------------------------------------------------------------------------




 Dimension of arrays:
   k-points           NKPTS =     36   k-points in BZ     NKDIM =     36   number of bands    NBANDS=    304
   number of dos      NEDOS =    301   number of ions     NIONS =     54
   non local maximal  LDIM  =      6   non local SUM 2l+1 LMDIM =     18
   total plane-waves  NPLWV = 221184
   max r-space proj   IRMAX =   6887   max aug-charges    IRDMAX=  16707
   dimension x,y,z NGX =    64 NGY =   64 NGZ =   54
   dimension x,y,z NGXF=   128 NGYF=  128 NGZF=  108
   support grid    NGXF=   128 NGYF=  128 NGZF=  108
   ions per type =              27  27
   NGX,Y,Z   is equivalent  to a cutoff of  12.51, 12.51, 12.95 a.u.
   NGXF,Y,Z  is equivalent  to a cutoff of  25.02, 25.02, 25.90 a.u.

 SYSTEM =  unknown system                          
 POSCAR =  NiO_C2_m_scale_0_975_disp_0_15_round_1  

 Startparameter for this run:
   NWRITE =      1    write-flag & timer
   PREC   = accura    normal or accurate (medium, high low for compatibility)
   ISTART =      0    job   : 0-new  1-cont  2-samecut
   ICHARG =      2    charge: 1-file 2-atom 10-const
   ISPIN  =      2    spin polarized calculation?
   LNONCOLLINEAR =      F non collinear calculations
   LSORBIT =      F    spin-orbit coupling
   INIWAV =      1    electr: 0-lowe 1-rand  2-diag
   LASPH  =      F    aspherical Exc in radial PAW
   METAGGA=      F    non-selfconsistent MetaGGA calc.

 Electronic Relaxation 1
   ENCUT  =  500.0 eV  36.75 Ry    6.06 a.u.  15.51 15.51 12.64*2*pi/ulx,y,z
   ENINI  =  500.0     initial cutoff
   ENAUG  =  605.4 eV  augmentation charge cutoff
   NELM   =     80;   NELMIN=  2; NELMDL= -5     # of ELM steps 
   EDIFF  = 0.1E-04   stopping-criterion for ELM
   LREAL  =      T    real-space projection
   NLSPLINE    = F    spline interpolate recip. space projectors
   LCOMPAT=      F    compatible to vasp.4.4
   GGA_COMPAT  = T    GGA compatible to vasp.4.4-vasp.4.6
   LMAXPAW     = -100 max onsite density
   LMAXMIX     =    2 max onsite mixed and CHGCAR
   VOSKOWN=      1    Vosko Wilk Nusair interpolation
   ROPT   =   -0.00025  -0.00025
 Ionic relaxation
   EDIFFG = 0.1E-03   stopping-criterion for IOM
   NSW    =      0    number of steps for IOM
   NBLOCK =      1;   KBLOCK =      1    inner block; outer block 
   IBRION =     -1    ionic relax: 0-MD 1-quasi-New 2-CG
   NFREE  =      0    steps in history (QN), initial steepest desc. (CG)
   ISIF   =      2    stress and relaxation
   IWAVPR =     10    prediction:  0-non 1-charg 2-wave 3-comb
   ISYM   =      2    0-nonsym 1-usesym 2-fastsym
   LCORR  =      T    Harris-Foulkes like correction to forces

   POTIM  = 0.5000    time-step for ionic-motion
   TEIN   =    0.0    initial temperature
   TEBEG  =    0.0;   TEEND  =   0.0 temperature during run
   SMASS  =  -3.00    Nose mass-parameter (am)
   estimated Nose-frequenzy (Omega)   =  0.10E-29 period in steps =****** mass=  -0.165E-26a.u.
   SCALEE = 1.0000    scale energy and forces
   NPACO  =    256;   APACO  = 16.0  distance and # of slots for P.C.
   PSTRESS=    0.0 pullay stress

  Mass of Ions in am
   POMASS =  58.69 16.00
  Ionic Valenz
   ZVAL   =  10.00  6.00
  Atomic Wigner-Seitz radii
   RWIGS  =   1.15  0.73
  virtual crystal weights 
   VCA    =   1.00  1.00
   NELECT =     432.0000    total number of electrons
   NUPDOWN=      -1.0000    fix difference up-down

 DOS related values:
   EMIN   =  10.00;   EMAX   =-10.00  energy-range for DOS
   EFERMI =   0.00
   ISMEAR =     0;   SIGMA  =   0.05  broadening in eV -4-tet -1-fermi 0-gaus

 Electronic relaxation 2 (details)
   IALGO  =     38    algorithm
   LDIAG  =      T    sub-space diagonalisation (order eigenvalues)
   LSUBROT=      F    optimize rotation matrix (better conditioning)
   TURBO    =      0    0=normal 1=particle mesh
   IRESTART =      0    0=no restart 2=restart with 2 vectors
   NREBOOT  =      0    no. of reboots
   NMIN     =      0    reboot dimension
   EREF     =   0.00    reference energy to select bands
   IMIX   =      4    mixing-type and parameters
     AMIX     =   0.40;   BMIX     =  1.00
     AMIX_MAG =   1.60;   BMIX_MAG =  1.00
     AMIN     =   0.10
     WC   =   100.;   INIMIX=   1;  MIXPRE=   1;  MAXMIX= -45

 Intra band minimization:
   WEIMIN = 0.0000     energy-eigenvalue tresh-hold
   EBREAK =  0.82E-08  absolut break condition
   DEPER  =   0.30     relativ break condition  

   TIME   =   0.40     timestep for ELM

  volume/ion in A,a.u.               =       8.04        54.27
  Fermi-wavevector in a.u.,A,eV,Ry     =   1.634234  3.088254 36.337355  2.670720
  Thomas-Fermi vector in A             =   2.725907
 
 Write flags
   LWAVE        =      F    write WAVECAR
   LDOWNSAMPLE  =      F    k-point downsampling of WAVECAR
   LCHARG       =      T    write CHGCAR
   LVTOT        =      F    write LOCPOT, total local potential
   LVHAR        =      F    write LOCPOT, Hartree potential only
   LELF         =      F    write electronic localiz. function (ELF)
   LORBIT       =      0    0 simple, 1 ext, 2 COOP (PROOUT), +10 PAW based schemes


 Dipole corrections
   LMONO  =      F    monopole corrections only (constant potential shift)
   LDIPOL =      F    correct potential (dipole corrections)
   IDIPOL =      0    1-x, 2-y, 3-z, 4-all directions 
   EPSILON=  1.0000000 bulk dielectric constant

 Exchange correlation treatment:
   GGA     =    PS    GGA type
   LEXCH   =    14    internal setting for exchange type
   VOSKOWN=      1    Vosko Wilk Nusair interpolation
   LHFCALC =     F    Hartree Fock is set to
   LHFONE  =     F    Hartree Fock one center treatment
   AEXX    =    0.0000 exact exchange contribution

 Linear response parameters
   LEPSILON=     F    determine dielectric tensor
   LRPA    =     F    only Hartree local field effects (RPA)
   LNABLA  =     F    use nabla operator in PAW spheres
   LVEL    =     F    velocity operator in full k-point grid
   LINTERFAST=   F  fast interpolation
   KINTER  =     0    interpolate to denser k-point grid
   CSHIFT  =0.1000    complex shift for real part using Kramers Kronig
   OMEGAMAX=  -1.0    maximum frequency
   DEG_THRESHOLD= 0.2000000E-02 threshold for treating states as degnerate
   RTIME   =   -0.100 relaxation time in fs
  (WPLASMAI=    0.000 imaginary part of plasma frequency in eV, 0.658/RTIME)
   DFIELD  = 0.0000000 0.0000000 0.0000000 field for delta impulse in time
 
 Orbital magnetization related:
   ORBITALMAG=     F  switch on orbital magnetization
   LCHIMAG   =     F  perturbation theory with respect to B field
   DQ        =  0.001000  dq finite difference perturbation B field
   LLRAUG    =     F  two centre corrections for induced B field



--------------------------------------------------------------------------------------------------------


 Static calculation
 charge density and potential will be updated during run
 spin polarized calculation
 Variant of blocked Davidson
 Davidson routine will perform the subspace rotation
 perform sub-space diagonalisation
    after iterative eigenvector-optimisation
 modified Broyden-mixing scheme, WC =      100.0
 initial mixing is a Kerker type mixing with AMIX =  0.4000 and BMIX =      1.0000
 Hartree-type preconditioning will be used
 using additional bands           88
 real space projection scheme for non local part
 use partial core corrections
 calculate Harris-corrections to forces 
   (improved forces if not selfconsistent)
 use gradient corrections 
 use of overlap-Matrix (Vanderbilt PP)
 Gauss-broadening in eV      SIGMA  =   0.05


--------------------------------------------------------------------------------------------------------


  energy-cutoff  :      500.00
  volume of cell :      434.28
      direct lattice vectors                 reciprocal lattice vectors
     8.504359500  0.000000000  0.000000000     0.117586751  0.067888742  0.000000000
    -4.252179750  7.364991370  0.000000000     0.000000000  0.135777484  0.000000000
     0.000000000  0.000000000  6.933488250     0.000000000  0.000000000  0.144227547

  length of vectors
     8.504359500  8.504359500  6.933488250     0.135777484  0.135777484  0.144227547


 
 k-points in units of 2pi/SCALE and weight: Automatic mesh                          
   0.00000000  0.00000000  0.00000000       0.016
   0.02939669  0.01697219  0.00000000       0.031
   0.05879338  0.03394437  0.00000000       0.016
   0.00000000  0.03394437  0.00000000       0.031
   0.02939669  0.05091656  0.00000000       0.031
   0.05879338  0.06788874  0.00000000       0.031
  -0.02939669  0.01697219  0.00000000       0.031
   0.00000000  0.06788874  0.00000000       0.016
   0.02939669  0.08486093  0.00000000       0.031
   0.05879338  0.10183311  0.00000000       0.016
   0.00000000  0.00000000  0.03605689       0.031
   0.02939669  0.01697219  0.03605689       0.031
   0.05879338  0.03394437  0.03605689       0.031
  -0.02939669 -0.01697219  0.03605689       0.031
   0.00000000  0.03394437  0.03605689       0.031
   0.02939669  0.05091656  0.03605689       0.031
   0.05879338  0.06788874  0.03605689       0.031
  -0.02939669  0.01697219  0.03605689       0.031
   0.00000000  0.06788874  0.03605689       0.031
   0.02939669  0.08486093  0.03605689       0.031
   0.05879338  0.10183311  0.03605689       0.031
  -0.02939669  0.05091656  0.03605689       0.031
   0.00000000 -0.03394437  0.03605689       0.031
   0.02939669 -0.01697219  0.03605689       0.031
   0.05879338  0.00000000  0.03605689       0.031
  -0.02939669 -0.05091656  0.03605689       0.031
   0.00000000  0.00000000  0.07211377       0.016
   0.02939669  0.01697219  0.07211377       0.031
   0.05879338  0.03394437  0.07211377       0.016
   0.00000000  0.03394437  0.07211377       0.031
   0.02939669  0.05091656  0.07211377       0.031
   0.05879338  0.06788874  0.07211377       0.031
  -0.02939669  0.01697219  0.07211377       0.031
   0.00000000  0.06788874  0.07211377       0.016
   0.02939669  0.08486093  0.07211377       0.031
   0.05879338  0.10183311  0.07211377       0.016
 
 k-points in reciprocal lattice and weights: Automatic mesh                          
   0.00000000  0.00000000  0.00000000       0.016
   0.25000000  0.00000000  0.00000000       0.031
   0.50000000  0.00000000  0.00000000       0.016
   0.00000000  0.25000000  0.00000000       0.031
   0.25000000  0.25000000  0.00000000       0.031
   0.50000000  0.25000000  0.00000000       0.031
  -0.25000000  0.25000000  0.00000000       0.031
   0.00000000  0.50000000  0.00000000       0.016
   0.25000000  0.50000000  0.00000000       0.031
   0.50000000  0.50000000  0.00000000       0.016
   0.00000000  0.00000000  0.25000000       0.031
   0.25000000  0.00000000  0.25000000       0.031
   0.50000000  0.00000000  0.25000000       0.031
  -0.25000000 -0.00000000  0.25000000       0.031
   0.00000000  0.25000000  0.25000000       0.031
   0.25000000  0.25000000  0.25000000       0.031
   0.50000000  0.25000000  0.25000000       0.031
  -0.25000000  0.25000000  0.25000000       0.031
   0.00000000  0.50000000  0.25000000       0.031
   0.25000000  0.50000000  0.25000000       0.031
   0.50000000  0.50000000  0.25000000       0.031
  -0.25000000  0.50000000  0.25000000       0.031
   0.00000000 -0.25000000  0.25000000       0.031
   0.25000000 -0.25000000  0.25000000       0.031
   0.50000000 -0.25000000  0.25000000       0.031
  -0.25000000 -0.25000000  0.25000000       0.031
   0.00000000  0.00000000  0.50000000       0.016
   0.25000000  0.00000000  0.50000000       0.031
   0.50000000  0.00000000  0.50000000       0.016
   0.00000000  0.25000000  0.50000000       0.031
   0.25000000  0.25000000  0.50000000       0.031
   0.50000000  0.25000000  0.50000000       0.031
  -0.25000000  0.25000000  0.50000000       0.031
   0.00000000  0.50000000  0.50000000       0.016
   0.25000000  0.50000000  0.50000000       0.031
   0.50000000  0.50000000  0.50000000       0.016
 
 position of ions in fractional coordinates (direct lattice) 
   0.03077045  0.01456782  0.96656661
   0.23409733  0.12661349  0.32629850
   0.11974745  0.23012872  0.68385694
   0.01518829  0.31988494  0.95721357
   0.19987780  0.46125485  0.39347362
   0.15081149  0.60387079  0.68590911
   0.00362069  0.67688767  0.02718269
   0.22173080  0.81116976  0.33428611
   0.09240616  0.90171590  0.66635747
   0.35880522  0.00414625  0.05180734
   0.58484397  0.11167236  0.33404146
   0.44663140  0.21769943  0.70818439
   0.34814285  0.36202099  0.00680942
   0.59796988  0.42511648  0.35530308
   0.42927546  0.55355238  0.72670968
   0.36390496  0.68874464  0.99866059
   0.56375805  0.81222328  0.36174288
   0.44824503  0.91350665  0.70165550
   0.68821418  0.98396599  0.00633752
   0.92786194  0.16292697  0.32588158
   0.78865263  0.22081240  0.67426615
   0.70349794  0.34527428  0.03584163
   0.92112068  0.45115266  0.31744006
   0.78963124  0.57619680  0.65724421
   0.70686694  0.71664414  0.97570262
   0.90821009  0.80449192  0.36643108
   0.81094999  0.92011990  0.71285226
   0.00133004  0.00881928  0.53884718
   0.22136734  0.13490144  0.85964365
   0.11023594  0.20476920  0.17386716
   0.02189568  0.33635252  0.52608665
   0.21760922  0.44464833  0.85756846
   0.11888536  0.59645431  0.17516253
   0.99279487  0.67685696  0.51957404
   0.23638489  0.79472062  0.85413700
   0.11356026  0.90068654  0.18626402
   0.32874285  0.99834782  0.50136965
   0.57381212  0.08506778  0.84685508
   0.45693783  0.23442216  0.18091482
   0.35374986  0.30407269  0.50800100
   0.54693581  0.41242012  0.85364103
   0.46498613  0.57423009  0.12779661
   0.30859950  0.68615669  0.47155434
   0.55831047  0.80729033  0.85157419
   0.44576416  0.90565386  0.18929385
   0.68903345  0.00556109  0.47780414
   0.88812694  0.08706592  0.88144167
   0.85529240  0.25608972  0.17843404
   0.69349700  0.36916670  0.51345460
   0.96143725  0.48530977  0.84847482
   0.77325832  0.56882669  0.16054217
   0.69005524  0.67893713  0.51405983
   0.90477757  0.80885679  0.87508761
   0.75757370  0.93649163  0.16972081
 
 position of ions in cartesian coordinates  (Angst):
   0.19973798  0.10729187  6.70167823
   1.45246453  0.93250726  2.26238682
   0.03982668  1.69489604  4.74151406
  -1.23104159  2.35594982  6.63682904
  -0.26150587  3.39713799  2.72814472
  -1.28521202  4.44750316  4.75574275
  -2.84745639  4.98527185  0.18847086
  -1.56356119  5.97425828  2.31776882
  -3.04840289  6.64112982  4.62018169
   3.03377798  0.03053710  0.35920558
   4.49887242  0.82246597  2.31607254
   2.87261688  1.60335442  4.91018815
   1.42135363  2.66628147  0.04721303
   3.27767914  3.13097921  2.46348973
   1.29690862  4.07690850  5.03863303
   0.16611259  5.07259833  6.92420147
   1.34068174  5.98201745  2.50814001
  -0.07235760  6.72796859  4.86492016
   1.66882054  7.24690102  0.04394112
   7.19807674  1.19995573  2.25949611
   5.76805147  1.62628142  4.67501643
   4.51463109  2.54294209  0.24850752
   5.91515920  3.32273545  2.20096693
   4.26521557  4.24368446  4.55699501
   2.96415088  5.27807791  6.76502265
   4.30290086  5.92507605  2.54064559
   2.98409505  6.77667512  4.94255277
  -0.02619003  0.06495392  3.73609059
   1.30896227  0.99354794  5.96032915
   0.06677062  1.50812339  1.20550591
  -1.24402264  2.47723341  3.64761561
  -0.04009759  3.27483111  5.94594084
  -1.52518710  4.39288085  1.21448734
   5.56496703  4.98504567  3.60246050
  -1.36899284  5.85311051  5.92214885
  -2.86412379  6.63354859  1.29145939
  -1.44940700  7.35282308  3.47624058
   4.51818106  0.62652347  5.87165975
   2.88915841  1.72651719  1.25437078
   1.71544425  2.23949274  3.52221896
   2.89765427  3.03747062  5.91871005
   1.51267965  4.22919966  0.88607629
  -0.29322049  5.05353810  3.26951648
   1.31532936  5.94568631  5.90437964
  -0.06006434  6.67013286  1.31246668
   5.83614141  0.04095738  3.31284939
   7.18273084  0.64123975  6.11146546
   6.18477453  1.88609858  1.23717032
   4.32798463  2.71890956  3.56003144
   6.11278363  3.57430227  5.88289019
   4.15731341  4.18940366  1.11311725
   2.98151512  5.00036610  3.56422779
   4.25514926  5.95722328  6.06740966
   2.46054835  6.89725277  1.17675724
 


--------------------------------------------------------------------------------------------------------


 k-point  1 :   0.0000 0.0000 0.0000  plane waves:   11029
 k-point  2 :   0.2500 0.0000 0.0000  plane waves:   11041
 k-point  3 :   0.5000 0.0000 0.0000  plane waves:   11030
 k-point  4 :   0.0000 0.2500 0.0000  plane waves:   11041
 k-point  5 :   0.2500 0.2500 0.0000  plane waves:   11024
 k-point  6 :   0.5000 0.2500 0.0000  plane waves:   11024
 k-point  7 :  -0.2500 0.2500 0.0000  plane waves:   11041
 k-point  8 :   0.0000 0.5000 0.0000  plane waves:   11030
 k-point  9 :   0.2500 0.5000 0.0000  plane waves:   11024
 k-point 10 :   0.5000 0.5000 0.0000  plane waves:   11030
 k-point 11 :   0.0000 0.0000 0.2500  plane waves:   11035
 k-point 12 :   0.2500 0.0000 0.2500  plane waves:   11030
 k-point 13 :   0.5000 0.0000 0.2500  plane waves:   11030
 k-point 14 :  -0.2500-0.0000 0.2500  plane waves:   11030
 k-point 15 :   0.0000 0.2500 0.2500  plane waves:   11030
 k-point 16 :   0.2500 0.2500 0.2500  plane waves:   11019
 k-point 17 :   0.5000 0.2500 0.2500  plane waves:   11019
 k-point 18 :  -0.2500 0.2500 0.2500  plane waves:   11030
 k-point 19 :   0.0000 0.5000 0.2500  plane waves:   11030
 k-point 20 :   0.2500 0.5000 0.2500  plane waves:   11019
 k-point 21 :   0.5000 0.5000 0.2500  plane waves:   11030
 k-point 22 :  -0.2500 0.5000 0.2500  plane waves:   11019
 k-point 23 :   0.0000-0.2500 0.2500  plane waves:   11030
 k-point 24 :   0.2500-0.2500 0.2500  plane waves:   11030
 k-point 25 :   0.5000-0.2500 0.2500  plane waves:   11019
 k-point 26 :  -0.2500-0.2500 0.2500  plane waves:   11019
 k-point 27 :   0.0000 0.0000 0.5000  plane waves:   11018
 k-point 28 :   0.2500 0.0000 0.5000  plane waves:   11052
 k-point 29 :   0.5000 0.0000 0.5000  plane waves:   10980
 k-point 30 :   0.0000 0.2500 0.5000  plane waves:   11052
 k-point 31 :   0.2500 0.2500 0.5000  plane waves:   10974
 k-point 32 :   0.5000 0.2500 0.5000  plane waves:   10974
 k-point 33 :  -0.2500 0.2500 0.5000  plane waves:   11052
 k-point 34 :   0.0000 0.5000 0.5000  plane waves:   10980
 k-point 35 :   0.2500 0.5000 0.5000  plane waves:   10974
 k-point 36 :   0.5000 0.5000 0.5000  plane waves:   10980

 maximum and minimum number of plane-waves per node :     11052    10974

 maximum number of plane-waves:     11052
 maximum index in each direction: 
   IXMAX=   15   IYMAX=   15   IZMAX=   12
   IXMIN=  -16   IYMIN=  -16   IZMIN=  -13

 The following grids will avoid any aliasing or wrap around errors in the Hartre
 e energy
  - symmetry arguments have not been applied
  - exchange correlation energies might require even more grid points
  - we recommend to set PREC=Normal or Accurate and rely on VASP defaults
 NGX is ok and might be reduce to    64
 NGY is ok and might be reduce to    64
 NGZ is ok and might be reduce to    54

 serial   3D FFT for wavefunctions
 parallel 3D FFT for charge:
    minimum data exchange during FFTs selected (reduces bandwidth)


 total amount of memory used by VASP MPI-rank0   360471. kBytes
=======================================================================

   base      :      30000. kBytes
   nonlr-proj:      39898. kBytes
   fftplans  :       4688. kBytes
   grid      :      26804. kBytes
   one-center:       1679. kBytes
   wavefun   :     257402. kBytes
 
     INWAV:  cpu time    0.0000: real time    0.0000
 Broyden mixing: mesh for mixing (old mesh)
   NGX = 31   NGY = 31   NGZ = 25
  (NGX  =128   NGY  =128   NGZ  =108)
  gives a total of  24025 points

 initial charge density was supplied:
 charge density of overlapping atoms calculated
 number of electron     432.0000000 magnetization      67.5000000
 keeping initial charge density in first step


--------------------------------------------------------------------------------------------------------


 Maximum index for non-local projection operator         6653
 Maximum index for augmentation-charges         1100 (set IRDMAX)


--------------------------------------------------------------------------------------------------------


 First call to EWALD:  gamma=   0.234
 Maximum number of real-space cells 3x 3x 3
 Maximum number of reciprocal cells 3x 3x 3

    FEWALD:  cpu time    0.0026: real time    0.0026


--------------------------------------- Iteration      1(   1)  ---------------------------------------


    POTLOK:  cpu time    0.1509: real time    0.1948
    SETDIJ:  cpu time    0.0261: real time    0.0262
     EDDAV:  cpu time  157.7438: real time  158.1207
    --------------------------------------------
      LOOP:  cpu time  157.9252: real time  158.3461

 eigenvalue-minimisations  : 43776
 total energy-change (2. order) : 0.5445578E+04  (-0.1719132E+05)
 number of electron     432.0000000 magnetization      67.5000000
 augmentation part      432.0000000 magnetization      67.5000000

 Free energy of the ion-electron system (eV)
  ---------------------------------------------------
  alpha Z        PSCENC =      1991.78600378
  Ewald energy   TEWEN  =    -35313.58374116
  -Hartree energ DENC   =     -9273.52676478
  -exchange      EXHF   =         0.00000000
  -V(xc)+E(xc)   XCENC  =      1671.63430523
  PAW double counting   =     35307.98069315   -37155.18892105
  entropy T*S    EENTRO =        -0.00983459
  eigenvalues    EBANDS =      7508.01124450
  atomic energy  EATOM  =     40708.47505058
  Solvation  Ediel_sol  =         0.00000000
  ---------------------------------------------------
  free energy    TOTEN  =      5445.57803566 eV

  energy without entropy =     5445.58787026  energy(sigma->0) =     5445.58295296


--------------------------------------------------------------------------------------------------------




--------------------------------------- Iteration      1(   2)  ---------------------------------------


     EDDAV:  cpu time  150.0303: real time  150.3846
    --------------------------------------------
      LOOP:  cpu time  150.0300: real time  150.3842

 eigenvalue-minimisations  : 43776
 total energy-change (2. order) :-0.4632345E+04  (-0.4166843E+04)
 number of electron     432.0000000 magnetization      67.5000000
 augmentation part      432.0000000 magnetization      67.5000000

 Free energy of the ion-electron system (eV)
  ---------------------------------------------------
  alpha Z        PSCENC =      1991.78600378
  Ewald energy   TEWEN  =    -35313.58374116
  -Hartree energ DENC   =     -9273.52676478
  -exchange      EXHF   =         0.00000000
  -V(xc)+E(xc)   XCENC  =      1671.63430523
  PAW double counting   =     35307.98069315   -37155.18892105
  entropy T*S    EENTRO =        -0.02274847
  eigenvalues    EBANDS =      2875.67887117
  atomic energy  EATOM  =     40708.47505058
  Solvation  Ediel_sol  =         0.00000000
  ---------------------------------------------------
  free energy    TOTEN  =       813.23274845 eV

  energy without entropy =      813.25549693  energy(sigma->0) =      813.24412269


--------------------------------------------------------------------------------------------------------




--------------------------------------- Iteration      1(   3)  ---------------------------------------


     EDDAV:  cpu time  154.8483: real time  155.2138
    --------------------------------------------
      LOOP:  cpu time  154.8491: real time  155.2146

 eigenvalue-minimisations  : 44768
 total energy-change (2. order) :-0.1070087E+04  (-0.9507750E+03)
 number of electron     432.0000000 magnetization      67.5000000
 augmentation part      432.0000000 magnetization      67.5000000

 Free energy of the ion-electron system (eV)
  ---------------------------------------------------
  alpha Z        PSCENC =      1991.78600378
  Ewald energy   TEWEN  =    -35313.58374116
  -Hartree energ DENC   =     -9273.52676478
  -exchange      EXHF   =         0.00000000
  -V(xc)+E(xc)   XCENC  =      1671.63430523
  PAW double counting   =     35307.98069315   -37155.18892105
  entropy T*S    EENTRO =        -0.07829570
  eigenvalues    EBANDS =      1805.64722164
  atomic energy  EATOM  =     40708.47505058
  Solvation  Ediel_sol  =         0.00000000
  ---------------------------------------------------
  free energy    TOTEN  =      -256.85444831 eV

  energy without entropy =     -256.77615260  energy(sigma->0) =     -256.81530046


--------------------------------------------------------------------------------------------------------




--------------------------------------- Iteration      1(   4)  ---------------------------------------


     EDDAV:  cpu time  178.7731: real time  179.1951
    --------------------------------------------
      LOOP:  cpu time  178.7750: real time  179.1971

 eigenvalue-minimisations  : 50464
 total energy-change (2. order) :-0.1126253E+03  (-0.1071845E+03)
 number of electron     432.0000000 magnetization      67.5000000
 augmentation part      432.0000000 magnetization      67.5000000

 Free energy of the ion-electron system (eV)
  ---------------------------------------------------
  alpha Z        PSCENC =      1991.78600378
  Ewald energy   TEWEN  =    -35313.58374116
  -Hartree energ DENC   =     -9273.52676478
  -exchange      EXHF   =         0.00000000
  -V(xc)+E(xc)   XCENC  =      1671.63430523
  PAW double counting   =     35307.98069315   -37155.18892105
  entropy T*S    EENTRO =        -0.08067948
  eigenvalues    EBANDS =      1693.02431363
  atomic energy  EATOM  =     40708.47505058
  Solvation  Ediel_sol  =         0.00000000
  ---------------------------------------------------
  free energy    TOTEN  =      -369.47974010 eV

  energy without entropy =     -369.39906061  energy(sigma->0) =     -369.43940035


--------------------------------------------------------------------------------------------------------




--------------------------------------- Iteration      1(   5)  ---------------------------------------


     EDDAV:  cpu time  179.6353: real time  180.0595
    CHARGE:  cpu time    4.4110: real time    4.4216
    MIXING:  cpu time    0.0051: real time    0.0051
    --------------------------------------------
      LOOP:  cpu time  184.0447: real time  184.4794

 eigenvalue-minimisations  : 49952
 total energy-change (2. order) :-0.2588595E+01  (-0.2572143E+01)
 number of electron     432.0000028 magnetization      58.5623602
 augmentation part      173.7706181 magnetization      46.0824098

 Broyden mixing:
  rms(total) = 0.12132E+02    rms(broyden)= 0.12131E+02
  rms(prec ) = 0.14156E+02
  weight for this iteration     100.00

 Free energy of the ion-electron system (eV)
  ---------------------------------------------------
  alpha Z        PSCENC =      1991.78600378
  Ewald energy   TEWEN  =    -35313.58374116
  -Hartree energ DENC   =     -9273.52676478
  -exchange      EXHF   =         0.00000000
  -V(xc)+E(xc)   XCENC  =      1671.63430523
  PAW double counting   =     35307.98069315   -37155.18892105
  entropy T*S    EENTRO =        -0.08059153
  eigenvalues    EBANDS =      1690.43563053
  atomic energy  EATOM  =     40708.47505058
  Solvation  Ediel_sol  =         0.00000000
  ---------------------------------------------------
  free energy    TOTEN  =      -372.06833525 eV

  energy without entropy =     -371.98774371  energy(sigma->0) =     -372.02803948


--------------------------------------------------------------------------------------------------------




--------------------------------------- Iteration      1(   6)  ---------------------------------------


    POTLOK:  cpu time    0.1652: real time    0.1656
    SETDIJ:  cpu time    0.0372: real time    0.0373
     EDDAV:  cpu time  214.5538: real time  215.0604
    CHARGE:  cpu time    4.4461: real time    4.4566
    MIXING:  cpu time    0.0031: real time    0.0031
    --------------------------------------------
      LOOP:  cpu time  219.2053: real time  219.7230

 eigenvalue-minimisations  : 63584
 total energy-change (2. order) : 0.1871169E+02  (-0.3570456E+02)
 number of electron     432.0000034 magnetization      47.1730028
 augmentation part      195.3411585 magnetization      40.7208366

 Broyden mixing:
  rms(total) = 0.12661E+02    rms(broyden)= 0.12660E+02
  rms(prec ) = 0.15454E+02
  weight for this iteration     100.00

 eigenvalues of (default mixing * dielectric matrix)
  average eigenvalue GAMMA=   0.3733
  0.3733

 Free energy of the ion-electron system (eV)
  ---------------------------------------------------
  alpha Z        PSCENC =      1991.78600378
  Ewald energy   TEWEN  =    -35313.58374116
  -Hartree energ DENC   =     -8962.10030725
  -exchange      EXHF   =         0.00000000
  -V(xc)+E(xc)   XCENC  =      1666.61842764
  PAW double counting   =     40126.25525744   -41848.40484112
  entropy T*S    EENTRO =        -0.03935958
  eigenvalues    EBANDS =      1277.63686082
  atomic energy  EATOM  =     40708.47505058
  Solvation  Ediel_sol  =         0.00000000
  ---------------------------------------------------
  free energy    TOTEN  =      -353.35664885 eV

  energy without entropy =     -353.31728928  energy(sigma->0) =     -353.33696906


--------------------------------------------------------------------------------------------------------




--------------------------------------- Iteration      1(   7)  ---------------------------------------


    POTLOK:  cpu time    0.1732: real time    0.1737
    SETDIJ:  cpu time    0.0379: real time    0.0380
     EDDAV:  cpu time  185.3871: real time  185.8248
    CHARGE:  cpu time    4.7496: real time    4.7609
    MIXING:  cpu time    0.0045: real time    0.0045
    --------------------------------------------
      LOOP:  cpu time  190.3524: real time  190.8018

 eigenvalue-minimisations  : 51520
 total energy-change (2. order) : 0.2480383E+01  (-0.2829712E+02)
 number of electron     432.0000036 magnetization      40.6080955
 augmentation part      185.8254040 magnetization      32.9638186

 Broyden mixing:
  rms(total) = 0.12995E+02    rms(broyden)= 0.12994E+02
  rms(prec ) = 0.17121E+02
  weight for this iteration     100.00

 eigenvalues of (default mixing * dielectric matrix)
  average eigenvalue GAMMA=   0.4055
  0.5257  0.2852

 Free energy of the ion-electron system (eV)
  ---------------------------------------------------
  alpha Z        PSCENC =      1991.78600378
  Ewald energy   TEWEN  =    -35313.58374116
  -Hartree energ DENC   =     -9056.35989177
  -exchange      EXHF   =         0.00000000
  -V(xc)+E(xc)   XCENC  =      1659.43401136
  PAW double counting   =     42111.40189616   -43951.93582061
  entropy T*S    EENTRO =        -0.06459039
  eigenvalues    EBANDS =      1499.97081631
  atomic energy  EATOM  =     40708.47505058
  Solvation  Ediel_sol  =         0.00000000
  ---------------------------------------------------
  free energy    TOTEN  =      -350.87626575 eV

  energy without entropy =     -350.81167536  energy(sigma->0) =     -350.84397055


--------------------------------------------------------------------------------------------------------




--------------------------------------- Iteration      1(   8)  ---------------------------------------


    POTLOK:  cpu time    0.1491: real time    0.1494
    SETDIJ:  cpu time    0.0269: real time    0.0269
     EDDAV:  cpu time  192.9787: real time  193.4345
    CHARGE:  cpu time    4.6580: real time    4.6690
    MIXING:  cpu time    0.0041: real time    0.0041
    --------------------------------------------
      LOOP:  cpu time  197.8166: real time  198.2839

 eigenvalue-minimisations  : 53840
 total energy-change (2. order) : 0.9587201E+01  (-0.1810248E+02)
 number of electron     432.0000034 magnetization      34.7450571
 augmentation part      183.6049650 magnetization      29.2997893

 Broyden mixing:
  rms(total) = 0.92752E+01    rms(broyden)= 0.92745E+01
  rms(prec ) = 0.13505E+02
  weight for this iteration     100.00

 eigenvalues of (default mixing * dielectric matrix)
  average eigenvalue GAMMA=   0.4577
  0.5996  0.5996  0.1739

 Free energy of the ion-electron system (eV)
  ---------------------------------------------------
  alpha Z        PSCENC =      1991.78600378
  Ewald energy   TEWEN  =    -35313.58374116
  -Hartree energ DENC   =     -9110.00605241
  -exchange      EXHF   =         0.00000000
  -V(xc)+E(xc)   XCENC  =      1657.61523292
  PAW double counting   =     43598.35067242   -45493.56400736
  entropy T*S    EENTRO =        -0.05884624
  eigenvalues    EBANDS =      1619.69662279
  atomic energy  EATOM  =     40708.47505058
  Solvation  Ediel_sol  =         0.00000000
  ---------------------------------------------------
  free energy    TOTEN  =      -341.28906467 eV

  energy without entropy =     -341.23021844  energy(sigma->0) =     -341.25964156


--------------------------------------------------------------------------------------------------------




--------------------------------------- Iteration      1(   9)  ---------------------------------------


    POTLOK:  cpu time    0.1849: real time    0.1853
    SETDIJ:  cpu time    0.0378: real time    0.0379
     EDDAV:  cpu time  179.6945: real time  180.1189
    CHARGE:  cpu time    4.2734: real time    4.2834
    MIXING:  cpu time    0.0052: real time    0.0052
    --------------------------------------------
      LOOP:  cpu time  184.1958: real time  184.6308

 eigenvalue-minimisations  : 53856
 total energy-change (2. order) : 0.1265377E+02  (-0.7542293E+01)
 number of electron     432.0000031 magnetization      24.2579023
 augmentation part      183.7776524 magnetization      19.2949320

 Broyden mixing:
  rms(total) = 0.81299E+01    rms(broyden)= 0.81289E+01
  rms(prec ) = 0.13309E+02
  weight for this iteration     100.00

 eigenvalues of (default mixing * dielectric matrix)
  average eigenvalue GAMMA=   0.5480
  1.1964  0.6390  0.2259  0.1309

 Free energy of the ion-electron system (eV)
  ---------------------------------------------------
  alpha Z        PSCENC =      1991.78600378
  Ewald energy   TEWEN  =    -35313.58374116
  -Hartree energ DENC   =     -9099.57606808
  -exchange      EXHF   =         0.00000000
  -V(xc)+E(xc)   XCENC  =      1656.03330589
  PAW double counting   =     44741.64829222   -46660.52171653
  entropy T*S    EENTRO =        -0.05952639
  eigenvalues    EBANDS =      1647.16310390
  atomic energy  EATOM  =     40708.47505058
  Solvation  Ediel_sol  =         0.00000000
  ---------------------------------------------------
  free energy    TOTEN  =      -328.63529579 eV

  energy without entropy =     -328.57576940  energy(sigma->0) =     -328.60553260


--------------------------------------------------------------------------------------------------------




--------------------------------------- Iteration      1(  10)  ---------------------------------------


    POTLOK:  cpu time    0.1632: real time    0.1636
    SETDIJ:  cpu time    0.0404: real time    0.0405
     EDDAV:  cpu time  198.8856: real time  199.3551
    CHARGE:  cpu time    4.4007: real time    4.4112
    MIXING:  cpu time    0.0059: real time    0.0059
    --------------------------------------------
      LOOP:  cpu time  203.4958: real time  203.9763

 eigenvalue-minimisations  : 56304
 total energy-change (2. order) :-0.4527603E+02  (-0.8914039E+01)
 number of electron     432.0000040 magnetization      14.6298483
 augmentation part      183.3731132 magnetization      12.0532754

 Broyden mixing:
  rms(total) = 0.11071E+02    rms(broyden)= 0.11071E+02
  rms(prec ) = 0.18258E+02
  weight for this iteration     100.00

 eigenvalues of (default mixing * dielectric matrix)
  average eigenvalue GAMMA=   0.5583
  1.6122  0.6446  0.2643  0.1351  0.1351

 Free energy of the ion-electron system (eV)
  ---------------------------------------------------
  alpha Z        PSCENC =      1991.78600378
  Ewald energy   TEWEN  =    -35313.58374116
  -Hartree energ DENC   =     -9070.83570652
  -exchange      EXHF   =         0.00000000
  -V(xc)+E(xc)   XCENC  =      1653.58559389
  PAW double counting   =     46712.35745399   -48660.12501663
  entropy T*S    EENTRO =        -0.04425854
  eigenvalues    EBANDS =      1604.47329232
  atomic energy  EATOM  =     40708.47505058
  Solvation  Ediel_sol  =         0.00000000
  ---------------------------------------------------
  free energy    TOTEN  =      -373.91132830 eV

  energy without entropy =     -373.86706976  energy(sigma->0) =     -373.88919903


--------------------------------------------------------------------------------------------------------




--------------------------------------- Iteration      1(  11)  ---------------------------------------


    POTLOK:  cpu time    0.1694: real time    0.1698
    SETDIJ:  cpu time    0.0375: real time    0.0376
     EDDAV:  cpu time  181.3943: real time  181.8226
    CHARGE:  cpu time    4.2301: real time    4.2401
    MIXING:  cpu time    0.0061: real time    0.0061
    --------------------------------------------
      LOOP:  cpu time  185.8374: real time  186.2762

 eigenvalue-minimisations  : 51984
 total energy-change (2. order) :-0.5240866E+01  (-0.8815859E+01)
 number of electron     432.0000020 magnetization       9.5202409
 augmentation part      183.2081644 magnetization       7.6299289

 Broyden mixing:
  rms(total) = 0.11247E+02    rms(broyden)= 0.11247E+02
  rms(prec ) = 0.19321E+02
  weight for this iteration     100.00

 eigenvalues of (default mixing * dielectric matrix)
  average eigenvalue GAMMA=   0.5208
  1.7986  0.6312  0.2925  0.1439  0.1439  0.1147

 Free energy of the ion-electron system (eV)
  ---------------------------------------------------
  alpha Z        PSCENC =      1991.78600378
  Ewald energy   TEWEN  =    -35313.58374116
  -Hartree energ DENC   =     -9041.56536391
  -exchange      EXHF   =         0.00000000
  -V(xc)+E(xc)   XCENC  =      1651.84873813
  PAW double counting   =     48337.67188461   -50303.69059740
  entropy T*S    EENTRO =        -0.06731004
  eigenvalues    EBANDS =      1589.97314074
  atomic energy  EATOM  =     40708.47505058
  Solvation  Ediel_sol  =         0.00000000
  ---------------------------------------------------
  free energy    TOTEN  =      -379.15219468 eV

  energy without entropy =     -379.08488464  energy(sigma->0) =     -379.11853966


--------------------------------------------------------------------------------------------------------




--------------------------------------- Iteration      1(  12)  ---------------------------------------


    POTLOK:  cpu time    0.1695: real time    0.1699
    SETDIJ:  cpu time    0.0377: real time    0.0378
     EDDAV:  cpu time  166.9063: real time  167.3055
    CHARGE:  cpu time    3.8292: real time    3.8383
    MIXING:  cpu time    0.0052: real time    0.0053
    --------------------------------------------
      LOOP:  cpu time  170.9479: real time  171.3568

 eigenvalue-minimisations  : 51792
 total energy-change (2. order) : 0.4607909E+02  (-0.6612898E+01)
 number of electron     432.0000033 magnetization       8.8425628
 augmentation part      184.9385316 magnetization       7.3012526

 Broyden mixing:
  rms(total) = 0.61373E+01    rms(broyden)= 0.61368E+01
  rms(prec ) = 0.10263E+02
  weight for this iteration     100.00

 eigenvalues of (default mixing * dielectric matrix)
  average eigenvalue GAMMA=   0.4861
  1.8151  0.6419  0.2698  0.2698  0.1522  0.1522  0.1013

 Free energy of the ion-electron system (eV)
  ---------------------------------------------------
  alpha Z        PSCENC =      1991.78600378
  Ewald energy   TEWEN  =    -35313.58374116
  -Hartree energ DENC   =     -9027.56786325
  -exchange      EXHF   =         0.00000000
  -V(xc)+E(xc)   XCENC  =      1651.25957217
  PAW double counting   =     49170.55997253   -51147.16560270
  entropy T*S    EENTRO =        -0.06354807
  eigenvalues    EBANDS =      1633.22704773
  atomic energy  EATOM  =     40708.47505058
  Solvation  Ediel_sol  =         0.00000000
  ---------------------------------------------------
  free energy    TOTEN  =      -333.07310839 eV

  energy without entropy =     -333.00956033  energy(sigma->0) =     -333.04133436


--------------------------------------------------------------------------------------------------------




--------------------------------------- Iteration      1(  13)  ---------------------------------------


    POTLOK:  cpu time    0.1292: real time    0.1295
    SETDIJ:  cpu time    0.0251: real time    0.0251
     EDDAV:  cpu time  169.3818: real time  169.8167
    CHARGE:  cpu time    4.5709: real time    4.5817
    MIXING:  cpu time    0.0076: real time    0.0076
    --------------------------------------------
      LOOP:  cpu time  174.1145: real time  174.5606

 eigenvalue-minimisations  : 52224
 total energy-change (2. order) : 0.1452755E+02  (-0.8055878E+01)
 number of electron     432.0000032 magnetization       9.1822074
 augmentation part      185.6026657 magnetization       7.5798135

 Broyden mixing:
  rms(total) = 0.39753E+01    rms(broyden)= 0.39747E+01
  rms(prec ) = 0.62966E+01
  weight for this iteration     100.00

 eigenvalues of (default mixing * dielectric matrix)
  average eigenvalue GAMMA=   0.4574
  1.7421  0.6964  0.3438  0.3438  0.1580  0.1580  0.1128  0.1044

 Free energy of the ion-electron system (eV)
  ---------------------------------------------------
  alpha Z        PSCENC =      1991.78600378
  Ewald energy   TEWEN  =    -35313.58374116
  -Hartree energ DENC   =     -9026.15724742
  -exchange      EXHF   =         0.00000000
  -V(xc)+E(xc)   XCENC  =      1650.92985497
  PAW double counting   =     49242.75930707   -51220.33953004
  entropy T*S    EENTRO =        -0.05629716
  eigenvalues    EBANDS =      1647.64104023
  atomic energy  EATOM  =     40708.47505058
  Solvation  Ediel_sol  =         0.00000000
  ---------------------------------------------------
  free energy    TOTEN  =      -318.54555917 eV

  energy without entropy =     -318.48926200  energy(sigma->0) =     -318.51741058


--------------------------------------------------------------------------------------------------------




--------------------------------------- Iteration      1(  14)  ---------------------------------------


    POTLOK:  cpu time    0.1719: real time    0.1723
    SETDIJ:  cpu time    0.0440: real time    0.0442
     EDDAV:  cpu time  160.8991: real time  161.2862
    CHARGE:  cpu time    3.9459: real time    3.9553
    MIXING:  cpu time    0.0043: real time    0.0043
    --------------------------------------------
      LOOP:  cpu time  165.0652: real time  165.4622

 eigenvalue-minimisations  : 54528
 total energy-change (2. order) : 0.1834223E+01  (-0.2799365E+01)
 number of electron     432.0000030 magnetization       9.5800103
 augmentation part      184.9079490 magnetization       7.9041964

 Broyden mixing:
  rms(total) = 0.54382E+01    rms(broyden)= 0.54377E+01
  rms(prec ) = 0.96374E+01
  weight for this iteration     100.00

 eigenvalues of (default mixing * dielectric matrix)
  average eigenvalue GAMMA=   0.4286
  1.6873  0.7455  0.3787  0.3787  0.1956  0.1375  0.1375  0.0982  0.0982

 Free energy of the ion-electron system (eV)
  ---------------------------------------------------
  alpha Z        PSCENC =      1991.78600378
  Ewald energy   TEWEN  =    -35313.58374116
  -Hartree energ DENC   =     -9024.90333667
  -exchange      EXHF   =         0.00000000
  -V(xc)+E(xc)   XCENC  =      1650.43093511
  PAW double counting   =     49100.57919542   -51075.15401934
  entropy T*S    EENTRO =        -0.06085789
  eigenvalues    EBANDS =      1645.71943441
  atomic energy  EATOM  =     40708.47505058
  Solvation  Ediel_sol  =         0.00000000
  ---------------------------------------------------
  free energy    TOTEN  =      -316.71133576 eV

  energy without entropy =     -316.65047787  energy(sigma->0) =     -316.68090681


--------------------------------------------------------------------------------------------------------




--------------------------------------- Iteration      1(  15)  ---------------------------------------


    POTLOK:  cpu time    0.1256: real time    0.1259
    SETDIJ:  cpu time    0.0247: real time    0.0248
     EDDAV:  cpu time  142.7077: real time  143.0454
    CHARGE:  cpu time    2.5690: real time    2.5751
    MIXING:  cpu time    0.0032: real time    0.0032
    --------------------------------------------
      LOOP:  cpu time  145.4302: real time  145.7745

 eigenvalue-minimisations  : 60176
 total energy-change (2. order) : 0.9977559E+00  (-0.7964791E+01)
 number of electron     432.0000027 magnetization       9.5441425
 augmentation part      184.6747776 magnetization       7.9368126

 Broyden mixing:
  rms(total) = 0.48187E+01    rms(broyden)= 0.48183E+01
  rms(prec ) = 0.84851E+01
  weight for this iteration     100.00

 eigenvalues of (default mixing * dielectric matrix)
  average eigenvalue GAMMA=   0.4085
  1.6606  0.8033  0.4033  0.4033  0.2398  0.1466  0.1466  0.1038  0.1038  0.0735

 Free energy of the ion-electron system (eV)
  ---------------------------------------------------
  alpha Z        PSCENC =      1991.78600378
  Ewald energy   TEWEN  =    -35313.58374116
  -Hartree energ DENC   =     -9027.55309080
  -exchange      EXHF   =         0.00000000
  -V(xc)+E(xc)   XCENC  =      1650.12141632
  PAW double counting   =     48963.45551174   -50934.55185509
  entropy T*S    EENTRO =        -0.05981753
  eigenvalues    EBANDS =      1646.19694235
  atomic energy  EATOM  =     40708.47505058
  Solvation  Ediel_sol  =         0.00000000
  ---------------------------------------------------
  free energy    TOTEN  =      -315.71357982 eV

  energy without entropy =     -315.65376229  energy(sigma->0) =     -315.68367105


--------------------------------------------------------------------------------------------------------




--------------------------------------- Iteration      1(  16)  ---------------------------------------


    POTLOK:  cpu time    0.0974: real time    0.0977
    SETDIJ:  cpu time    0.0202: real time    0.0203
     EDDAV:  cpu time  133.7944: real time  134.1152
    CHARGE:  cpu time    3.8843: real time    3.9233
    MIXING:  cpu time    0.0081: real time    0.0581
    --------------------------------------------
      LOOP:  cpu time  137.8045: real time  138.2146

 eigenvalue-minimisations  : 56272
 total energy-change (2. order) : 0.4539678E+01  (-0.4845479E+01)
 number of electron     432.0000031 magnetization       9.0829095
 augmentation part      184.9151330 magnetization       7.3177754

 Broyden mixing:
  rms(total) = 0.28819E+01    rms(broyden)= 0.28814E+01
  rms(prec ) = 0.47988E+01
  weight for this iteration     100.00

 eigenvalues of (default mixing * dielectric matrix)
  average eigenvalue GAMMA=   0.3952
  1.6176  0.8574  0.4381  0.4381  0.2843  0.1637  0.1637  0.1116  0.0960  0.0960
  0.0809

 Free energy of the ion-electron system (eV)
  ---------------------------------------------------
  alpha Z        PSCENC =      1991.78600378
  Ewald energy   TEWEN  =    -35313.58374116
  -Hartree energ DENC   =     -9027.64853353
  -exchange      EXHF   =         0.00000000
  -V(xc)+E(xc)   XCENC  =      1649.78238398
  PAW double counting   =     48876.65007020   -50843.85672957
  entropy T*S    EENTRO =        -0.06146549
  eigenvalues    EBANDS =      1647.28305982
  atomic energy  EATOM  =     40708.47505058
  Solvation  Ediel_sol  =         0.00000000
  ---------------------------------------------------
  free energy    TOTEN  =      -311.17390140 eV

  energy without entropy =     -311.11243591  energy(sigma->0) =     -311.14316865


--------------------------------------------------------------------------------------------------------




--------------------------------------- Iteration      1(  17)  ---------------------------------------


    POTLOK:  cpu time    0.1307: real time    0.1577
    SETDIJ:  cpu time    0.0250: real time    0.0251
     EDDAV:  cpu time  154.3120: real time  154.6774
    CHARGE:  cpu time    4.1038: real time    4.1135
    MIXING:  cpu time    0.0047: real time    0.0047
    --------------------------------------------
      LOOP:  cpu time  158.5761: real time  158.9783

 eigenvalue-minimisations  : 56416
 total energy-change (2. order) : 0.1425511E+01  (-0.9004303E+00)
 number of electron     432.0000032 magnetization       8.2249746
 augmentation part      184.8260952 magnetization       6.3559529

 Broyden mixing:
  rms(total) = 0.23058E+01    rms(broyden)= 0.23053E+01
  rms(prec ) = 0.37499E+01
  weight for this iteration     100.00

 eigenvalues of (default mixing * dielectric matrix)
  average eigenvalue GAMMA=   0.3814
  1.6262  0.8233  0.4552  0.4552  0.3555  0.2146  0.1332  0.1332  0.1079  0.1079
  0.0822  0.0822

 Free energy of the ion-electron system (eV)
  ---------------------------------------------------
  alpha Z        PSCENC =      1991.78600378
  Ewald energy   TEWEN  =    -35313.58374116
  -Hartree energ DENC   =     -9026.89289216
  -exchange      EXHF   =         0.00000000
  -V(xc)+E(xc)   XCENC  =      1649.59068453
  PAW double counting   =     48904.95423470   -50870.27399610
  entropy T*S    EENTRO =        -0.06398991
  eigenvalues    EBANDS =      1646.26025485
  atomic energy  EATOM  =     40708.47505058
  Solvation  Ediel_sol  =         0.00000000
  ---------------------------------------------------
  free energy    TOTEN  =      -309.74839089 eV

  energy without entropy =     -309.68440099  energy(sigma->0) =     -309.71639594


--------------------------------------------------------------------------------------------------------




--------------------------------------- Iteration      1(  18)  ---------------------------------------


    POTLOK:  cpu time    0.1258: real time    0.1261
    SETDIJ:  cpu time    0.0246: real time    0.0247
     EDDAV:  cpu time  155.7222: real time  156.1008
    CHARGE:  cpu time    4.0200: real time    4.0295
    MIXING:  cpu time    0.0047: real time    0.0048
    --------------------------------------------
      LOOP:  cpu time  159.8973: real time  160.2859

 eigenvalue-minimisations  : 55712
 total energy-change (2. order) : 0.6663504E+00  (-0.7624353E+00)
 number of electron     432.0000033 magnetization       7.5140580
 augmentation part      185.0003608 magnetization       5.8356439

 Broyden mixing:
  rms(total) = 0.14684E+01    rms(broyden)= 0.14680E+01
  rms(prec ) = 0.22435E+01
  weight for this iteration     100.00

 eigenvalues of (default mixing * dielectric matrix)
  average eigenvalue GAMMA=   0.3878
  1.5983  0.6622  0.6369  0.6369  0.3597  0.3597  0.1481  0.1481  0.1252  0.1054
  0.1054  0.0777  0.0777

 Free energy of the ion-electron system (eV)
  ---------------------------------------------------
  alpha Z        PSCENC =      1991.78600378
  Ewald energy   TEWEN  =    -35313.58374116
  -Hartree energ DENC   =     -9025.70043823
  -exchange      EXHF   =         0.00000000
  -V(xc)+E(xc)   XCENC  =      1649.44821292
  PAW double counting   =     49034.92975028   -50999.26954620
  entropy T*S    EENTRO =        -0.05781684
  eigenvalues    EBANDS =      1644.89048444
  atomic energy  EATOM  =     40708.47505058
  Solvation  Ediel_sol  =         0.00000000
  ---------------------------------------------------
  free energy    TOTEN  =      -309.08204045 eV

  energy without entropy =     -309.02422361  energy(sigma->0) =     -309.05313203


--------------------------------------------------------------------------------------------------------




--------------------------------------- Iteration      1(  19)  ---------------------------------------


    POTLOK:  cpu time    0.1288: real time    0.1291
    SETDIJ:  cpu time    0.0254: real time    0.0254
     EDDAV:  cpu time  155.4725: real time  155.8395
    CHARGE:  cpu time    4.0207: real time    4.0303
    MIXING:  cpu time    0.0054: real time    0.0054
    --------------------------------------------
      LOOP:  cpu time  159.6528: real time  160.0298

 eigenvalue-minimisations  : 55936
 total energy-change (2. order) : 0.5298470E-01  (-0.3326892E+00)
 number of electron     432.0000031 magnetization       6.8578334
 augmentation part      184.9288854 magnetization       5.3826532

 Broyden mixing:
  rms(total) = 0.13838E+01    rms(broyden)= 0.13835E+01
  rms(prec ) = 0.21889E+01
  weight for this iteration     100.00

 eigenvalues of (default mixing * dielectric matrix)
  average eigenvalue GAMMA=   0.3994
  1.6094  0.8309  0.8309  0.6398  0.3708  0.3708  0.1775  0.1453  0.1453  0.1044
  0.1044  0.1053  0.0783  0.0783

 Free energy of the ion-electron system (eV)
  ---------------------------------------------------
  alpha Z        PSCENC =      1991.78600378
  Ewald energy   TEWEN  =    -35313.58374116
  -Hartree energ DENC   =     -9024.30924644
  -exchange      EXHF   =         0.00000000
  -V(xc)+E(xc)   XCENC  =      1649.36174132
  PAW double counting   =     49157.37995569   -51119.89950923
  entropy T*S    EENTRO =        -0.06117370
  eigenvalues    EBANDS =      1641.82186342
  atomic energy  EATOM  =     40708.47505058
  Solvation  Ediel_sol  =         0.00000000
  ---------------------------------------------------
  free energy    TOTEN  =      -309.02905574 eV

  energy without entropy =     -308.96788204  energy(sigma->0) =     -308.99846889


--------------------------------------------------------------------------------------------------------




--------------------------------------- Iteration      1(  20)  ---------------------------------------


    POTLOK:  cpu time    0.1275: real time    0.1278
    SETDIJ:  cpu time    0.0249: real time    0.0250
     EDDAV:  cpu time  150.0054: real time  150.3596
    CHARGE:  cpu time    4.0512: real time    4.0609
    MIXING:  cpu time    0.0084: real time    0.0104
    --------------------------------------------
      LOOP:  cpu time  154.2174: real time  154.5837

 eigenvalue-minimisations  : 54512
 total energy-change (2. order) : 0.1866998E+00  (-0.3305260E+00)
 number of electron     432.0000033 magnetization       6.0966712
 augmentation part      184.9453834 magnetization       4.6916244

 Broyden mixing:
  rms(total) = 0.10856E+01    rms(broyden)= 0.10853E+01
  rms(prec ) = 0.17858E+01
  weight for this iteration     100.00

 eigenvalues of (default mixing * dielectric matrix)
  average eigenvalue GAMMA=   0.4275
  1.5838  1.0780  1.0780  0.7519  0.3799  0.3257  0.3257  0.1495  0.1495  0.1221
  0.1068  0.1068  0.0986  0.0783  0.0783

 Free energy of the ion-electron system (eV)
  ---------------------------------------------------
  alpha Z        PSCENC =      1991.78600378
  Ewald energy   TEWEN  =    -35313.58374116
  -Hartree energ DENC   =     -9022.85619240
  -exchange      EXHF   =         0.00000000
  -V(xc)+E(xc)   XCENC  =      1649.27013843
  PAW double counting   =     49258.18028447   -51218.20233133
  entropy T*S    EENTRO =        -0.05972716
  eigenvalues    EBANDS =      1638.14815883
  atomic energy  EATOM  =     40708.47505058
  Solvation  Ediel_sol  =         0.00000000
  ---------------------------------------------------
  free energy    TOTEN  =      -308.84235597 eV

  energy without entropy =     -308.78262881  energy(sigma->0) =     -308.81249239


--------------------------------------------------------------------------------------------------------




--------------------------------------- Iteration      1(  21)  ---------------------------------------


    POTLOK:  cpu time    0.1579: real time    0.1583
    SETDIJ:  cpu time    0.0248: real time    0.0249
     EDDAV:  cpu time  159.7571: real time  160.1367
    CHARGE:  cpu time    4.0277: real time    4.0373
    MIXING:  cpu time    0.0060: real time    0.0207
    --------------------------------------------
      LOOP:  cpu time  163.9737: real time  164.3780

 eigenvalue-minimisations  : 57680
 total energy-change (2. order) :-0.2739983E+00  (-0.2562129E+00)
 number of electron     432.0000032 magnetization       5.5178309
 augmentation part      184.9125801 magnetization       4.2131123

 Broyden mixing:
  rms(total) = 0.14087E+01    rms(broyden)= 0.14084E+01
  rms(prec ) = 0.23382E+01
  weight for this iteration     100.00

 eigenvalues of (default mixing * dielectric matrix)
  average eigenvalue GAMMA=   0.4261
  1.3567  1.3567  1.0764  0.9428  0.3836  0.3499  0.3499  0.1504  0.1504  0.1267
  0.1267  0.1050  0.1050  0.0790  0.0790  0.0794

 Free energy of the ion-electron system (eV)
  ---------------------------------------------------
  alpha Z        PSCENC =      1991.78600378
  Ewald energy   TEWEN  =    -35313.58374116
  -Hartree energ DENC   =     -9023.67766154
  -exchange      EXHF   =         0.00000000
  -V(xc)+E(xc)   XCENC  =      1649.19209448
  PAW double counting   =     49351.29430339   -51308.22435735
  entropy T*S    EENTRO =        -0.06185315
  eigenvalues    EBANDS =      1635.68380667
  atomic energy  EATOM  =     40708.47505058
  Solvation  Ediel_sol  =         0.00000000
  ---------------------------------------------------
  free energy    TOTEN  =      -309.11635430 eV

  energy without entropy =     -309.05450115  energy(sigma->0) =     -309.08542772


--------------------------------------------------------------------------------------------------------




--------------------------------------- Iteration      1(  22)  ---------------------------------------


    POTLOK:  cpu time    0.1244: real time    0.1247
    SETDIJ:  cpu time    0.0249: real time    0.0250
     EDDAV:  cpu time  154.2542: real time  154.6184
    CHARGE:  cpu time    3.9656: real time    3.9749
    MIXING:  cpu time    0.0059: real time    0.2502
    --------------------------------------------
      LOOP:  cpu time  158.3749: real time  158.9932

 eigenvalue-minimisations  : 56560
 total energy-change (2. order) : 0.4183745E+00  (-0.2202923E+00)
 number of electron     432.0000032 magnetization       5.0097745
 augmentation part      184.9022993 magnetization       3.8178007

 Broyden mixing:
  rms(total) = 0.77903E+00    rms(broyden)= 0.77875E+00
  rms(prec ) = 0.12414E+01
  weight for this iteration     100.00

 eigenvalues of (default mixing * dielectric matrix)
  average eigenvalue GAMMA=   0.4654
  1.9064  1.9064  0.8022  0.8022  0.4432  0.4432  0.3103  0.3103  0.1487  0.1487
  0.1344  0.1064  0.1064  0.1071  0.0792  0.0792  0.0779

 Free energy of the ion-electron system (eV)
  ---------------------------------------------------
  alpha Z        PSCENC =      1991.78600378
  Ewald energy   TEWEN  =    -35313.58374116
  -Hartree energ DENC   =     -9026.01694194
  -exchange      EXHF   =         0.00000000
  -V(xc)+E(xc)   XCENC  =      1649.14963375
  PAW double counting   =     49401.32908790   -51355.10778875
  entropy T*S    EENTRO =        -0.05978340
  eigenvalues    EBANDS =      1635.33049943
  atomic energy  EATOM  =     40708.47505058
  Solvation  Ediel_sol  =         0.00000000
  ---------------------------------------------------
  free energy    TOTEN  =      -308.69797979 eV

  energy without entropy =     -308.63819639  energy(sigma->0) =     -308.66808809


--------------------------------------------------------------------------------------------------------




--------------------------------------- Iteration      1(  23)  ---------------------------------------


    POTLOK:  cpu time    0.1274: real time    0.1277
    SETDIJ:  cpu time    0.0248: real time    0.0248
     EDDAV:  cpu time  154.4587: real time  154.8234
    CHARGE:  cpu time    3.9706: real time    3.9799
    MIXING:  cpu time    0.0058: real time    0.0058
[...]
  in kB      520.7460078    534.7218325    534.5398881      7.4399417    -22.9722888     71.0678493
  external PRESSURE =     530.0025761 kB  Pullay stress =       0.0000000 kB


 VOLUME and BASIS-vectors are now :
 -----------------------------------------------------------------------------
  energy-cutoff  :      500.00
  volume of cell :      434.28
      direct lattice vectors                 reciprocal lattice vectors
     8.504359500  0.000000000  0.000000000     0.117586751  0.067888742  0.000000000
    -4.252179750  7.364991370  0.000000000     0.000000000  0.135777484  0.000000000
     0.000000000  0.000000000  6.933488250     0.000000000  0.000000000  0.144227547

  length of vectors
     8.504359500  8.504359500  6.933488250     0.135777484  0.135777484  0.144227547


 FORCES acting on ions
    electron-ion (+dipol)            ewald-force                    non-local-force                 convergence-correction
 -----------------------------------------------------------------------------------------------
   -.134E+03 0.348E+02 -.270E+03   0.134E+03 -.333E+02 0.280E+03   -.216E+01 -.199E+01 -.189E+01   0.158E+01 -.601E+00 0.380E+00
   0.178E+01 -.131E+03 -.553E+02   -.225E+01 0.136E+03 0.570E+02   -.329E+00 -.392E+01 -.339E+00   0.909E+00 -.878E+00 -.169E+00
   -.947E+02 -.128E+03 0.167E+03   0.966E+02 0.130E+03 -.170E+03   -.180E+01 -.243E+00 0.321E+01   0.742E+00 -.854E+00 -.745E+00
   0.965E+02 -.127E+03 -.118E+03   -.102E+03 0.130E+03 0.122E+03   0.253E+01 -.295E+01 -.319E+00   -.235E+00 -.104E+01 -.708E+00
   -.377E+03 -.599E+02 0.169E+03   0.381E+03 0.646E+02 -.172E+03   -.877E+00 -.321E+01 -.135E+01   0.616E+00 -.396E+00 0.806E+00
   0.115E+02 0.242E+02 0.902E+02   -.126E+02 -.237E+02 -.886E+02   0.234E+01 -.138E+01 -.268E+01   -.923E+00 0.138E+00 -.112E+01
   0.756E+02 0.456E+02 0.674E+02   -.735E+02 -.490E+02 -.690E+02   -.165E+01 0.292E+01 -.635E+00   -.909E+00 0.123E+01 0.209E+00
   -.363E+02 0.735E+02 -.691E+02   0.393E+02 -.782E+02 0.715E+02   -.133E+01 -.278E+00 -.148E+01   -.558E+00 0.192E+01 -.247E+00
   -.225E+03 0.452E+02 -.269E+02   0.230E+03 -.471E+02 0.244E+02   -.127E+01 -.625E+00 0.373E+01   0.743E+00 0.113E+01 0.449E+00
   0.753E+02 -.136E+03 0.157E+03   -.747E+02 0.137E+03 -.163E+03   -.196E+01 -.291E+00 -.761E+00   -.189E+01 0.863E+00 0.195E+01
   0.661E+02 -.154E+03 -.101E+03   -.657E+02 0.154E+03 0.103E+03   -.154E+00 0.212E+01 -.109E+01   -.122E+01 -.546E+00 -.348E+00
   -.126E+03 -.189E+02 0.678E+02   0.125E+03 0.219E+02 -.689E+02   0.252E+01 -.387E+01 0.180E+00   -.918E+00 -.925E+00 -.469E+00
   -.108E+03 -.263E+02 -.207E+03   0.110E+03 0.290E+02 0.210E+03   -.255E+01 -.274E+01 -.199E+01   0.862E+00 -.222E+01 0.565E+00
   0.284E+03 -.154E+03 0.445E+02   -.291E+03 0.158E+03 -.478E+02   0.223E+00 0.823E+00 -.553E+00   -.431E+00 -.154E+01 -.944E+00
   -.176E+03 -.465E+02 0.330E+03   0.178E+03 0.478E+02 -.331E+03   -.113E+01 0.320E+00 0.896E+00   0.496E+00 -.104E+01 -.184E+01
   0.658E+02 0.112E+03 -.165E+03   -.665E+02 -.114E+03 0.169E+03   -.207E+01 0.129E+01 -.224E+01   -.482E+00 0.674E+00 0.752E+00
   -.945E+02 0.381E+03 -.791E+02   0.974E+02 -.386E+03 0.791E+02   -.161E+01 -.941E+00 -.208E+01   -.743E+00 0.546E+00 0.224E+00
   0.234E+01 0.241E+02 0.238E+03   -.303E+01 -.259E+02 -.239E+03   0.104E+01 -.227E+01 -.206E+01   -.905E+00 0.914E+00 -.171E+01
   0.241E+03 -.115E+03 -.369E+02   -.256E+03 0.122E+03 0.270E+02   0.710E+00 -.179E+01 -.403E+00   0.545E+00 0.102E+01 0.101E+01
   -.857E+02 0.123E+03 -.151E+03   0.887E+02 -.129E+03 0.154E+03   -.103E+00 0.536E+00 0.280E+01   0.495E+00 -.344E+00 0.332E+00
   0.159E+03 -.112E+03 0.258E+02   -.162E+03 0.113E+03 -.259E+02   0.181E+01 -.644E+00 0.388E+00   0.154E+00 0.151E-01 -.376E+00
   0.659E+02 0.628E+01 0.150E+03   -.686E+02 -.441E+01 -.152E+03   0.238E+01 -.228E+01 -.336E+00   -.268E+00 -.780E-01 0.444E+00
   0.127E+03 -.622E+02 -.120E+03   -.128E+03 0.646E+02 0.121E+03   -.829E+00 -.918E+00 0.244E+01   -.273E+00 0.220E+00 -.611E+00
   0.722E+02 0.152E+03 -.179E+03   -.735E+02 -.155E+03 0.178E+03   0.386E+00 0.612E+00 0.375E+01   0.641E+00 0.231E+00 0.108E+01
   0.303E+02 0.329E+03 -.157E+03   -.355E+02 -.338E+03 0.163E+03   -.910E+00 0.410E+01 -.219E+01   0.202E+01 -.527E-01 0.706E+00
   0.191E+03 0.651E+02 0.158E+03   -.195E+03 -.679E+02 -.158E+03   0.115E+01 0.133E+01 -.107E+01   0.155E+01 0.116E+01 -.104E+01
   0.203E+03 0.185E+03 0.312E+03   -.207E+03 -.188E+03 -.322E+03   0.471E+00 -.725E+00 0.451E+01   0.124E+01 0.941E+00 0.608E+00
   0.452E+02 -.587E+02 0.158E+03   -.534E+02 0.660E+02 -.171E+03   0.477E+01 -.632E+01 0.935E+01   0.172E+01 0.144E+01 0.334E+00
   -.212E+03 -.399E+02 0.177E+02   0.229E+03 0.457E+02 -.212E+02   -.103E+02 -.387E+00 0.600E+00   -.788E+00 -.117E+01 0.225E-01
   -.804E+02 -.111E+03 -.421E+02   0.801E+02 0.117E+03 0.338E+02   0.555E+00 -.391E+01 0.607E+01   0.179E+01 -.133E+01 0.758E+00
   0.802E+02 -.224E+02 -.652E+02   -.939E+02 0.216E+02 0.769E+02   0.979E+01 -.127E+01 -.820E+01   0.509E+00 -.540E+00 0.678E+00
   -.234E+02 -.768E+02 0.153E+02   0.204E+02 0.861E+02 -.149E+02   0.513E+01 -.600E+01 -.616E+00   0.320E+00 -.156E+01 -.171E+01
   -.136E+03 0.543E+02 0.245E+02   0.152E+03 -.595E+02 -.298E+02   -.123E+02 0.467E+01 0.483E+01   -.191E+01 0.123E+01 0.405E+00
   -.515E+02 0.863E+02 0.183E+02   0.609E+02 -.922E+02 -.223E+02   -.838E+01 0.424E+01 0.276E+01   0.129E+01 0.103E+01 0.957E-01
   0.763E+02 -.423E+02 -.365E+01   -.823E+02 0.454E+02 0.857E+01   0.763E+01 -.309E+01 -.339E+01   -.279E+01 0.941E+00 0.117E+00
   0.822E+02 -.978E+01 0.367E+02   -.918E+02 0.115E+02 -.441E+02   0.677E+01 -.188E+01 0.737E+01   0.113E+01 0.834E+00 -.471E+00
   -.526E+02 -.889E+02 -.645E+02   0.555E+02 0.965E+02 0.695E+02   -.192E+01 -.609E+01 -.209E+01   -.107E+01 -.393E-01 -.174E+01
   0.569E+02 -.186E+03 -.187E+02   -.571E+02 0.197E+03 0.284E+02   0.849E+00 -.602E+01 -.791E+01   -.131E+00 0.932E+00 0.579E+00
   0.146E+02 -.935E+02 0.186E+02   -.166E+02 0.986E+02 -.240E+02   0.254E+01 -.351E+01 0.397E+01   -.285E+00 -.166E+01 0.654E+00
   -.287E+00 -.176E+03 0.418E+02   -.781E+00 0.186E+03 -.398E+02   0.177E+01 -.658E+01 -.933E+00   -.954E+00 -.140E+01 -.102E+01
   -.114E+03 -.856E+02 0.975E+01   0.122E+03 0.958E+02 -.585E+01   -.641E+01 -.842E+01 -.469E+01   0.384E+00 0.181E+00 0.713E+00
   -.733E+02 0.300E+02 -.253E+03   0.790E+02 -.270E+02 0.266E+03   -.651E+01 -.825E+00 -.132E+02   0.179E+01 -.490E+00 0.141E+01
   -.170E+03 -.767E+01 -.185E+02   0.177E+03 0.149E+02 0.196E+02   -.515E+01 -.525E+01 0.730E+00   -.985E-01 0.795E+00 -.646E+00
   -.110E+02 0.103E+03 0.163E+03   0.107E+02 -.106E+03 -.175E+03   -.645E+00 0.240E+00 0.842E+01   0.160E+01 0.595E+00 -.893E+00
   -.679E+02 0.747E+02 -.312E+02   0.789E+02 -.874E+02 0.304E+02   -.693E+01 0.899E+01 -.241E+00   -.104E+01 0.175E+01 0.200E+01
   -.222E+02 0.379E+01 -.110E+03   0.330E+02 0.127E+01 0.123E+03   -.904E+01 -.116E+01 -.859E+01   -.959E+00 -.434E-01 -.942E+00
   0.816E+02 -.118E+03 0.374E+02   -.869E+02 0.129E+03 -.385E+02   0.299E+01 -.749E+01 0.252E+00   0.988E+00 -.398E-01 -.116E+00
   0.122E+03 -.228E+02 0.791E+02   -.130E+03 0.183E+02 -.951E+02   0.386E+01 0.719E+01 0.101E+02   -.114E+01 -.368E+00 0.142E+00
   -.422E+02 0.843E+02 -.104E+03   0.540E+02 -.945E+02 0.117E+03   -.600E+01 0.757E+01 -.764E+01   0.352E+00 -.119E+01 -.372E+00
   0.163E+03 0.323E+02 0.380E+02   -.170E+03 -.348E+02 -.401E+02   0.560E+01 0.165E+01 0.155E+01   -.108E+01 0.778E+00 0.447E+00
   0.112E+03 -.288E+02 -.299E+02   -.119E+03 0.351E+02 0.342E+02   0.595E+01 -.541E+01 -.276E+01   0.773E+00 0.192E+00 -.136E+01
   0.208E+03 0.697E+02 0.608E+02   -.221E+03 -.693E+02 -.634E+02   0.117E+02 0.933E+00 0.216E+01   -.114E+01 -.386E-01 -.245E+00
   -.111E+03 0.201E+03 0.303E+02   0.124E+03 -.213E+03 -.384E+02   -.838E+01 0.833E+01 0.370E+01   0.132E+01 0.196E+00 0.118E+01
   -.158E+03 0.144E+03 -.237E+03   0.183E+03 -.151E+03 0.265E+03   -.133E+02 0.203E+01 -.126E+02   0.439E-01 -.249E+00 0.420E+00
 -----------------------------------------------------------------------------------------------
   0.270E+02 0.435E+02 0.129E+02   0.483E-12 -.284E-13 -.171E-12   -.305E+02 -.448E+02 -.125E+02   0.346E+01 0.128E+01 -.381E+00
 
 
 POSITION                                       TOTAL-FORCE (eV/Angst)
 -----------------------------------------------------------------------------------
      0.19974      0.10729      6.70168        -0.618901     -1.031438      8.368725
      1.45246      0.93251      2.26239         0.105964     -0.329110      1.190901
      0.03983      1.69490      4.74151         0.851996      1.442804     -1.044395
     -1.23104      2.35595      6.63683        -2.943485     -0.732706      2.946720
     -0.26151      3.39714      2.72814         4.101118      1.059949     -3.344621
     -1.28521      4.44750      4.75574         0.262838     -0.721552     -2.229109
     -2.84746      4.98527      0.18847        -0.442725      0.756802     -2.012474
     -1.56356      5.97426      2.31777         1.077518     -3.093672      0.695396
     -3.04840      6.64113      4.62018         4.278871     -1.330700      1.743706
      3.03378      0.03054      0.35921        -3.162616      2.234935     -3.989315
      4.49887      0.82247      2.31607        -1.003530      1.946703      0.672836
      2.87262      1.60335      4.91019         0.998567     -1.769792     -1.380994
      1.42135      2.66628      0.04721         0.555461     -2.259636      1.404871
      3.27768      3.13098      2.46349        -6.839106      3.060860     -4.727031
      1.29691      4.07691      5.03863         1.480532      0.523022     -2.244058
      0.16611      5.07260      6.92420        -3.226042     -0.786810      2.016536
      1.34068      5.98202      2.50814         0.512104     -5.703395     -1.826818
     -0.07236      6.72797      4.86492        -0.555495     -3.128162     -5.001435
      1.66882      7.24690      0.04394       -13.083469      6.214762     -9.275469
      7.19808      1.19996      2.25950         3.402147     -5.493447      5.794393
      5.76805      1.62628      4.67502        -0.648199      0.391715     -0.068137
      4.51463      2.54294      0.24851        -0.557760     -0.481464     -1.333211
      5.91516      3.32274      2.20097        -1.735117      1.683815      2.276490
      4.26522      4.24368      4.55700        -0.311214     -1.710568      3.754576
      2.96415      5.27808      6.76502        -4.073916     -5.232953      4.329979
      4.30290      5.92508      2.54065        -1.391996     -0.333986     -2.253283
      2.98410      6.77668      4.94255        -2.835044     -2.990272     -5.044329
     -0.02619      0.06495      3.73609        -1.700741      2.404027     -3.020683
      1.30896      0.99355      5.96033         5.958561      4.216385     -2.797790
      0.06677      1.50812      1.20551         2.063476      1.332395     -1.436369
     -1.24402      2.47723      3.64762        -3.329490     -2.686548      4.212172
     -0.04010      3.27483      5.94594         2.405658      1.771522     -1.856947
     -1.52519      4.39288      1.21449         2.027265      0.718305     -0.043744
      5.56497      4.98505      3.60246         2.284493     -0.543657     -1.192900
     -1.36899      5.85311      5.92215        -1.208739      0.964269      1.649126
     -2.86412      6.63355      1.29146        -1.748495      0.648723     -0.444531
     -1.44941      7.35282      3.47624        -0.088381      1.431104      1.144084
      4.51818      0.62652      5.87166         0.439561      5.719164      2.391713
      2.88916      1.72652      1.25437         0.289880     -0.053830     -0.768272
      1.71544      2.23949      3.52222        -0.252249      1.598472      0.095715
      2.89765      3.03747      5.91871         1.670122      1.926758     -0.086429
      1.51268      4.22920      0.88608         0.952051      1.618371      1.677722
     -0.29322      5.05354      3.26952         1.594677      2.717577      1.192144
      1.31533      5.94569      5.90438         0.676000     -2.984528     -4.335800
     -0.06006      6.67013      1.31247         3.068660     -1.918784      0.937128
      5.83614      0.04096      3.31285         0.721189      3.858863      3.339563
      7.18273      0.64124      6.11147        -1.349150      3.623015     -0.966334
      6.18477      1.88610      1.23717        -5.364654      2.312424     -5.745035
      4.32798      2.71891      3.56003         6.135101     -3.813542      5.063814
      6.11278      3.57430      5.88289        -2.893288     -0.086835     -0.041204
      4.15731      4.18940      1.11312        -0.310937      1.068494      0.191417
      2.98152      5.00037      3.56423        -2.460645      1.279985     -0.698257
      4.25515      5.95722      6.06741         5.089902     -3.894172     -3.197426
      2.46055      6.89725      1.17676        11.131674     -5.413660     15.316674
 -----------------------------------------------------------------------------------
    total drift:                               -0.034823     -0.006208      0.020590


--------------------------------------------------------------------------------------------------------



  FREE ENERGIE OF THE ION-ELECTRON SYSTEM (eV)
  ---------------------------------------------------
  free  energy   TOTEN  =      -308.5554804526 eV

  energy  without entropy=     -308.4962607440  energy(sigma->0) =     -308.52587060
 


--------------------------------------------------------------------------------------------------------


    POTLOK:  cpu time    0.1515: real time    0.1831


--------------------------------------------------------------------------------------------------------


     LOOP+:  cpu time13005.3701: real time13038.1539
    4ORBIT:  cpu time    0.0000: real time    0.0000

volume of typ            1:    39.6 %

volume of typ            2:    10.1 %
 
total charge     
 
# of ion       s       p       d       tot
------------------------------------------
    1        0.339   0.489   8.122   8.950
    2        0.253   0.311   7.954   8.518
    3        0.240   0.295   8.053   8.587
    4        0.287   0.386   8.114   8.787
    5        0.273   0.320   8.110   8.703
    6        0.252   0.310   8.044   8.606
    7        0.248   0.310   7.971   8.529
    8        0.280   0.381   7.997   8.657
    9        0.236   0.291   8.068   8.596
   10        0.244   0.294   8.077   8.615
   11        0.221   0.246   8.048   8.514
   12        0.238   0.269   8.047   8.554
   13        0.258   0.328   8.025   8.611
   14        0.282   0.353   8.053   8.688
   15        0.196   0.209   8.100   8.505
   16        0.253   0.310   8.138   8.701
   17        0.245   0.291   8.010   8.546
   18        0.264   0.320   8.093   8.678
   19        0.398   0.584   8.190   9.171
   20        0.299   0.404   8.089   8.792
   21        0.187   0.192   8.061   8.440
   22        0.197   0.206   8.036   8.439
   23        0.247   0.296   8.091   8.635
   24        0.254   0.300   8.058   8.612
   25        0.266   0.322   8.084   8.672
   26        0.224   0.256   8.089   8.569
   27        0.255   0.332   8.152   8.739
   28        1.267   2.837   0.016   4.120
   29        1.266   2.855   0.019   4.140
   30        1.276   2.805   0.012   4.093
   31        1.260   2.851   0.019   4.130
   32        1.272   2.846   0.021   4.140
   33        1.275   2.797   0.012   4.085
   34        1.274   2.800   0.013   4.086
   35        1.272   2.795   0.011   4.078
   36        1.261   2.833   0.013   4.107
   37        1.271   2.778   0.009   4.059
   38        1.266   2.826   0.014   4.106
   39        1.274   2.781   0.011   4.065
   40        1.283   2.748   0.008   4.039
   41        1.275   2.779   0.011   4.065
   42        1.268   2.784   0.009   4.062
   43        1.263   2.823   0.013   4.099
   44        1.272   2.849   0.019   4.140
   45        1.278   2.835   0.018   4.131
   46        1.274   2.815   0.015   4.104
   47        1.274   2.897   0.027   4.197
   48        1.274   2.859   0.021   4.154
   49        1.275   2.828   0.018   4.121
   50        1.278   2.781   0.010   4.070
   51        1.274   2.771   0.010   4.054
   52        1.271   2.770   0.009   4.051
   53        1.256   2.914   0.026   4.196
   54        1.295   2.871   0.026   4.192
--------------------------------------------------
tot          41.28   84.73  218.29  344.30
 
magnetization (x)
 
# of ion       s       p       d       tot
------------------------------------------
    1        0.000  -0.001  -0.068  -0.068
    2        0.001   0.002   0.159   0.162
    3        0.002  -0.001   0.202   0.203
    4        0.000   0.001   0.109   0.110
    5        0.004   0.009   0.478   0.491
    6        0.001   0.000   0.344   0.345
    7       -0.000  -0.000  -0.039  -0.039
    8        0.001  -0.000   0.128   0.128
    9       -0.002  -0.006  -0.623  -0.631
   10       -0.001  -0.001   0.042   0.041
   11        0.003   0.002   0.562   0.568
   12        0.001   0.006   0.412   0.420
   13       -0.000   0.003   0.239   0.242
   14       -0.003  -0.008  -0.475  -0.486
   15        0.000   0.001   0.377   0.378
   16       -0.000   0.001   0.044   0.044
   17        0.001   0.001   0.089   0.090
   18        0.002   0.007   0.429   0.437
   19        0.001   0.004  -0.003   0.001
   20       -0.001   0.002   0.204   0.206
   21        0.001   0.001   0.215   0.217
   22        0.001  -0.000  -0.492  -0.491
   23        0.002   0.004   0.362   0.367
   24       -0.001  -0.009  -0.625  -0.635
   25       -0.001   0.000  -0.083  -0.083
   26       -0.001  -0.002  -0.421  -0.425
   27        0.001  -0.001  -0.164  -0.164
   28       -0.004  -0.049  -0.000  -0.053
   29        0.000  -0.001  -0.000  -0.001
   30        0.002   0.025   0.000   0.027
   31        0.007   0.062   0.000   0.069
   32        0.004   0.047  -0.000   0.051
   33        0.003   0.027   0.000   0.031
   34       -0.006  -0.056  -0.000  -0.062
   35        0.002   0.024   0.000   0.026
   36       -0.002  -0.008  -0.000  -0.010
   37        0.005   0.008   0.000   0.012
   38        0.004   0.036   0.000   0.040
   39        0.000  -0.022   0.000  -0.022
   40        0.002   0.037   0.000   0.039
   41        0.003   0.049   0.000   0.053
   42        0.001   0.009   0.000   0.010
   43        0.005   0.049   0.000   0.054
   44        0.003   0.023   0.000   0.026
   45        0.003   0.026   0.000   0.029
   46        0.003   0.044   0.000   0.048
   47        0.002  -0.002  -0.000   0.000
   48        0.003   0.053   0.000   0.057
   49       -0.003  -0.045  -0.000  -0.048
   50        0.001  -0.007   0.000  -0.006
   51       -0.004  -0.031  -0.000  -0.035
   52       -0.005  -0.052  -0.000  -0.057
   53       -0.007  -0.030  -0.000  -0.037
   54        0.000  -0.007   0.000  -0.006
--------------------------------------------------
tot           0.04    0.22    1.40    1.66
 

 total amount of memory used by VASP MPI-rank0   360471. kBytes
=======================================================================

   base      :      30000. kBytes
   nonlr-proj:      39898. kBytes
   fftplans  :       4688. kBytes
   grid      :      26804. kBytes
   one-center:       1679. kBytes
   wavefun   :     257402. kBytes
 
  
  
 General timing and accounting informations for this job:
 ========================================================
  
                  Total CPU time used (sec):    13073.949
                            User time (sec):    13049.752
                          System time (sec):       24.197
                         Elapsed time (sec):    13110.455
  
                   Maximum memory used (kb):      464724.
                   Average memory used (kb):           0.
  
                          Minor page faults:        45569
                          Major page faults:           43
                 Voluntary context switches:         1261
