 vasp.5.4.4.18Apr17-6-g9f103f2a35 (build May 12 2020 04:58:55) complex          
  
 MD_VERSION_INFO: Compiled 2020-05-12T11:58:55-UTC in devlin.sd.materialsdesign.
 com:/home/medea2/data/build/wwolf/vasp-gpu5.4.4/13047/x86_64/src/src/build/std 
 from svn 13047
 
 This VASP executable licensed from Materials Design, Inc.
 
 executed on                        Lin64 date 2023.03.24  15:39:46
 running on   16 total cores
 distrk:  each k-point on   16 cores,    1 groups
 distr:  one band on NCORES_PER_BAND=   1 cores,   16 groups


--------------------------------------------------------------------------------------------------------


 INCAR:
 POTCAR:    PAW_PBE Ni 02Aug2007                  
 POTCAR:    PAW_PBE O 08Apr2002                   

 ----------------------------------------------------------------------------- 
|                                                                             |
|           W    W    AA    RRRRR   N    N  II  N    N   GGGG   !!!           |
|           W    W   A  A   R    R  NN   N  II  NN   N  G    G  !!!           |
|           W    W  A    A  R    R  N N  N  II  N N  N  G       !!!           |
|           W WW W  AAAAAA  RRRRR   N  N N  II  N  N N  G  GGG   !            |
|           WW  WW  A    A  R   R   N   NN  II  N   NN  G    G                |
|           W    W  A    A  R    R  N    N  II  N    N   GGGG   !!!           |
|                                                                             |
|      For optimal performance we recommend to set                            |
|        NCORE= 4 - approx SQRT( number of cores)                             |
|      NCORE specifies how many cores store one orbital (NPAR=cpu/NCORE).     |
|      This setting can  greatly improve the performance of VASP for DFT.     |
|      The default,   NCORE=1            might be grossly inefficient         |
|      on modern multi-core architectures or massively parallel machines.     |
|      Do your own testing !!!!                                               |
|      Unfortunately you need to use the default for GW and RPA calculations. |
|      (for HF NCORE is supported but not extensively tested yet)             |
|                                                                             |
 ----------------------------------------------------------------------------- 

 POTCAR:    PAW_PBE Ni 02Aug2007                  
  local pseudopotential read in
  partial core-charges read in
  partial kinetic energy density read in
  atomic valenz-charges read in
  non local Contribution for L=           2  read in
    real space projection operators read in
  non local Contribution for L=           2  read in
    real space projection operators read in
  non local Contribution for L=           0  read in
    real space projection operators read in
  non local Contribution for L=           0  read in
    real space projection operators read in
  non local Contribution for L=           1  read in
    real space projection operators read in
  non local Contribution for L=           1  read in
    real space projection operators read in
    PAW grid and wavefunctions read in
 
   number of l-projection  operators is LMAX  =           6
   number of lm-projection operators is LMMAX =          18
 
 POTCAR:    PAW_PBE O 08Apr2002                   
  local pseudopotential read in
  partial core-charges read in
  partial kinetic energy density read in
  kinetic energy density of atom read in
  atomic valenz-charges read in
  non local Contribution for L=           0  read in
    real space projection operators read in
  non local Contribution for L=           0  read in
    real space projection operators read in
  non local Contribution for L=           1  read in
    real space projection operators read in
  non local Contribution for L=           1  read in
    real space projection operators read in
    PAW grid and wavefunctions read in
 
   number of l-projection  operators is LMAX  =           4
   number of lm-projection operators is LMMAX =           8
 
 Optimization of the real space projectors (new method)

 maximal supplied QI-value         = 16.25
 optimisation between [QCUT,QGAM] = [ 11.38, 22.75] = [ 36.24,144.96] Ry 
 Optimized for a Real-space Cutoff    1.47 Angstroem

   l    n(q)    QCUT    max X(q) W(low)/X(q) W(high)/X(q)  e(spline) 
   2      9    11.376    60.317    0.17E-03    0.16E-04    0.16E-06
   2      9    11.376    55.921    0.17E-03    0.16E-04    0.17E-06
   0     10    11.376    51.690    0.45E-04    0.60E-04    0.21E-06
   0     10    11.376    30.015    0.37E-04    0.55E-04    0.19E-06
   1     10    11.376    18.849    0.83E-04    0.11E-03    0.92E-07
   1     10    11.376    14.624    0.69E-04    0.92E-04    0.82E-07
 Optimization of the real space projectors (new method)

 maximal supplied QI-value         = 24.76
 optimisation between [QCUT,QGAM] = [ 11.39, 22.77] = [ 36.31,145.25] Ry 
 Optimized for a Real-space Cutoff    1.10 Angstroem

   l    n(q)    QCUT    max X(q) W(low)/X(q) W(high)/X(q)  e(spline) 
   0      7    11.387    20.381    0.22E-03    0.48E-03    0.18E-06
   0      7    11.387    15.268    0.22E-03    0.52E-03    0.19E-06
   1      7    11.387     5.964    0.22E-03    0.73E-03    0.24E-06
   1      7    11.387     5.382    0.19E-03    0.60E-03    0.21E-06

 ----------------------------------------------------------------------------- 
|                                                                             |
|  ADVICE TO THIS USER RUNNING 'VASP/VAMP'   (HEAR YOUR MASTER'S VOICE ...):  |
|                                                                             |
|      You enforced a specific xc-type in the INCAR file,                     |
|      a different type was found on the POTCAR file                          |
|          I HOPE YOU KNOW, WHAT YOU ARE  DOING                               |
|                                                                             |
 ----------------------------------------------------------------------------- 

  PAW_PBE Ni 02Aug2007                  :
 energy of atom  1       EATOM=-1077.6739
 kinetic energy error for atom=    0.0030 (will be added to EATOM!!)
  PAW_PBE O 08Apr2002                   :
 energy of atom  2       EATOM= -432.3788
 kinetic energy error for atom=    0.0224 (will be added to EATOM!!)
 
 
 POSCAR: NiO_C2_m_scale_0_975_disp_0_10_round_2  
  positions in direct lattice
  No initial velocities read in
 exchange correlation table for  LEXCH =       14
   RHO(1)=    0.500       N(1)  =     2000
   RHO(2)=  100.500       N(2)  =     4000
 


--------------------------------------------------------------------------------------------------------


 ion  position               nearest neighbor table
   1  0.997  0.010  0.999-  47 1.73  54 1.79  53 1.91  36 1.95  29 1.97  30 2.14   9 2.55  27 2.61
                             3 2.66   4 2.78  19 2.80  25 2.87  26 2.89  13 2.90  20 2.94   7 2.94
   2  0.242  0.132  0.350-  40 1.91  30 1.93  37 2.03  36 2.11  28 2.17  39 2.17  12 2.60  14 2.73
                             8 2.82   5 2.84  26 2.85  11 2.92   3 2.93  20 2.97  13 2.98  10 2.98
   3  0.136  0.240  0.705-  40 1.87  47 1.92  29 2.02  32 2.03  28 2.36  31 2.38  13 2.47   4 2.59
                             1 2.66  15 2.71   9 2.72  12 2.74  21 2.79  27 2.85   2 2.93   6 2.95
   4  0.007  0.342  0.986-  50 1.67  47 1.82  32 2.02  48 2.07  33 2.17  30 2.23   3 2.59  21 2.64
                            22 2.72   1 2.78   7 2.79  13 2.80   6 2.83  16 2.88  23 2.90  19 2.91
   5  0.248  0.469  0.326-  43 1.93  42 1.95  30 1.96  33 2.06  40 2.09  31 2.12  16 2.69  13 2.82
                             2 2.84  14 2.84   8 2.87  17 2.91   6 2.91   4 2.96  15 2.96  23 2.96
   6  0.114  0.573  0.660-  34 1.91  43 1.94  31 1.96  50 2.02  32 2.10  35 2.22  24 2.65   8 2.65
                             7 2.76  23 2.82   4 2.83  21 2.85  18 2.85   9 2.89  15 2.90   5 2.91
   7  0.994  0.663  0.989-  50 1.84  53 1.86  51 1.86  35 1.96  33 2.01  36 2.16  24 2.56   9 2.64
                            16 2.70  22 2.75   6 2.76   4 2.79  23 2.82   1 2.94  25 2.96  26 3.05
   8  0.227  0.793  0.358-  43 1.95  37 1.95  34 2.03  33 2.05  45 2.07  36 2.18   6 2.65  18 2.72
                            16 2.72  26 2.80   2 2.82   5 2.87  23 2.88  11 2.89  17 2.96   9 2.98
   9  0.108  0.907  0.710-  53 1.83  29 1.87  35 1.94  37 2.12  28 2.15  34 2.21   1 2.55  27 2.63
                             7 2.64   3 2.72  24 2.74  10 2.79  12 2.81   6 2.89  26 2.90  18 2.97
  10  0.371  0.027  0.999-  38 1.71  39 1.78  29 1.89  35 1.90  45 1.99  36 2.25  19 2.60  22 2.61
                            16 2.66  18 2.76  12 2.78  11 2.78   9 2.79  13 2.88   2 2.98   8 3.04
  11  0.579  0.119  0.334-  48 1.91  39 1.92  49 1.95  45 1.99  46 2.12  37 2.23  17 2.60  20 2.62
                            22 2.72  19 2.75  23 2.75  10 2.78  18 2.81  14 2.82  12 2.83  21 2.87
  12  0.446  0.221  0.656-  37 1.82  49 1.92  40 1.95  41 2.10  29 2.15  38 2.23   2 2.60  14 2.69
                            18 2.74   3 2.74  10 2.78   9 2.81  11 2.83  13 2.87  15 2.91  21 3.01
  13  0.340  0.349  0.988-  32 1.94  29 1.95  42 2.07  41 2.10  30 2.21  39 2.30   3 2.47  15 2.57
                            25 2.74   4 2.80   5 2.82  12 2.87  10 2.88   1 2.90   2 2.98  22 3.00
  14  0.570  0.446  0.350-  49 1.87  42 2.14  51 2.15  39 2.16  40 2.19  52 2.19  12 2.69  23 2.71
                             2 2.73  11 2.82   5 2.84  24 2.87  22 2.88  25 2.92  26 2.94  15 2.97
  15  0.449  0.564  0.696-  32 1.83  52 1.94  41 1.96  44 1.99  40 2.09  43 2.13  13 2.57  25 2.66
                             3 2.71  18 2.87   6 2.90  12 2.91  27 2.94   5 2.96  16 2.96  24 2.97
  16  0.325  0.695  0.025-  45 1.81  35 1.90  33 1.91  32 2.02  44 2.11  42 2.17  10 2.66   5 2.69
                             7 2.70   8 2.72  19 2.75  17 2.87   4 2.88  25 2.89  18 2.92  15 2.96
  17  0.585  0.816  0.332-  46 1.91  45 1.94  54 2.02  42 2.12  43 2.21  52 2.24  20 2.52  11 2.60
                            19 2.67  25 2.72  26 2.77  18 2.83  16 2.87   5 2.91  27 2.93   8 2.96
  18  0.454  0.903  0.668-  37 1.90  46 2.00  44 2.03  38 2.04  43 2.06  35 2.13   8 2.72  12 2.74
                            10 2.76  19 2.78  11 2.81  17 2.83  21 2.83   6 2.85  15 2.87  16 2.92
  19  0.663  0.001  0.001-  38 1.79  44 1.86  48 1.94  45 1.99  54 1.99  47 2.13  10 2.60  17 2.67
                            25 2.71  22 2.72  11 2.75  16 2.75  27 2.77  18 2.78  21 2.79   1 2.80
  20  0.882  0.109  0.358-  46 1.84  28 1.88  54 1.95  48 2.02  30 2.05  31 2.07  17 2.52  11 2.62
                            21 2.63  26 2.70  27 2.74  23 2.88   1 2.94  19 2.95   2 2.97   3 3.05
  21  0.800  0.221  0.676-  46 1.92  31 2.02  47 2.04  50 2.11  38 2.17  49 2.17  20 2.63   4 2.64
                            27 2.68  19 2.79   3 2.79  18 2.83   6 2.85  22 2.87  11 2.87  23 2.96
  22  0.683  0.330  0.013-  39 1.85  48 1.90  38 1.93  51 1.98  50 2.03  41 2.15  10 2.61  23 2.68
                             4 2.72  11 2.72  19 2.72   7 2.75  21 2.87  14 2.88  24 2.91  13 3.00
  23  0.892  0.452  0.328-  51 1.84  31 1.89  33 1.92  34 2.05  49 2.08  48 2.10  22 2.68  14 2.71
                            11 2.75   7 2.82   6 2.82  20 2.88   8 2.88  24 2.89   4 2.90  26 2.94
  24  0.802  0.572  0.682-  34 1.82  41 1.91  52 1.97  53 2.01  50 2.17  49 2.17   7 2.56   6 2.65
                             9 2.74  26 2.84  27 2.86  14 2.87  23 2.89  22 2.91  25 2.95  21 2.97
  25  0.655  0.678  0.010-  42 1.76  44 1.91  54 2.09  41 2.09  53 2.10  51 2.24  15 2.66  19 2.71
                            17 2.72  13 2.74  27 2.81   1 2.87  16 2.89  14 2.92  24 2.95   7 2.96
  26  0.903  0.802  0.353-  28 1.69  34 1.98  36 2.00  54 2.08  52 2.16  51 2.24  20 2.70  17 2.77
                            27 2.77   8 2.80  24 2.84   2 2.85   1 2.89   9 2.90  14 2.94  23 2.94
  27  0.799  0.906  0.687-  46 1.90  28 1.90  52 1.94  53 2.00  47 2.02  44 2.11   1 2.61   9 2.63
                            21 2.68  20 2.74  19 2.77  26 2.77  25 2.81   3 2.85  24 2.86  17 2.93
  28  0.982  0.989  0.495-  26 1.69  20 1.88  27 1.90   9 2.15   2 2.17   3 2.36
  29  0.233  0.111  0.868-   9 1.87  10 1.89  13 1.95   1 1.97   3 2.02  12 2.15
  30  0.119  0.230  0.202-   2 1.93   5 1.96  20 2.05   1 2.14  13 2.21   4 2.23
  31  0.006  0.361  0.490-  23 1.89   6 1.96  21 2.02  20 2.07   5 2.12   3 2.38
  32  0.247  0.482  0.846-  15 1.83  13 1.94  16 2.02   4 2.02   3 2.03   6 2.10
  33  0.110  0.573  0.178-  16 1.91  23 1.92   7 2.01   8 2.05   5 2.06   4 2.17
  34  0.992  0.670  0.513-  24 1.82   6 1.91  26 1.98   8 2.03  23 2.05   9 2.21
  35  0.230  0.807  0.861-  10 1.90  16 1.90   9 1.94   7 1.96  18 2.13   6 2.22
  36  0.107  0.906  0.163-   1 1.95  26 2.00   2 2.11   7 2.16   8 2.18  10 2.25
  37  0.336  0.006  0.526-  12 1.82  18 1.90   8 1.95   2 2.03   9 2.12  11 2.23
  38  0.565  0.109  0.864-  10 1.71  19 1.79  22 1.93  18 2.04  21 2.17  12 2.23
  39  0.474  0.215  0.160-  10 1.78  22 1.85  11 1.92  14 2.16   2 2.17  13 2.30
  40  0.323  0.331  0.523-   3 1.87   2 1.91  12 1.95  15 2.09   5 2.09  14 2.19
  41  0.580  0.459  0.823-  24 1.91  15 1.96  25 2.09  12 2.10  13 2.10  22 2.15
  42  0.467  0.575  0.166-  25 1.76   5 1.95  13 2.07  17 2.12  14 2.14  16 2.17
  43  0.332  0.671  0.502-   5 1.93   6 1.94   8 1.95  18 2.06  15 2.13  17 2.21
  44  0.558  0.792  0.850-  19 1.86  25 1.91  15 1.99  18 2.03  27 2.11  16 2.11
  45  0.449  0.895  0.176-  16 1.81  17 1.94  10 1.99  19 1.99  11 1.99   8 2.07
  46  0.688  0.002  0.525-  20 1.84  27 1.90  17 1.91  21 1.92  18 2.00  11 2.12
  47  0.920  0.126  0.860-   1 1.73   4 1.82   3 1.92  27 2.02  21 2.04  19 2.13
  48  0.782  0.214  0.163-  22 1.90  11 1.91  19 1.94  20 2.02   4 2.07  23 2.10
  49  0.663  0.330  0.503-  14 1.87  12 1.92  11 1.95  23 2.08  21 2.17  24 2.17
  50  0.919  0.447  0.862-   4 1.67   7 1.84   6 2.02  22 2.03  21 2.11  24 2.17
  51  0.803  0.558  0.163-  23 1.84   7 1.86  22 1.98  14 2.15  26 2.24  25 2.24
  52  0.673  0.678  0.547-  27 1.94  15 1.94  24 1.97  26 2.16  14 2.19  17 2.24
  53  0.901  0.788  0.857-   9 1.83   7 1.86   1 1.91  27 2.00  24 2.01  25 2.10
  54  0.806  0.922  0.160-   1 1.79  20 1.95  19 1.99  17 2.02  26 2.08  25 2.09
 
  LATTYP: Found a hexagonal cell.
 ALAT       =     8.5043595001
 C/A-ratio  =     0.8152863540
  
  Lattice vectors:
  
 A1 = (   8.5043595000,   0.0000000000,   0.0000000000)
 A2 = (  -4.2521797500,   7.3649913700,   0.0000000000)
 A3 = (   0.0000000000,   0.0000000000,   6.9334882500)


Analysis of symmetry for initial positions (statically):
=====================================================================
 Subroutine PRICEL returns:
 Original cell was already a primitive cell.
 

 Routine SETGRP: Setting up the symmetry group for a 
 hexagonal supercell.


 Subroutine GETGRP returns: Found  1 space group operations
 (whereof  1 operations were pure point group operations)
 out of a pool of 24 trial point group operations.


The static configuration has the point symmetry C_1 .


Analysis of symmetry for dynamics (positions and initial velocities):
=====================================================================
 Subroutine PRICEL returns:
 Original cell was already a primitive cell.
 

 Routine SETGRP: Setting up the symmetry group for a 
 hexagonal supercell.


 Subroutine GETGRP returns: Found  1 space group operations
 (whereof  1 operations were pure point group operations)
 out of a pool of 24 trial point group operations.


The dynamic configuration has the point symmetry C_1 .


Analysis of structural, dynamic, and magnetic symmetry:
=====================================================================
 Subroutine PRICEL returns:
 Original cell was already a primitive cell.
 

 Routine SETGRP: Setting up the symmetry group for a 
 hexagonal supercell.


 Subroutine GETGRP returns: Found  1 space group operations
 (whereof  1 operations were pure point group operations)
 out of a pool of 24 trial point group operations.


The magnetic configuration has the point symmetry C_1 .


 Subroutine INISYM returns: Found  1 space group operations
 (whereof  1 operations are pure point group operations),
 and found     1 'primitive' translations

 
 
 KPOINTS: Automatic mesh                          

Automatic generation of k-mesh.
Space group operators:
 irot       det(A)        alpha          n_x          n_y          n_z        tau_x        tau_y        tau_z
    1     1.000000     0.000000     1.000000     0.000000     0.000000     0.000000     0.000000     0.000000
 
 Subroutine IBZKPT returns following result:
 ===========================================
 
 Found     36 irreducible k-points:
 
 Following reciprocal coordinates:
            Coordinates               Weight
  0.000000  0.000000  0.000000      1.000000
  0.250000  0.000000  0.000000      2.000000
  0.500000  0.000000  0.000000      1.000000
  0.000000  0.250000  0.000000      2.000000
  0.250000  0.250000  0.000000      2.000000
  0.500000  0.250000  0.000000      2.000000
 -0.250000  0.250000  0.000000      2.000000
  0.000000  0.500000  0.000000      1.000000
  0.250000  0.500000  0.000000      2.000000
  0.500000  0.500000  0.000000      1.000000
  0.000000  0.000000  0.250000      2.000000
  0.250000  0.000000  0.250000      2.000000
  0.500000  0.000000  0.250000      2.000000
 -0.250000 -0.000000  0.250000      2.000000
  0.000000  0.250000  0.250000      2.000000
  0.250000  0.250000  0.250000      2.000000
  0.500000  0.250000  0.250000      2.000000
 -0.250000  0.250000  0.250000      2.000000
  0.000000  0.500000  0.250000      2.000000
  0.250000  0.500000  0.250000      2.000000
  0.500000  0.500000  0.250000      2.000000
 -0.250000  0.500000  0.250000      2.000000
  0.000000 -0.250000  0.250000      2.000000
  0.250000 -0.250000  0.250000      2.000000
  0.500000 -0.250000  0.250000      2.000000
 -0.250000 -0.250000  0.250000      2.000000
  0.000000  0.000000  0.500000      1.000000
  0.250000  0.000000  0.500000      2.000000
  0.500000  0.000000  0.500000      1.000000
  0.000000  0.250000  0.500000      2.000000
  0.250000  0.250000  0.500000      2.000000
  0.500000  0.250000  0.500000      2.000000
 -0.250000  0.250000  0.500000      2.000000
  0.000000  0.500000  0.500000      1.000000
  0.250000  0.500000  0.500000      2.000000
  0.500000  0.500000  0.500000      1.000000
 
 Following cartesian coordinates:
            Coordinates               Weight
  0.000000  0.000000  0.000000      1.000000
  0.029397  0.016972  0.000000      2.000000
  0.058793  0.033944  0.000000      1.000000
  0.000000  0.033944  0.000000      2.000000
  0.029397  0.050917  0.000000      2.000000
  0.058793  0.067889  0.000000      2.000000
 -0.029397  0.016972  0.000000      2.000000
  0.000000  0.067889  0.000000      1.000000
  0.029397  0.084861  0.000000      2.000000
  0.058793  0.101833  0.000000      1.000000
  0.000000  0.000000  0.036057      2.000000
  0.029397  0.016972  0.036057      2.000000
  0.058793  0.033944  0.036057      2.000000
 -0.029397 -0.016972  0.036057      2.000000
  0.000000  0.033944  0.036057      2.000000
  0.029397  0.050917  0.036057      2.000000
  0.058793  0.067889  0.036057      2.000000
 -0.029397  0.016972  0.036057      2.000000
  0.000000  0.067889  0.036057      2.000000
  0.029397  0.084861  0.036057      2.000000
  0.058793  0.101833  0.036057      2.000000
 -0.029397  0.050917  0.036057      2.000000
  0.000000 -0.033944  0.036057      2.000000
  0.029397 -0.016972  0.036057      2.000000
  0.058793  0.000000  0.036057      2.000000
 -0.029397 -0.050917  0.036057      2.000000
  0.000000  0.000000  0.072114      1.000000
  0.029397  0.016972  0.072114      2.000000
  0.058793  0.033944  0.072114      1.000000
  0.000000  0.033944  0.072114      2.000000
  0.029397  0.050917  0.072114      2.000000
  0.058793  0.067889  0.072114      2.000000
 -0.029397  0.016972  0.072114      2.000000
  0.000000  0.067889  0.072114      1.000000
  0.029397  0.084861  0.072114      2.000000
  0.058793  0.101833  0.072114      1.000000
 


--------------------------------------------------------------------------------------------------------




 Dimension of arrays:
   k-points           NKPTS =     36   k-points in BZ     NKDIM =     36   number of bands    NBANDS=    304
   number of dos      NEDOS =    301   number of ions     NIONS =     54
   non local maximal  LDIM  =      6   non local SUM 2l+1 LMDIM =     18
   total plane-waves  NPLWV = 221184
   max r-space proj   IRMAX =   6887   max aug-charges    IRDMAX=  16707
   dimension x,y,z NGX =    64 NGY =   64 NGZ =   54
   dimension x,y,z NGXF=   128 NGYF=  128 NGZF=  108
   support grid    NGXF=   128 NGYF=  128 NGZF=  108
   ions per type =              27  27
   NGX,Y,Z   is equivalent  to a cutoff of  12.51, 12.51, 12.95 a.u.
   NGXF,Y,Z  is equivalent  to a cutoff of  25.02, 25.02, 25.90 a.u.

 SYSTEM =  unknown system                          
 POSCAR =  NiO_C2_m_scale_0_975_disp_0_10_round_2  

 Startparameter for this run:
   NWRITE =      1    write-flag & timer
   PREC   = accura    normal or accurate (medium, high low for compatibility)
   ISTART =      0    job   : 0-new  1-cont  2-samecut
   ICHARG =      2    charge: 1-file 2-atom 10-const
   ISPIN  =      2    spin polarized calculation?
   LNONCOLLINEAR =      F non collinear calculations
   LSORBIT =      F    spin-orbit coupling
   INIWAV =      1    electr: 0-lowe 1-rand  2-diag
   LASPH  =      F    aspherical Exc in radial PAW
   METAGGA=      F    non-selfconsistent MetaGGA calc.

 Electronic Relaxation 1
   ENCUT  =  500.0 eV  36.75 Ry    6.06 a.u.  15.51 15.51 12.64*2*pi/ulx,y,z
   ENINI  =  500.0     initial cutoff
   ENAUG  =  605.4 eV  augmentation charge cutoff
   NELM   =     80;   NELMIN=  2; NELMDL= -5     # of ELM steps 
   EDIFF  = 0.1E-04   stopping-criterion for ELM
   LREAL  =      T    real-space projection
   NLSPLINE    = F    spline interpolate recip. space projectors
   LCOMPAT=      F    compatible to vasp.4.4
   GGA_COMPAT  = T    GGA compatible to vasp.4.4-vasp.4.6
   LMAXPAW     = -100 max onsite density
   LMAXMIX     =    2 max onsite mixed and CHGCAR
   VOSKOWN=      1    Vosko Wilk Nusair interpolation
   ROPT   =   -0.00025  -0.00025
 Ionic relaxation
   EDIFFG = 0.1E-03   stopping-criterion for IOM
   NSW    =      0    number of steps for IOM
   NBLOCK =      1;   KBLOCK =      1    inner block; outer block 
   IBRION =     -1    ionic relax: 0-MD 1-quasi-New 2-CG
   NFREE  =      0    steps in history (QN), initial steepest desc. (CG)
   ISIF   =      2    stress and relaxation
   IWAVPR =     10    prediction:  0-non 1-charg 2-wave 3-comb
   ISYM   =      2    0-nonsym 1-usesym 2-fastsym
   LCORR  =      T    Harris-Foulkes like correction to forces

   POTIM  = 0.5000    time-step for ionic-motion
   TEIN   =    0.0    initial temperature
   TEBEG  =    0.0;   TEEND  =   0.0 temperature during run
   SMASS  =  -3.00    Nose mass-parameter (am)
   estimated Nose-frequenzy (Omega)   =  0.10E-29 period in steps =****** mass=  -0.165E-26a.u.
   SCALEE = 1.0000    scale energy and forces
   NPACO  =    256;   APACO  = 16.0  distance and # of slots for P.C.
   PSTRESS=    0.0 pullay stress

  Mass of Ions in am
   POMASS =  58.69 16.00
  Ionic Valenz
   ZVAL   =  10.00  6.00
  Atomic Wigner-Seitz radii
   RWIGS  =   1.15  0.73
  virtual crystal weights 
   VCA    =   1.00  1.00
   NELECT =     432.0000    total number of electrons
   NUPDOWN=      -1.0000    fix difference up-down

 DOS related values:
   EMIN   =  10.00;   EMAX   =-10.00  energy-range for DOS
   EFERMI =   0.00
   ISMEAR =     0;   SIGMA  =   0.05  broadening in eV -4-tet -1-fermi 0-gaus

 Electronic relaxation 2 (details)
   IALGO  =     38    algorithm
   LDIAG  =      T    sub-space diagonalisation (order eigenvalues)
   LSUBROT=      F    optimize rotation matrix (better conditioning)
   TURBO    =      0    0=normal 1=particle mesh
   IRESTART =      0    0=no restart 2=restart with 2 vectors
   NREBOOT  =      0    no. of reboots
   NMIN     =      0    reboot dimension
   EREF     =   0.00    reference energy to select bands
   IMIX   =      4    mixing-type and parameters
     AMIX     =   0.40;   BMIX     =  1.00
     AMIX_MAG =   1.60;   BMIX_MAG =  1.00
     AMIN     =   0.10
     WC   =   100.;   INIMIX=   1;  MIXPRE=   1;  MAXMIX= -45

 Intra band minimization:
   WEIMIN = 0.0000     energy-eigenvalue tresh-hold
   EBREAK =  0.82E-08  absolut break condition
   DEPER  =   0.30     relativ break condition  

   TIME   =   0.40     timestep for ELM

  volume/ion in A,a.u.               =       8.04        54.27
  Fermi-wavevector in a.u.,A,eV,Ry     =   1.634234  3.088254 36.337355  2.670720
  Thomas-Fermi vector in A             =   2.725907
 
 Write flags
   LWAVE        =      F    write WAVECAR
   LDOWNSAMPLE  =      F    k-point downsampling of WAVECAR
   LCHARG       =      T    write CHGCAR
   LVTOT        =      F    write LOCPOT, total local potential
   LVHAR        =      F    write LOCPOT, Hartree potential only
   LELF         =      F    write electronic localiz. function (ELF)
   LORBIT       =      0    0 simple, 1 ext, 2 COOP (PROOUT), +10 PAW based schemes


 Dipole corrections
   LMONO  =      F    monopole corrections only (constant potential shift)
   LDIPOL =      F    correct potential (dipole corrections)
   IDIPOL =      0    1-x, 2-y, 3-z, 4-all directions 
   EPSILON=  1.0000000 bulk dielectric constant

 Exchange correlation treatment:
   GGA     =    PS    GGA type
   LEXCH   =    14    internal setting for exchange type
   VOSKOWN=      1    Vosko Wilk Nusair interpolation
   LHFCALC =     F    Hartree Fock is set to
   LHFONE  =     F    Hartree Fock one center treatment
   AEXX    =    0.0000 exact exchange contribution

 Linear response parameters
   LEPSILON=     F    determine dielectric tensor
   LRPA    =     F    only Hartree local field effects (RPA)
   LNABLA  =     F    use nabla operator in PAW spheres
   LVEL    =     F    velocity operator in full k-point grid
   LINTERFAST=   F  fast interpolation
   KINTER  =     0    interpolate to denser k-point grid
   CSHIFT  =0.1000    complex shift for real part using Kramers Kronig
   OMEGAMAX=  -1.0    maximum frequency
   DEG_THRESHOLD= 0.2000000E-02 threshold for treating states as degnerate
   RTIME   =   -0.100 relaxation time in fs
  (WPLASMAI=    0.000 imaginary part of plasma frequency in eV, 0.658/RTIME)
   DFIELD  = 0.0000000 0.0000000 0.0000000 field for delta impulse in time
 
 Orbital magnetization related:
   ORBITALMAG=     F  switch on orbital magnetization
   LCHIMAG   =     F  perturbation theory with respect to B field
   DQ        =  0.001000  dq finite difference perturbation B field
   LLRAUG    =     F  two centre corrections for induced B field



--------------------------------------------------------------------------------------------------------


 Static calculation
 charge density and potential will be updated during run
 spin polarized calculation
 Variant of blocked Davidson
 Davidson routine will perform the subspace rotation
 perform sub-space diagonalisation
    after iterative eigenvector-optimisation
 modified Broyden-mixing scheme, WC =      100.0
 initial mixing is a Kerker type mixing with AMIX =  0.4000 and BMIX =      1.0000
 Hartree-type preconditioning will be used
 using additional bands           88
 real space projection scheme for non local part
 use partial core corrections
 calculate Harris-corrections to forces 
   (improved forces if not selfconsistent)
 use gradient corrections 
 use of overlap-Matrix (Vanderbilt PP)
 Gauss-broadening in eV      SIGMA  =   0.05


--------------------------------------------------------------------------------------------------------


  energy-cutoff  :      500.00
  volume of cell :      434.28
      direct lattice vectors                 reciprocal lattice vectors
     8.504359500  0.000000000  0.000000000     0.117586751  0.067888742  0.000000000
    -4.252179750  7.364991370  0.000000000     0.000000000  0.135777484  0.000000000
     0.000000000  0.000000000  6.933488250     0.000000000  0.000000000  0.144227547

  length of vectors
     8.504359500  8.504359500  6.933488250     0.135777484  0.135777484  0.144227547


 
 k-points in units of 2pi/SCALE and weight: Automatic mesh                          
   0.00000000  0.00000000  0.00000000       0.016
   0.02939669  0.01697219  0.00000000       0.031
   0.05879338  0.03394437  0.00000000       0.016
   0.00000000  0.03394437  0.00000000       0.031
   0.02939669  0.05091656  0.00000000       0.031
   0.05879338  0.06788874  0.00000000       0.031
  -0.02939669  0.01697219  0.00000000       0.031
   0.00000000  0.06788874  0.00000000       0.016
   0.02939669  0.08486093  0.00000000       0.031
   0.05879338  0.10183311  0.00000000       0.016
   0.00000000  0.00000000  0.03605689       0.031
   0.02939669  0.01697219  0.03605689       0.031
   0.05879338  0.03394437  0.03605689       0.031
  -0.02939669 -0.01697219  0.03605689       0.031
   0.00000000  0.03394437  0.03605689       0.031
   0.02939669  0.05091656  0.03605689       0.031
   0.05879338  0.06788874  0.03605689       0.031
  -0.02939669  0.01697219  0.03605689       0.031
   0.00000000  0.06788874  0.03605689       0.031
   0.02939669  0.08486093  0.03605689       0.031
   0.05879338  0.10183311  0.03605689       0.031
  -0.02939669  0.05091656  0.03605689       0.031
   0.00000000 -0.03394437  0.03605689       0.031
   0.02939669 -0.01697219  0.03605689       0.031
   0.05879338  0.00000000  0.03605689       0.031
  -0.02939669 -0.05091656  0.03605689       0.031
   0.00000000  0.00000000  0.07211377       0.016
   0.02939669  0.01697219  0.07211377       0.031
   0.05879338  0.03394437  0.07211377       0.016
   0.00000000  0.03394437  0.07211377       0.031
   0.02939669  0.05091656  0.07211377       0.031
   0.05879338  0.06788874  0.07211377       0.031
  -0.02939669  0.01697219  0.07211377       0.031
   0.00000000  0.06788874  0.07211377       0.016
   0.02939669  0.08486093  0.07211377       0.031
   0.05879338  0.10183311  0.07211377       0.016
 
 k-points in reciprocal lattice and weights: Automatic mesh                          
   0.00000000  0.00000000  0.00000000       0.016
   0.25000000  0.00000000  0.00000000       0.031
   0.50000000  0.00000000  0.00000000       0.016
   0.00000000  0.25000000  0.00000000       0.031
   0.25000000  0.25000000  0.00000000       0.031
   0.50000000  0.25000000  0.00000000       0.031
  -0.25000000  0.25000000  0.00000000       0.031
   0.00000000  0.50000000  0.00000000       0.016
   0.25000000  0.50000000  0.00000000       0.031
   0.50000000  0.50000000  0.00000000       0.016
   0.00000000  0.00000000  0.25000000       0.031
   0.25000000  0.00000000  0.25000000       0.031
   0.50000000  0.00000000  0.25000000       0.031
  -0.25000000 -0.00000000  0.25000000       0.031
   0.00000000  0.25000000  0.25000000       0.031
   0.25000000  0.25000000  0.25000000       0.031
   0.50000000  0.25000000  0.25000000       0.031
  -0.25000000  0.25000000  0.25000000       0.031
   0.00000000  0.50000000  0.25000000       0.031
   0.25000000  0.50000000  0.25000000       0.031
   0.50000000  0.50000000  0.25000000       0.031
  -0.25000000  0.50000000  0.25000000       0.031
   0.00000000 -0.25000000  0.25000000       0.031
   0.25000000 -0.25000000  0.25000000       0.031
   0.50000000 -0.25000000  0.25000000       0.031
  -0.25000000 -0.25000000  0.25000000       0.031
   0.00000000  0.00000000  0.50000000       0.016
   0.25000000  0.00000000  0.50000000       0.031
   0.50000000  0.00000000  0.50000000       0.016
   0.00000000  0.25000000  0.50000000       0.031
   0.25000000  0.25000000  0.50000000       0.031
   0.50000000  0.25000000  0.50000000       0.031
  -0.25000000  0.25000000  0.50000000       0.031
   0.00000000  0.50000000  0.50000000       0.016
   0.25000000  0.50000000  0.50000000       0.031
   0.50000000  0.50000000  0.50000000       0.016
 
 position of ions in fractional coordinates (direct lattice) 
   0.99674045  0.01023445  0.99935814
   0.24236239  0.13222243  0.34955470
   0.13568205  0.23961126  0.70509082
   0.00694740  0.34151342  0.98580569
   0.24838771  0.46877319  0.32619677
   0.11386627  0.57303470  0.66012386
   0.99440052  0.66322307  0.98898053
   0.22695487  0.79341532  0.35829482
   0.10765856  0.90665671  0.71044061
   0.37143581  0.02736216  0.99917022
   0.57888553  0.11884061  0.33449298
   0.44641621  0.22138201  0.65601242
   0.34045642  0.34931642  0.98768091
   0.57038587  0.44604635  0.34998629
   0.44921507  0.56396809  0.69551858
   0.32464262  0.69504593  0.02522889
   0.58472919  0.81578579  0.33239371
   0.45359068  0.90284217  0.66760331
   0.66275996  0.00075617  0.00116631
   0.88208789  0.10932732  0.35759551
   0.79966500  0.22120649  0.67588096
   0.68267800  0.33009416  0.01286213
   0.89179075  0.45224801  0.32842973
   0.80233077  0.57166243  0.68157617
   0.65507748  0.67829052  0.01028812
   0.90293621  0.80249378  0.35325028
   0.79898168  0.90573226  0.68705733
   0.98235140  0.98928731  0.49462468
   0.23288437  0.11065515  0.86787609
   0.11855485  0.22964644  0.20195804
   0.00622876  0.36087543  0.48952621
   0.24653954  0.48153508  0.84574120
   0.11009970  0.57275763  0.17836163
   0.99238493  0.67045418  0.51278606
   0.23001165  0.80737651  0.86123323
   0.10743711  0.90646198  0.16329481
   0.33604890  0.00615725  0.52612326
   0.56481490  0.10885483  0.86392633
   0.47368226  0.21531325  0.15977086
   0.32271986  0.33144070  0.52333709
   0.58022196  0.45865735  0.82315321
   0.46669287  0.57454038  0.16605978
   0.33161428  0.67139009  0.50205919
   0.55792928  0.79210252  0.85048871
   0.44885857  0.89474603  0.17551807
   0.68824482  0.00209375  0.52460831
   0.91951752  0.12624917  0.86047625
   0.78182817  0.21410935  0.16334295
   0.66322941  0.32989469  0.50329237
   0.91898716  0.44709458  0.86192565
   0.80280784  0.55833904  0.16349506
   0.67297628  0.67807149  0.54724396
   0.90104584  0.78840553  0.85693157
   0.80611366  0.92192925  0.15998396
 
 position of ions in cartesian coordinates  (Angst):
   8.43312039  0.07537664  6.92903792
   1.49890335  0.97381706  2.42363341
   0.13501878  1.76473486  4.88873892
  -1.39309326  2.51524339  6.83507217
   0.11907052  3.45251050  2.26168147
  -1.46828685  4.22039562  4.57696103
   5.63659580  4.88463219  6.85708488
  -1.44363875  5.84349698  2.48423292
  -2.93970020  6.67751884  4.92583162
   3.04247484  0.20152207  6.92773498
   4.41771902  0.87526007  2.31920315
   2.85512784  1.63047659  4.54845441
   1.41000758  2.57271242  6.84807398
   2.95409724  3.28512752  2.42662583
   1.42219276  4.15362012  4.82236990
  -0.19458268  5.11900728  0.17492421
   1.50387943  6.00825530  2.30464788
   0.01845102  6.64942479  4.62881971
   5.63313359  0.00556919  0.00808660
   7.03671311  0.80519477  2.47938427
   5.86002888  1.62918389  4.68621269
   4.40211943  2.43114064  0.08917943
   5.66106931  3.33080269  2.27716367
   4.39249790  4.21028886  4.72570037
   2.68680118  4.99560383  0.07133256
   4.26654633  5.91035976  2.44925667
   2.94349107  6.67071028  4.76370392
   4.14764199  7.28609250  3.42947441
   1.51000682  0.81497422  6.01740867
   0.03173512  1.69134405  1.40027370
  -1.48153558  2.65784443  3.39412423
   0.04908716  3.54650171  5.86393667
  -1.49914097  4.21835500  1.23666827
   5.58870652  4.93788925  3.55539612
  -1.47700829  5.94632103  5.97135048
  -2.94075547  6.67608466  1.13220265
   2.83169892  0.04534809  3.64786944
   4.34051866  0.80171488  5.99002306
   3.11281359  1.58578023  1.10776938
   1.33518027  2.44105790  3.62855156
   2.98412264  3.37800742  5.70732311
   1.52587497  4.23148494  1.15137353
  -0.03470429  4.94478222  3.48102149
   1.37666888  5.83382822  5.89685348
   0.01263369  6.58979679  1.21695248
   5.84417837  0.01542045  3.63736555
   7.28307339  0.92982405  5.96610197
   5.73851638  1.57691351  1.13253642
   4.23756981  2.42967154  3.48957173
   5.91427067  3.29284772  5.97615137
   4.45320852  4.11216221  1.13359108
   2.83995036  4.99399067  3.79430957
   4.31037572  5.80659992  5.94152497
   2.93527147  6.79000097  1.10924691
 


--------------------------------------------------------------------------------------------------------


 k-point  1 :   0.0000 0.0000 0.0000  plane waves:   11029
 k-point  2 :   0.2500 0.0000 0.0000  plane waves:   11041
 k-point  3 :   0.5000 0.0000 0.0000  plane waves:   11030
 k-point  4 :   0.0000 0.2500 0.0000  plane waves:   11041
 k-point  5 :   0.2500 0.2500 0.0000  plane waves:   11024
 k-point  6 :   0.5000 0.2500 0.0000  plane waves:   11024
 k-point  7 :  -0.2500 0.2500 0.0000  plane waves:   11041
 k-point  8 :   0.0000 0.5000 0.0000  plane waves:   11030
 k-point  9 :   0.2500 0.5000 0.0000  plane waves:   11024
 k-point 10 :   0.5000 0.5000 0.0000  plane waves:   11030
 k-point 11 :   0.0000 0.0000 0.2500  plane waves:   11035
 k-point 12 :   0.2500 0.0000 0.2500  plane waves:   11030
 k-point 13 :   0.5000 0.0000 0.2500  plane waves:   11030
 k-point 14 :  -0.2500-0.0000 0.2500  plane waves:   11030
 k-point 15 :   0.0000 0.2500 0.2500  plane waves:   11030
 k-point 16 :   0.2500 0.2500 0.2500  plane waves:   11019
 k-point 17 :   0.5000 0.2500 0.2500  plane waves:   11019
 k-point 18 :  -0.2500 0.2500 0.2500  plane waves:   11030
 k-point 19 :   0.0000 0.5000 0.2500  plane waves:   11030
 k-point 20 :   0.2500 0.5000 0.2500  plane waves:   11019
 k-point 21 :   0.5000 0.5000 0.2500  plane waves:   11030
 k-point 22 :  -0.2500 0.5000 0.2500  plane waves:   11019
 k-point 23 :   0.0000-0.2500 0.2500  plane waves:   11030
 k-point 24 :   0.2500-0.2500 0.2500  plane waves:   11030
 k-point 25 :   0.5000-0.2500 0.2500  plane waves:   11019
 k-point 26 :  -0.2500-0.2500 0.2500  plane waves:   11019
 k-point 27 :   0.0000 0.0000 0.5000  plane waves:   11018
 k-point 28 :   0.2500 0.0000 0.5000  plane waves:   11052
 k-point 29 :   0.5000 0.0000 0.5000  plane waves:   10980
 k-point 30 :   0.0000 0.2500 0.5000  plane waves:   11052
 k-point 31 :   0.2500 0.2500 0.5000  plane waves:   10974
 k-point 32 :   0.5000 0.2500 0.5000  plane waves:   10974
 k-point 33 :  -0.2500 0.2500 0.5000  plane waves:   11052
 k-point 34 :   0.0000 0.5000 0.5000  plane waves:   10980
 k-point 35 :   0.2500 0.5000 0.5000  plane waves:   10974
 k-point 36 :   0.5000 0.5000 0.5000  plane waves:   10980

 maximum and minimum number of plane-waves per node :     11052    10974

 maximum number of plane-waves:     11052
 maximum index in each direction: 
   IXMAX=   15   IYMAX=   15   IZMAX=   12
   IXMIN=  -16   IYMIN=  -16   IZMIN=  -13

 The following grids will avoid any aliasing or wrap around errors in the Hartre
 e energy
  - symmetry arguments have not been applied
  - exchange correlation energies might require even more grid points
  - we recommend to set PREC=Normal or Accurate and rely on VASP defaults
 NGX is ok and might be reduce to    64
 NGY is ok and might be reduce to    64
 NGZ is ok and might be reduce to    54

 serial   3D FFT for wavefunctions
 parallel 3D FFT for charge:
    minimum data exchange during FFTs selected (reduces bandwidth)


 total amount of memory used by VASP MPI-rank0   360462. kBytes
=======================================================================

   base      :      30000. kBytes
   nonlr-proj:      39889. kBytes
   fftplans  :       4688. kBytes
   grid      :      26804. kBytes
   one-center:       1679. kBytes
   wavefun   :     257402. kBytes
 
     INWAV:  cpu time    0.0000: real time    0.0000
 Broyden mixing: mesh for mixing (old mesh)
   NGX = 31   NGY = 31   NGZ = 25
  (NGX  =128   NGY  =128   NGZ  =108)
  gives a total of  24025 points

 initial charge density was supplied:
 charge density of overlapping atoms calculated
 number of electron     432.0000000 magnetization      67.5000000
 keeping initial charge density in first step


--------------------------------------------------------------------------------------------------------


 Maximum index for non-local projection operator         6660
 Maximum index for augmentation-charges         1102 (set IRDMAX)


--------------------------------------------------------------------------------------------------------


 First call to EWALD:  gamma=   0.234
 Maximum number of real-space cells 3x 3x 3
 Maximum number of reciprocal cells 3x 3x 3

    FEWALD:  cpu time    0.0025: real time    0.0025


--------------------------------------- Iteration      1(   1)  ---------------------------------------


    POTLOK:  cpu time    0.1837: real time    0.2064
    SETDIJ:  cpu time    0.0361: real time    0.0362
     EDDAV:  cpu time  133.6035: real time  133.9199
    --------------------------------------------
      LOOP:  cpu time  133.8272: real time  134.1664

 eigenvalue-minimisations  : 43776
 total energy-change (2. order) : 0.5398395E+04  (-0.1717752E+05)
 number of electron     432.0000000 magnetization      67.5000000
 augmentation part      432.0000000 magnetization      67.5000000

 Free energy of the ion-electron system (eV)
  ---------------------------------------------------
  alpha Z        PSCENC =      1991.78600378
  Ewald energy   TEWEN  =    -36196.20218524
  -Hartree energ DENC   =     -8499.94454566
  -exchange      EXHF   =         0.00000000
  -V(xc)+E(xc)   XCENC  =      1666.46913291
  PAW double counting   =     35307.98069315   -37155.18892105
  entropy T*S    EENTRO =        -0.00778577
  eigenvalues    EBANDS =      7575.02712100
  atomic energy  EATOM  =     40708.47505058
  Solvation  Ediel_sol  =         0.00000000
  ---------------------------------------------------
  free energy    TOTEN  =      5398.39456371 eV

  energy without entropy =     5398.40234948  energy(sigma->0) =     5398.39845659


--------------------------------------------------------------------------------------------------------




--------------------------------------- Iteration      1(   2)  ---------------------------------------


     EDDAV:  cpu time  133.6328: real time  133.9491
    --------------------------------------------
      LOOP:  cpu time  133.6329: real time  133.9492

 eigenvalue-minimisations  : 43776
 total energy-change (2. order) :-0.4616460E+04  (-0.4162127E+04)
 number of electron     432.0000000 magnetization      67.5000000
 augmentation part      432.0000000 magnetization      67.5000000

 Free energy of the ion-electron system (eV)
  ---------------------------------------------------
  alpha Z        PSCENC =      1991.78600378
  Ewald energy   TEWEN  =    -36196.20218524
  -Hartree energ DENC   =     -8499.94454566
  -exchange      EXHF   =         0.00000000
  -V(xc)+E(xc)   XCENC  =      1666.46913291
  PAW double counting   =     35307.98069315   -37155.18892105
  entropy T*S    EENTRO =        -0.02392348
  eigenvalues    EBANDS =      2958.58328045
  atomic energy  EATOM  =     40708.47505058
  Solvation  Ediel_sol  =         0.00000000
  ---------------------------------------------------
  free energy    TOTEN  =       781.93458545 eV

  energy without entropy =      781.95850893  energy(sigma->0) =      781.94654719


--------------------------------------------------------------------------------------------------------




--------------------------------------- Iteration      1(   3)  ---------------------------------------


     EDDAV:  cpu time  134.3353: real time  134.6533
    --------------------------------------------
      LOOP:  cpu time  134.3372: real time  134.6552

 eigenvalue-minimisations  : 44848
 total energy-change (2. order) :-0.1053307E+04  (-0.9367260E+03)
 number of electron     432.0000000 magnetization      67.5000000
 augmentation part      432.0000000 magnetization      67.5000000

 Free energy of the ion-electron system (eV)
  ---------------------------------------------------
  alpha Z        PSCENC =      1991.78600378
  Ewald energy   TEWEN  =    -36196.20218524
  -Hartree energ DENC   =     -8499.94454566
  -exchange      EXHF   =         0.00000000
  -V(xc)+E(xc)   XCENC  =      1666.46913291
  PAW double counting   =     35307.98069315   -37155.18892105
  entropy T*S    EENTRO =        -0.09460757
  eigenvalues    EBANDS =      1905.34717243
  atomic energy  EATOM  =     40708.47505058
  Solvation  Ediel_sol  =         0.00000000
  ---------------------------------------------------
  free energy    TOTEN  =      -271.37220666 eV

  energy without entropy =     -271.27759909  energy(sigma->0) =     -271.32490288


--------------------------------------------------------------------------------------------------------




--------------------------------------- Iteration      1(   4)  ---------------------------------------


     EDDAV:  cpu time  150.7608: real time  151.1176
    --------------------------------------------
      LOOP:  cpu time  150.7615: real time  151.1183

 eigenvalue-minimisations  : 51152
 total energy-change (2. order) :-0.1100667E+03  (-0.1048320E+03)
 number of electron     432.0000000 magnetization      67.5000000
 augmentation part      432.0000000 magnetization      67.5000000

 Free energy of the ion-electron system (eV)
  ---------------------------------------------------
  alpha Z        PSCENC =      1991.78600378
  Ewald energy   TEWEN  =    -36196.20218524
  -Hartree energ DENC   =     -8499.94454566
  -exchange      EXHF   =         0.00000000
  -V(xc)+E(xc)   XCENC  =      1666.46913291
  PAW double counting   =     35307.98069315   -37155.18892105
  entropy T*S    EENTRO =        -0.09007431
  eigenvalues    EBANDS =      1795.27598751
  atomic energy  EATOM  =     40708.47505058
  Solvation  Ediel_sol  =         0.00000000
  ---------------------------------------------------
  free energy    TOTEN  =      -381.43885832 eV

  energy without entropy =     -381.34878400  energy(sigma->0) =     -381.39382116


--------------------------------------------------------------------------------------------------------




--------------------------------------- Iteration      1(   5)  ---------------------------------------


     EDDAV:  cpu time  155.9272: real time  156.2963
    CHARGE:  cpu time    4.4836: real time    4.4942
    MIXING:  cpu time    0.0032: real time    0.0033
    --------------------------------------------
      LOOP:  cpu time  160.4075: real time  160.7873

 eigenvalue-minimisations  : 50624
 total energy-change (2. order) :-0.2590364E+01  (-0.2570891E+01)
 number of electron     432.0000058 magnetization      58.5913131
 augmentation part      174.9815827 magnetization      46.1703876

 Broyden mixing:
  rms(total) = 0.99104E+01    rms(broyden)= 0.99090E+01
  rms(prec ) = 0.12117E+02
  weight for this iteration     100.00

 Free energy of the ion-electron system (eV)
  ---------------------------------------------------
  alpha Z        PSCENC =      1991.78600378
  Ewald energy   TEWEN  =    -36196.20218524
  -Hartree energ DENC   =     -8499.94454566
  -exchange      EXHF   =         0.00000000
  -V(xc)+E(xc)   XCENC  =      1666.46913291
  PAW double counting   =     35307.98069315   -37155.18892105
  entropy T*S    EENTRO =        -0.08982697
  eigenvalues    EBANDS =      1792.68537585
  atomic energy  EATOM  =     40708.47505058
  Solvation  Ediel_sol  =         0.00000000
  ---------------------------------------------------
  free energy    TOTEN  =      -384.02922264 eV

  energy without entropy =     -383.93939567  energy(sigma->0) =     -383.98430915


--------------------------------------------------------------------------------------------------------




--------------------------------------- Iteration      1(   6)  ---------------------------------------


    POTLOK:  cpu time    0.1245: real time    0.1248
    SETDIJ:  cpu time    0.0344: real time    0.0345
     EDDAV:  cpu time  173.9283: real time  174.3401
    CHARGE:  cpu time    4.2099: real time    4.2199
    MIXING:  cpu time    0.0041: real time    0.0042
    --------------------------------------------
      LOOP:  cpu time  178.3011: real time  178.7234

 eigenvalue-minimisations  : 62992
 total energy-change (2. order) : 0.2447458E+02  (-0.3411061E+02)
 number of electron     432.0000058 magnetization      48.2567132
 augmentation part      194.9617169 magnetization      41.6666951

 Broyden mixing:
  rms(total) = 0.11450E+02    rms(broyden)= 0.11449E+02
  rms(prec ) = 0.13947E+02
  weight for this iteration     100.00

 eigenvalues of (default mixing * dielectric matrix)
  average eigenvalue GAMMA=   0.3202
  0.3202

 Free energy of the ion-electron system (eV)
  ---------------------------------------------------
  alpha Z        PSCENC =      1991.78600378
  Ewald energy   TEWEN  =    -36196.20218524
  -Hartree energ DENC   =     -8202.01415384
  -exchange      EXHF   =         0.00000000
  -V(xc)+E(xc)   XCENC  =      1662.47737467
  PAW double counting   =     39137.03945634   -40856.16862292
  entropy T*S    EENTRO =        -0.04129705
  eigenvalues    EBANDS =      1395.09373422
  atomic energy  EATOM  =     40708.47505058
  Solvation  Ediel_sol  =         0.00000000
  ---------------------------------------------------
  free energy    TOTEN  =      -359.55463945 eV

  energy without entropy =     -359.51334240  energy(sigma->0) =     -359.53399093


--------------------------------------------------------------------------------------------------------




--------------------------------------- Iteration      1(   7)  ---------------------------------------


    POTLOK:  cpu time    0.1614: real time    0.1617
    SETDIJ:  cpu time    0.0350: real time    0.0351
     EDDAV:  cpu time  151.5180: real time  151.8767
    CHARGE:  cpu time    3.8087: real time    3.8177
    MIXING:  cpu time    0.0048: real time    0.0048
    --------------------------------------------
      LOOP:  cpu time  155.5279: real time  155.8961

 eigenvalue-minimisations  : 52848
 total energy-change (2. order) :-0.1852764E+00  (-0.2407327E+02)
 number of electron     432.0000062 magnetization      42.8718759
 augmentation part      186.1295016 magnetization      35.2425273

 Broyden mixing:
  rms(total) = 0.11288E+02    rms(broyden)= 0.11287E+02
  rms(prec ) = 0.15724E+02
  weight for this iteration     100.00

 eigenvalues of (default mixing * dielectric matrix)
  average eigenvalue GAMMA=   0.3552
  0.3552  0.3552

 Free energy of the ion-electron system (eV)
  ---------------------------------------------------
  alpha Z        PSCENC =      1991.78600378
  Ewald energy   TEWEN  =    -36196.20218524
  -Hartree energ DENC   =     -8291.02863019
  -exchange      EXHF   =         0.00000000
  -V(xc)+E(xc)   XCENC  =      1655.02740926
  PAW double counting   =     40760.35486873   -42586.42839622
  entropy T*S    EENTRO =        -0.06002925
  eigenvalues    EBANDS =      1598.33599271
  atomic energy  EATOM  =     40708.47505058
  Solvation  Ediel_sol  =         0.00000000
  ---------------------------------------------------
  free energy    TOTEN  =      -359.73991584 eV

  energy without entropy =     -359.67988659  energy(sigma->0) =     -359.70990122


--------------------------------------------------------------------------------------------------------




--------------------------------------- Iteration      1(   8)  ---------------------------------------


    POTLOK:  cpu time    0.1548: real time    0.1552
    SETDIJ:  cpu time    0.0370: real time    0.0371
     EDDAV:  cpu time  146.9062: real time  147.2540
    CHARGE:  cpu time    3.8169: real time    3.8260
    MIXING:  cpu time    0.0031: real time    0.0031
    --------------------------------------------
      LOOP:  cpu time  150.9181: real time  151.2753

 eigenvalue-minimisations  : 53840
 total energy-change (2. order) : 0.1211887E+02  (-0.1618758E+02)
 number of electron     432.0000061 magnetization      37.7678922
 augmentation part      184.7474143 magnetization      31.4731666

 Broyden mixing:
  rms(total) = 0.79533E+01    rms(broyden)= 0.79524E+01
  rms(prec ) = 0.12028E+02
  weight for this iteration     100.00

 eigenvalues of (default mixing * dielectric matrix)
  average eigenvalue GAMMA=   0.4427
  0.5884  0.5884  0.1514

 Free energy of the ion-electron system (eV)
  ---------------------------------------------------
  alpha Z        PSCENC =      1991.78600378
  Ewald energy   TEWEN  =    -36196.20218524
  -Hartree energ DENC   =     -8325.31648458
  -exchange      EXHF   =         0.00000000
  -V(xc)+E(xc)   XCENC  =      1653.01158926
  PAW double counting   =     41832.55514883   -43702.24332471
  entropy T*S    EENTRO =        -0.06578491
  eigenvalues    EBANDS =      1690.37893659
  atomic energy  EATOM  =     40708.47505058
  Solvation  Ediel_sol  =         0.00000000
  ---------------------------------------------------
  free energy    TOTEN  =      -347.62105039 eV

  energy without entropy =     -347.55526548  energy(sigma->0) =     -347.58815793


--------------------------------------------------------------------------------------------------------




--------------------------------------- Iteration      1(   9)  ---------------------------------------


    POTLOK:  cpu time    0.1259: real time    0.1262
    SETDIJ:  cpu time    0.0248: real time    0.0249
     EDDAV:  cpu time  156.2088: real time  156.5787
    CHARGE:  cpu time    3.8250: real time    3.8341
    MIXING:  cpu time    0.0035: real time    0.0035
    --------------------------------------------
      LOOP:  cpu time  160.1880: real time  160.5673

 eigenvalue-minimisations  : 57680
 total energy-change (2. order) :-0.3926981E+01  (-0.8726557E+01)
 number of electron     432.0000048 magnetization      25.6500685
 augmentation part      184.4508635 magnetization      20.0329202

 Broyden mixing:
  rms(total) = 0.96788E+01    rms(broyden)= 0.96779E+01
  rms(prec ) = 0.16243E+02
  weight for this iteration     100.00

 eigenvalues of (default mixing * dielectric matrix)
  average eigenvalue GAMMA=   0.5137
  1.0748  0.6854  0.1777  0.1170

 Free energy of the ion-electron system (eV)
  ---------------------------------------------------
  alpha Z        PSCENC =      1991.78600378
  Ewald energy   TEWEN  =    -36196.20218524
  -Hartree energ DENC   =     -8313.83868302
  -exchange      EXHF   =         0.00000000
  -V(xc)+E(xc)   XCENC  =      1651.36930540
  PAW double counting   =     42750.86538342   -44641.93648022
  entropy T*S    EENTRO =        -0.05025590
  eigenvalues    EBANDS =      1697.98382947
  atomic energy  EATOM  =     40708.47505058
  Solvation  Ediel_sol  =         0.00000000
  ---------------------------------------------------
  free energy    TOTEN  =      -351.54803173 eV

  energy without entropy =     -351.49777583  energy(sigma->0) =     -351.52290378


--------------------------------------------------------------------------------------------------------




--------------------------------------- Iteration      1(  10)  ---------------------------------------


    POTLOK:  cpu time    0.1261: real time    0.1264
    SETDIJ:  cpu time    0.0246: real time    0.0247
     EDDAV:  cpu time  152.6392: real time  153.0006
    CHARGE:  cpu time    4.1057: real time    4.1155
    MIXING:  cpu time    0.0042: real time    0.0042
    --------------------------------------------
      LOOP:  cpu time  156.8999: real time  157.2713

 eigenvalue-minimisations  : 56544
 total energy-change (2. order) :-0.8930932E+01  (-0.1080672E+02)
 number of electron     432.0000057 magnetization      18.8714127
 augmentation part      184.6229441 magnetization      15.3683261

 Broyden mixing:
  rms(total) = 0.96160E+01    rms(broyden)= 0.96154E+01
  rms(prec ) = 0.16638E+02
  weight for this iteration     100.00

 eigenvalues of (default mixing * dielectric matrix)
  average eigenvalue GAMMA=   0.5503
  1.5475  0.6664  0.3027  0.1175  0.1175

 Free energy of the ion-electron system (eV)
  ---------------------------------------------------
  alpha Z        PSCENC =      1991.78600378
  Ewald energy   TEWEN  =    -36196.20218524
  -Hartree energ DENC   =     -8264.22459146
  -exchange      EXHF   =         0.00000000
  -V(xc)+E(xc)   XCENC  =      1648.47186898
  PAW double counting   =     44907.71057390   -46832.77033069
  entropy T*S    EENTRO =        -0.05696635
  eigenvalues    EBANDS =      1676.33161280
  atomic energy  EATOM  =     40708.47505058
  Solvation  Ediel_sol  =         0.00000000
  ---------------------------------------------------
  free energy    TOTEN  =      -360.47896370 eV

  energy without entropy =     -360.42199735  energy(sigma->0) =     -360.45048053


--------------------------------------------------------------------------------------------------------




--------------------------------------- Iteration      1(  11)  ---------------------------------------


    POTLOK:  cpu time    0.1444: real time    0.1447
    SETDIJ:  cpu time    0.0339: real time    0.0340
     EDDAV:  cpu time  151.4522: real time  151.8109
    CHARGE:  cpu time    4.0995: real time    4.1092
    MIXING:  cpu time    0.0036: real time    0.0036
    --------------------------------------------
      LOOP:  cpu time  155.7335: real time  156.1023

 eigenvalue-minimisations  : 55520
 total energy-change (2. order) :-0.1144307E+02  (-0.1028213E+02)
 number of electron     432.0000060 magnetization      14.2158570
 augmentation part      184.1969185 magnetization      10.5283117

 Broyden mixing:
  rms(total) = 0.97990E+01    rms(broyden)= 0.97984E+01
  rms(prec ) = 0.16966E+02
  weight for this iteration     100.00

 eigenvalues of (default mixing * dielectric matrix)
  average eigenvalue GAMMA=   0.5393
  1.8360  0.6580  0.3982  0.1248  0.1248  0.0939

 Free energy of the ion-electron system (eV)
  ---------------------------------------------------
  alpha Z        PSCENC =      1991.78600378
  Ewald energy   TEWEN  =    -36196.20218524
  -Hartree energ DENC   =     -8247.71568621
  -exchange      EXHF   =         0.00000000
  -V(xc)+E(xc)   XCENC  =      1646.90920290
  PAW double counting   =     45954.03489126   -47895.52315213
  entropy T*S    EENTRO =        -0.06788836
  eigenvalues    EBANDS =      1666.38173186
  atomic energy  EATOM  =     40708.47505058
  Solvation  Ediel_sol  =         0.00000000
  ---------------------------------------------------
  free energy    TOTEN  =      -371.92203156 eV

  energy without entropy =     -371.85414320  energy(sigma->0) =     -371.88808738


--------------------------------------------------------------------------------------------------------




--------------------------------------- Iteration      1(  12)  ---------------------------------------


    POTLOK:  cpu time    0.1261: real time    0.1264
    SETDIJ:  cpu time    0.0244: real time    0.0245
     EDDAV:  cpu time  140.7934: real time  141.1267
    CHARGE:  cpu time    3.8238: real time    3.8328
    MIXING:  cpu time    0.0038: real time    0.0038
    --------------------------------------------
      LOOP:  cpu time  144.7716: real time  145.1143

 eigenvalue-minimisations  : 50560
 total energy-change (2. order) : 0.1796376E+02  (-0.6385954E+01)
 number of electron     432.0000062 magnetization      12.8598117
 augmentation part      184.9547782 magnetization       9.6744871

 Broyden mixing:
  rms(total) = 0.79940E+01    rms(broyden)= 0.79937E+01
  rms(prec ) = 0.13875E+02
  weight for this iteration     100.00

 eigenvalues of (default mixing * dielectric matrix)
  average eigenvalue GAMMA=   0.5008
  1.9270  0.6552  0.4244  0.1610  0.1246  0.1246  0.0887

 Free energy of the ion-electron system (eV)
  ---------------------------------------------------
  alpha Z        PSCENC =      1991.78600378
  Ewald energy   TEWEN  =    -36196.20218524
  -Hartree energ DENC   =     -8239.13921447
  -exchange      EXHF   =         0.00000000
  -V(xc)+E(xc)   XCENC  =      1646.17471895
  PAW double counting   =     46627.58845254   -48579.94118630
  entropy T*S    EENTRO =        -0.06380976
  eigenvalues    EBANDS =      1687.36390317
  atomic energy  EATOM  =     40708.47505058
  Solvation  Ediel_sol  =         0.00000000
  ---------------------------------------------------
  free energy    TOTEN  =      -353.95826676 eV

  energy without entropy =     -353.89445700  energy(sigma->0) =     -353.92636188


--------------------------------------------------------------------------------------------------------




--------------------------------------- Iteration      1(  13)  ---------------------------------------


    POTLOK:  cpu time    0.1282: real time    0.1285
    SETDIJ:  cpu time    0.0250: real time    0.0251
     EDDAV:  cpu time  148.0823: real time  148.4330
    CHARGE:  cpu time    3.8142: real time    3.8232
    MIXING:  cpu time    0.0041: real time    0.0041
    --------------------------------------------
      LOOP:  cpu time  152.0539: real time  152.4139

 eigenvalue-minimisations  : 54080
 total energy-change (2. order) : 0.1949125E+02  (-0.3450709E+01)
 number of electron     432.0000062 magnetization      12.3690912
 augmentation part      186.0519294 magnetization       9.8903613

 Broyden mixing:
  rms(total) = 0.39927E+01    rms(broyden)= 0.39921E+01
  rms(prec ) = 0.65137E+01
  weight for this iteration     100.00

 eigenvalues of (default mixing * dielectric matrix)
  average eigenvalue GAMMA=   0.4830
  1.9117  0.7525  0.3762  0.3762  0.1344  0.1344  0.0947  0.0836

 Free energy of the ion-electron system (eV)
  ---------------------------------------------------
  alpha Z        PSCENC =      1991.78600378
  Ewald energy   TEWEN  =    -36196.20218524
  -Hartree energ DENC   =     -8237.30294913
  -exchange      EXHF   =         0.00000000
  -V(xc)+E(xc)   XCENC  =      1645.99464497
  PAW double counting   =     46819.92685838   -48776.08106976
  entropy T*S    EENTRO =        -0.05528459
  eigenvalues    EBANDS =      1708.99190958
  atomic energy  EATOM  =     40708.47505058
  Solvation  Ediel_sol  =         0.00000000
  ---------------------------------------------------
  free energy    TOTEN  =      -334.46702143 eV

  energy without entropy =     -334.41173684  energy(sigma->0) =     -334.43937913


--------------------------------------------------------------------------------------------------------




--------------------------------------- Iteration      1(  14)  ---------------------------------------


    POTLOK:  cpu time    0.1269: real time    0.1272
    SETDIJ:  cpu time    0.0248: real time    0.0249
     EDDAV:  cpu time  148.9970: real time  149.3497
    CHARGE:  cpu time    3.8590: real time    3.8682
    MIXING:  cpu time    0.0045: real time    0.0045
    --------------------------------------------
      LOOP:  cpu time  153.0123: real time  153.3745

 eigenvalue-minimisations  : 54976
 total energy-change (2. order) : 0.1927671E+01  (-0.2571825E+01)
 number of electron     432.0000060 magnetization      12.4447696
 augmentation part      185.8190918 magnetization      10.1950547

 Broyden mixing:
  rms(total) = 0.40508E+01    rms(broyden)= 0.40498E+01
  rms(prec ) = 0.66297E+01
  weight for this iteration     100.00

 eigenvalues of (default mixing * dielectric matrix)
  average eigenvalue GAMMA=   0.4588
  1.8553  0.8382  0.4331  0.4331  0.1254  0.1254  0.1358  0.0913  0.0913

 Free energy of the ion-electron system (eV)
  ---------------------------------------------------
  alpha Z        PSCENC =      1991.78600378
  Ewald energy   TEWEN  =    -36196.20218524
  -Hartree energ DENC   =     -8240.12329568
  -exchange      EXHF   =         0.00000000
  -V(xc)+E(xc)   XCENC  =      1645.59115331
  PAW double counting   =     46781.61513140   -48737.97139778
  entropy T*S    EENTRO =        -0.05568066
  eigenvalues    EBANDS =      1714.34586939
  atomic energy  EATOM  =     40708.47505058
  Solvation  Ediel_sol  =         0.00000000
  ---------------------------------------------------
  free energy    TOTEN  =      -332.53935090 eV

  energy without entropy =     -332.48367025  energy(sigma->0) =     -332.51151057


--------------------------------------------------------------------------------------------------------




--------------------------------------- Iteration      1(  15)  ---------------------------------------


    POTLOK:  cpu time    0.1261: real time    0.1264
    SETDIJ:  cpu time    0.0248: real time    0.0248
     EDDAV:  cpu time  154.2278: real time  154.5929
    CHARGE:  cpu time    3.8279: real time    3.8370
    MIXING:  cpu time    0.0046: real time    0.0046
    --------------------------------------------
      LOOP:  cpu time  158.2112: real time  158.5857

 eigenvalue-minimisations  : 57392
 total energy-change (2. order) : 0.5113842E+01  (-0.1800929E+01)
 number of electron     432.0000061 magnetization      12.5120897
 augmentation part      185.6621127 magnetization      10.1066688

 Broyden mixing:
  rms(total) = 0.23458E+01    rms(broyden)= 0.23449E+01
  rms(prec ) = 0.37890E+01
  weight for this iteration     100.00

 eigenvalues of (default mixing * dielectric matrix)
  average eigenvalue GAMMA=   0.4302
  1.7899  0.8642  0.4395  0.4395  0.2189  0.1333  0.1333  0.0971  0.0971  0.0895

 Free energy of the ion-electron system (eV)
  ---------------------------------------------------
  alpha Z        PSCENC =      1991.78600378
  Ewald energy   TEWEN  =    -36196.20218524
  -Hartree energ DENC   =     -8242.52721074
  -exchange      EXHF   =         0.00000000
  -V(xc)+E(xc)   XCENC  =      1645.10073509
  PAW double counting   =     46610.99598595   -48563.61995874
  entropy T*S    EENTRO =        -0.06026135
  eigenvalues    EBANDS =      1718.62633197
  atomic energy  EATOM  =     40708.47505058
  Solvation  Ediel_sol  =         0.00000000
  ---------------------------------------------------
  free energy    TOTEN  =      -327.42550870 eV

  energy without entropy =     -327.36524735  energy(sigma->0) =     -327.39537802


--------------------------------------------------------------------------------------------------------




--------------------------------------- Iteration      1(  16)  ---------------------------------------


    POTLOK:  cpu time    0.1274: real time    0.1277
    SETDIJ:  cpu time    0.0244: real time    0.0244
     EDDAV:  cpu time  153.8196: real time  154.1837
    CHARGE:  cpu time    3.6137: real time    3.6222
    MIXING:  cpu time    0.0046: real time    0.0046
    --------------------------------------------
      LOOP:  cpu time  157.5896: real time  157.9627

 eigenvalue-minimisations  : 58000
 total energy-change (2. order) : 0.1684477E+01  (-0.6656440E+00)
 number of electron     432.0000061 magnetization      12.6249777
 augmentation part      185.5560873 magnetization      10.0801113

 Broyden mixing:
  rms(total) = 0.14586E+01    rms(broyden)= 0.14581E+01
  rms(prec ) = 0.21510E+01
  weight for this iteration     100.00

 eigenvalues of (default mixing * dielectric matrix)
  average eigenvalue GAMMA=   0.4174
  1.6256  0.9435  0.4971  0.4971  0.3679  0.1300  0.1300  0.1186  0.1055  0.0881
  0.0881

 Free energy of the ion-electron system (eV)
  ---------------------------------------------------
  alpha Z        PSCENC =      1991.78600378
  Ewald energy   TEWEN  =    -36196.20218524
  -Hartree energ DENC   =     -8243.68017502
  -exchange      EXHF   =         0.00000000
  -V(xc)+E(xc)   XCENC  =      1644.98646586
  PAW double counting   =     46553.18582747   -48503.65469782
  entropy T*S    EENTRO =        -0.05601203
  eigenvalues    EBANDS =      1719.41869106
  atomic energy  EATOM  =     40708.47505058
  Solvation  Ediel_sol  =         0.00000000
  ---------------------------------------------------
  free energy    TOTEN  =      -325.74103137 eV

  energy without entropy =     -325.68501934  energy(sigma->0) =     -325.71302535


--------------------------------------------------------------------------------------------------------




--------------------------------------- Iteration      1(  17)  ---------------------------------------


    POTLOK:  cpu time    0.1261: real time    0.1264
    SETDIJ:  cpu time    0.0247: real time    0.0248
     EDDAV:  cpu time  150.4841: real time  150.8404
    CHARGE:  cpu time    3.6354: real time    3.6441
    MIXING:  cpu time    0.0045: real time    0.0045
    --------------------------------------------
      LOOP:  cpu time  154.2748: real time  154.6401

 eigenvalue-minimisations  : 56704
 total energy-change (2. order) : 0.2194522E+00  (-0.2402216E+00)
 number of electron     432.0000061 magnetization      12.4643809
 augmentation part      185.4196421 magnetization       9.9445757

 Broyden mixing:
  rms(total) = 0.14532E+01    rms(broyden)= 0.14531E+01
  rms(prec ) = 0.20215E+01
  weight for this iteration     100.00

 eigenvalues of (default mixing * dielectric matrix)
  average eigenvalue GAMMA=   0.3909
  1.6207  0.9249  0.5048  0.5048  0.3648  0.1277  0.1277  0.1280  0.1280  0.0905
  0.0905  0.0787

 Free energy of the ion-electron system (eV)
  ---------------------------------------------------
  alpha Z        PSCENC =      1991.78600378
  Ewald energy   TEWEN  =    -36196.20218524
  -Hartree energ DENC   =     -8245.25916822
  -exchange      EXHF   =         0.00000000
  -V(xc)+E(xc)   XCENC  =      1644.94199580
  PAW double counting   =     46484.68593508   -48431.40090444
  entropy T*S    EENTRO =        -0.05608425
  eigenvalues    EBANDS =      1717.50777772
  atomic energy  EATOM  =     40708.47505058
  Solvation  Ediel_sol  =         0.00000000
  ---------------------------------------------------
  free energy    TOTEN  =      -325.52157919 eV

  energy without entropy =     -325.46549495  energy(sigma->0) =     -325.49353707


--------------------------------------------------------------------------------------------------------




--------------------------------------- Iteration      1(  18)  ---------------------------------------


    POTLOK:  cpu time    0.1266: real time    0.1269
    SETDIJ:  cpu time    0.0249: real time    0.0250
     EDDAV:  cpu time  145.3322: real time  145.6763
    CHARGE:  cpu time    3.6542: real time    3.6629
    MIXING:  cpu time    0.0047: real time    0.0047
    --------------------------------------------
      LOOP:  cpu time  149.1426: real time  149.4957

 eigenvalue-minimisations  : 54288
 total energy-change (2. order) : 0.1371262E+00  (-0.1614903E+00)
 number of electron     432.0000061 magnetization      11.9706943
 augmentation part      185.3881950 magnetization       9.3777475

 Broyden mixing:
  rms(total) = 0.11289E+01    rms(broyden)= 0.11287E+01
  rms(prec ) = 0.15953E+01
  weight for this iteration     100.00

 eigenvalues of (default mixing * dielectric matrix)
  average eigenvalue GAMMA=   0.4266
  1.6731  0.8247  0.7234  0.7234  0.4159  0.4159  0.1302  0.1302  0.1388  0.0991
  0.0991  0.0859  0.0859

 Free energy of the ion-electron system (eV)
  ---------------------------------------------------
  alpha Z        PSCENC =      1991.78600378
  Ewald energy   TEWEN  =    -36196.20218524
  -Hartree energ DENC   =     -8245.89198030
  -exchange      EXHF   =         0.00000000
  -V(xc)+E(xc)   XCENC  =      1644.91663861
  PAW double counting   =     46479.05858817   -48423.22726530
  entropy T*S    EENTRO =        -0.05577444
  eigenvalues    EBANDS =      1715.75647115
  atomic energy  EATOM  =     40708.47505058
  Solvation  Ediel_sol  =         0.00000000
  ---------------------------------------------------
  free energy    TOTEN  =      -325.38445299 eV

  energy without entropy =     -325.32867855  energy(sigma->0) =     -325.35656577


--------------------------------------------------------------------------------------------------------




--------------------------------------- Iteration      1(  19)  ---------------------------------------


    POTLOK:  cpu time    0.1210: real time    0.1213
    SETDIJ:  cpu time    0.0236: real time    0.0237
     EDDAV:  cpu time  146.4330: real time  146.7797
    CHARGE:  cpu time    3.6590: real time    3.6677
    MIXING:  cpu time    0.0051: real time    0.0052
    --------------------------------------------
      LOOP:  cpu time  150.2418: real time  150.5975

 eigenvalue-minimisations  : 54688
 total energy-change (2. order) :-0.4541023E+00  (-0.1341084E+00)
 number of electron     432.0000061 magnetization      11.1338147
 augmentation part      185.3866063 magnetization       8.5777571

 Broyden mixing:
  rms(total) = 0.13874E+01    rms(broyden)= 0.13872E+01
  rms(prec ) = 0.22066E+01
  weight for this iteration     100.00

 eigenvalues of (default mixing * dielectric matrix)
  average eigenvalue GAMMA=   0.4404
  1.6897  0.9511  0.9511  0.7880  0.4348  0.4348  0.1732  0.1303  0.1303  0.1113
  0.1113  0.0895  0.0895  0.0803

 Free energy of the ion-electron system (eV)
  ---------------------------------------------------
  alpha Z        PSCENC =      1991.78600378
  Ewald energy   TEWEN  =    -36196.20218524
  -Hartree energ DENC   =     -8246.07910078
  -exchange      EXHF   =         0.00000000
  -V(xc)+E(xc)   XCENC  =      1644.93705745
  PAW double counting   =     46535.95531231   -48476.94934506
  entropy T*S    EENTRO =        -0.05747447
  eigenvalues    EBANDS =      1712.29612611
  atomic energy  EATOM  =     40708.47505058
  Solvation  Ediel_sol  =         0.00000000
  ---------------------------------------------------
  free energy    TOTEN  =      -325.83855532 eV

  energy without entropy =     -325.78108086  energy(sigma->0) =     -325.80981809


--------------------------------------------------------------------------------------------------------




--------------------------------------- Iteration      1(  20)  ---------------------------------------


    POTLOK:  cpu time    0.1255: real time    0.1258
    SETDIJ:  cpu time    0.0253: real time    0.0254
     EDDAV:  cpu time  153.0451: real time  153.4075
    CHARGE:  cpu time    3.6358: real time    3.6444
    MIXING:  cpu time    0.0050: real time    0.0050
    --------------------------------------------
      LOOP:  cpu time  156.8367: real time  157.2081

 eigenvalue-minimisations  : 56640
 total energy-change (2. order) : 0.3167294E+00  (-0.1617627E+00)
 number of electron     432.0000061 magnetization      10.7149886
 augmentation part      185.4128067 magnetization       8.2723112

 Broyden mixing:
  rms(total) = 0.86225E+00    rms(broyden)= 0.86192E+00
  rms(prec ) = 0.13740E+01
  weight for this iteration     100.00

 eigenvalues of (default mixing * dielectric matrix)
  average eigenvalue GAMMA=   0.4930
  1.6598  1.2993  1.2993  0.8927  0.4922  0.4922  0.3969  0.1299  0.1299  0.1330
  0.1145  0.0937  0.0909  0.0909  0.0798

 Free energy of the ion-electron system (eV)
  ---------------------------------------------------
  alpha Z        PSCENC =      1991.78600378
  Ewald energy   TEWEN  =    -36196.20218524
  -Hartree energ DENC   =     -8247.22927695
  -exchange      EXHF   =         0.00000000
  -V(xc)+E(xc)   XCENC  =      1645.03126180
  PAW double counting   =     46623.49035801   -48558.16460651
  entropy T*S    EENTRO =        -0.05203689
  eigenvalues    EBANDS =      1707.34360546
  atomic energy  EATOM  =     40708.47505058
  Solvation  Ediel_sol  =         0.00000000
  ---------------------------------------------------
  free energy    TOTEN  =      -325.52182597 eV

  energy without entropy =     -325.46978908  energy(sigma->0) =     -325.49580752


--------------------------------------------------------------------------------------------------------




--------------------------------------- Iteration      1(  21)  ---------------------------------------


    POTLOK:  cpu time    0.1254: real time    0.1257
    SETDIJ:  cpu time    0.0242: real time    0.0243
     EDDAV:  cpu time  155.7721: real time  156.1409
    CHARGE:  cpu time    3.9073: real time    3.9165
    MIXING:  cpu time    0.0052: real time    0.0052
    --------------------------------------------
      LOOP:  cpu time  159.8342: real time  160.2126

 eigenvalue-minimisations  : 58752
 total energy-change (2. order) :-0.1122341E-02  (-0.1194225E+00)
 number of electron     432.0000061 magnetization       9.3207489
 augmentation part      185.3256667 magnetization       7.0018950

 Broyden mixing:
  rms(total) = 0.93555E+00    rms(broyden)= 0.93530E+00
  rms(prec ) = 0.14200E+01
  weight for this iteration     100.00

 eigenvalues of (default mixing * dielectric matrix)
  average eigenvalue GAMMA=   0.5301
  1.9586  1.5537  1.5537  0.9746  0.5145  0.5145  0.4288  0.1299  0.1299  0.1352
  0.1352  0.0993  0.0993  0.0879  0.0879  0.0791

 Free energy of the ion-electron system (eV)
  ---------------------------------------------------
  alpha Z        PSCENC =      1991.78600378
  Ewald energy   TEWEN  =    -36196.20218524
  -Hartree energ DENC   =     -8249.08966693
  -exchange      EXHF   =         0.00000000
  -V(xc)+E(xc)   XCENC  =      1645.13378718
  PAW double counting   =     46646.06429964   -48576.77501623
  entropy T*S    EENTRO =        -0.05454091
  eigenvalues    EBANDS =      1705.13931982
  atomic energy  EATOM  =     40708.47505058
  Solvation  Ediel_sol  =         0.00000000
  ---------------------------------------------------
  free energy    TOTEN  =      -325.52294831 eV

  energy without entropy =     -325.46840740  energy(sigma->0) =     -325.49567785


--------------------------------------------------------------------------------------------------------




--------------------------------------- Iteration      1(  22)  ---------------------------------------


    POTLOK:  cpu time    0.1257: real time    0.1260
    SETDIJ:  cpu time    0.0247: real time    0.0248
     EDDAV:  cpu time  156.3029: real time  156.6730
    CHARGE:  cpu time    3.8745: real time    3.8837
    MIXING:  cpu time    0.0054: real time    0.0054
    --------------------------------------------
      LOOP:  cpu time  160.3332: real time  160.7128

 eigenvalue-minimisations  : 58864
 total energy-change (2. order) :-0.5936904E-01  (-0.1231775E+00)
 number of electron     432.0000062 magnetization       8.9204040
 augmentation part      185.2425757 magnetization       6.7617455

 Broyden mixing:
  rms(total) = 0.78792E+00    rms(broyden)= 0.78762E+00
  rms(prec ) = 0.12587E+01
  weight for this iteration     100.00

 eigenvalues of (default mixing * dielectric matrix)
  average eigenvalue GAMMA=   0.5194
  2.0591  1.5872  1.5872  0.9691  0.5094  0.5094  0.4277  0.2040  0.1301  0.1301
  0.1423  0.1193  0.1004  0.0963  0.0892  0.0892  0.0791

 Free energy of the ion-electron system (eV)
  ---------------------------------------------------
  alpha Z        PSCENC =      1991.78600378
  Ewald energy   TEWEN  =    -36196.20218524
  -Hartree energ DENC   =     -8251.59244405
  -exchange      EXHF   =         0.00000000
  -V(xc)+E(xc)   XCENC  =      1645.42002146
  PAW double counting   =     46789.52926314   -48717.03201672
  entropy T*S    EENTRO =        -0.05286840
  eigenvalues    EBANDS =      1704.08685810
  atomic energy  EATOM  =     40708.47505058
  Solvation  Ediel_sol  =         0.00000000
  ---------------------------------------------------
  free energy    TOTEN  =      -325.58231735 eV

  energy without entropy =     -325.52944894  energy(sigma->0) =     -325.55588315


--------------------------------------------------------------------------------------------------------




--------------------------------------- Iteration      1(  23)  ---------------------------------------


    POTLOK:  cpu time    0.1262: real time    0.1265
    SETDIJ:  cpu time    0.0248: real time    0.0249
[...]
  in kB      310.8413847    309.0991517    305.4963768     -8.7559602     -8.1128462      0.5995348
  external PRESSURE =     308.4789711 kB  Pullay stress =       0.0000000 kB


 VOLUME and BASIS-vectors are now :
 -----------------------------------------------------------------------------
  energy-cutoff  :      500.00
  volume of cell :      434.28
      direct lattice vectors                 reciprocal lattice vectors
     8.504359500  0.000000000  0.000000000     0.117586751  0.067888742  0.000000000
    -4.252179750  7.364991370  0.000000000     0.000000000  0.135777484  0.000000000
     0.000000000  0.000000000  6.933488250     0.000000000  0.000000000  0.144227547

  length of vectors
     8.504359500  8.504359500  6.933488250     0.135777484  0.135777484  0.144227547


 FORCES acting on ions
    electron-ion (+dipol)            ewald-force                    non-local-force                 convergence-correction
 -----------------------------------------------------------------------------------------------
   -.985E+02 -.308E+02 -.116E+03   0.102E+03 0.299E+02 0.121E+03   0.175E+00 0.757E+00 -.244E+01   0.491E-01 0.734E-01 0.455E-01
   -.189E+02 -.595E+01 0.467E+02   0.166E+02 0.605E+01 -.487E+02   0.225E+01 -.987E+00 0.138E+01   -.221E-01 0.232E-01 -.688E-01
   0.199E+02 -.370E+02 0.150E+03   -.191E+02 0.379E+02 -.153E+03   -.152E+01 -.119E+01 0.138E+01   0.380E-01 0.475E-01 0.648E-01
   -.128E+03 -.369E+02 -.145E+03   0.129E+03 0.365E+02 0.149E+03   0.179E+01 -.510E+00 0.119E+01   0.679E-01 0.132E-01 0.205E-01
   -.577E+02 0.333E+02 -.214E+02   0.568E+02 -.346E+02 0.222E+02   0.179E+00 0.543E+00 0.331E-01   0.104E-01 -.542E-01 -.634E-01
   -.594E+02 -.405E+00 0.626E+01   0.610E+02 -.659E+00 -.836E+01   -.697E+00 0.931E+00 0.294E+01   0.490E-01 -.227E-01 0.260E-01
   0.328E+00 -.407E+02 -.812E+02   -.231E+00 0.422E+02 0.846E+02   0.787E+00 0.328E+00 -.148E+01   0.421E-01 -.118E-02 0.489E-01
   0.518E+02 -.265E+02 0.266E+02   -.518E+02 0.262E+02 -.272E+02   -.437E+00 0.368E+00 -.474E+00   -.176E-01 0.612E-02 -.318E-01
   -.507E+02 -.703E+01 0.171E+03   0.529E+02 0.723E+01 -.173E+03   -.110E+01 -.396E+00 -.160E+01   0.367E-01 0.447E-01 0.196E-01
   0.152E+03 0.308E+02 -.783E+02   -.157E+03 -.325E+02 0.798E+02   0.519E+00 -.168E+01 0.615E+00   -.509E-01 0.331E-01 0.221E-01
   0.769E+02 0.104E+02 -.123E+03   -.785E+02 -.834E+01 0.123E+03   0.994E+00 -.257E+01 0.157E+01   -.407E-01 0.168E-01 -.256E-01
   -.222E+02 -.762E+02 -.382E+02   0.230E+02 0.787E+02 0.377E+02   -.464E+00 -.821E+00 0.231E+01   -.531E-01 -.826E-02 0.270E-01
   -.637E+02 -.121E+02 -.141E+03   0.638E+02 0.121E+02 0.143E+03   0.356E+00 0.474E-01 -.154E-01   -.206E-01 -.177E-01 0.384E-01
   0.104E+03 -.886E+02 0.371E+02   -.104E+03 0.901E+02 -.368E+02   -.143E+01 -.207E+00 -.895E+00   -.490E-01 -.477E-01 -.699E-01
   -.539E+00 -.593E+00 0.131E+03   0.226E+01 0.213E+01 -.133E+03   -.114E+01 -.552E+00 0.156E+00   -.469E-01 -.646E-01 0.771E-01
   -.414E+02 0.113E+03 -.399E+01   0.413E+02 -.114E+03 0.280E+01   0.167E+01 -.471E+00 -.112E+00   -.582E-03 -.592E-01 -.897E-02
   -.207E+02 0.200E+03 -.683E+02   0.201E+02 -.203E+03 0.691E+02   0.721E+00 0.355E+00 -.232E+00   -.197E-01 -.240E-01 -.396E-01
   0.219E+01 0.632E+02 0.553E+02   -.212E+01 -.643E+02 -.560E+02   0.314E+00 0.179E+00 0.792E+00   -.266E-01 -.123E-01 0.293E-01
   -.704E+02 0.270E+02 0.304E+01   0.717E+02 -.270E+02 -.241E+01   0.814E+00 0.190E+00 0.575E+00   -.205E-02 0.113E-01 -.619E-02
   -.837E+02 -.136E+03 0.435E+01   0.873E+02 0.139E+03 -.617E+01   -.203E+01 -.703E+00 0.420E+00   0.549E-01 0.486E-01 -.404E-01
   0.699E+02 -.844E+02 0.372E+02   -.704E+02 0.857E+02 -.396E+02   -.336E+00 -.358E+00 0.236E+01   0.195E-01 0.219E-01 0.282E-01
   0.107E+03 -.144E+03 0.719E+02   -.109E+03 0.146E+03 -.722E+02   0.136E+01 0.119E+00 -.132E+01   -.283E-01 -.170E-02 0.160E-01
   0.947E+01 -.819E+01 -.591E+02   -.779E+01 0.912E+01 0.603E+02   -.122E+01 -.121E+01 -.695E-01   0.395E-01 -.160E-02 -.457E-01
   0.321E+02 0.109E+03 0.364E+02   -.359E+02 -.110E+03 -.378E+02   0.269E+01 -.471E+00 0.149E+01   0.156E-01 -.292E-01 0.337E-01
   -.963E+02 0.944E+02 -.612E+02   0.965E+02 -.950E+02 0.611E+02   0.265E+01 0.107E+01 -.736E+00   -.411E-01 -.610E-01 0.123E-01
   0.236E+01 0.156E+03 0.835E+02   -.510E+00 -.157E+03 -.855E+02   -.187E+01 -.272E+01 -.941E+00   0.449E-01 0.412E-01 -.620E-01
   0.298E+02 0.512E+02 0.444E+01   -.309E+02 -.538E+02 -.650E+01   0.490E+00 0.153E+01 0.284E+01   -.262E-02 0.368E-01 0.350E-01
   -.856E+02 -.915E+02 -.201E+02   0.926E+02 0.102E+03 0.247E+02   -.604E+01 -.734E+01 -.236E+01   0.518E-01 0.298E-01 -.400E-01
   -.250E+02 -.596E+02 -.145E+02   0.278E+02 0.609E+02 0.174E+02   -.293E+01 0.403E+00 -.323E+01   -.134E-01 0.830E-01 0.717E-01
   -.234E+02 -.403E+02 -.236E+01   0.202E+02 0.378E+02 -.388E+00   0.291E+01 0.285E+01 0.214E+01   0.674E-01 0.236E-01 -.426E-01
   -.742E+02 0.136E+02 -.200E+01   0.821E+02 -.153E+02 0.152E+01   -.766E+01 0.108E+01 0.650E+00   0.176E-01 0.171E-01 -.986E-02
   0.254E+02 -.254E+02 -.767E+00   -.318E+02 0.294E+02 0.251E+01   0.512E+01 -.367E+01 -.139E+01   0.479E-01 -.416E-01 0.597E-01
   -.234E+02 0.166E+02 -.390E+02   0.221E+02 -.188E+02 0.398E+02   0.165E+01 0.214E+01 -.617E+00   0.542E-02 -.223E-01 -.186E-01
   -.355E+01 -.241E+02 0.502E+02   0.439E+01 0.271E+02 -.552E+02   -.580E+00 -.228E+01 0.454E+01   0.441E-01 0.947E-02 -.432E-01
   -.169E+02 0.388E+02 0.518E+02   0.178E+02 -.399E+02 -.555E+02   -.479E+00 0.559E+00 0.263E+01   0.545E-02 -.983E-02 0.230E-01
   -.523E+02 0.222E+01 -.437E+02   0.574E+02 -.314E+01 0.404E+02   -.425E+01 0.869E+00 0.394E+01   -.110E-02 0.377E-01 -.250E-02
   0.285E+02 0.177E+02 0.523E+02   -.310E+02 -.213E+02 -.544E+02   0.164E+01 0.292E+01 0.118E+01   -.214E-01 0.738E-02 -.235E-01
   0.146E+01 -.820E+02 0.144E+03   0.599E+00 0.886E+02 -.156E+03   -.190E+00 -.462E+01 0.819E+01   -.103E-01 -.171E-02 0.197E-01
   0.141E+03 -.907E+02 -.702E+02   -.149E+03 0.962E+02 0.757E+02   0.650E+01 -.375E+01 -.386E+01   -.766E-01 0.612E-02 -.326E-01
   0.999E+01 -.694E+02 0.580E+02   -.119E+02 0.764E+02 -.604E+02   0.207E+01 -.615E+01 0.195E+01   -.274E-01 -.228E-01 -.230E-01
   -.163E+02 0.396E+02 -.256E+02   0.190E+02 -.424E+02 0.276E+02   -.190E+01 0.168E+01 -.132E+01   -.904E-01 -.445E-01 0.806E-01
   -.100E+02 0.618E+02 -.780E+02   0.711E+01 -.634E+02 0.814E+02   0.190E+01 0.173E+00 -.156E+01   -.261E-01 -.839E-01 -.644E-01
   -.708E+02 0.169E+02 0.323E+01   0.774E+02 -.169E+02 -.273E+01   -.581E+01 0.330E+00 -.293E+00   -.117E-01 -.279E-01 0.698E-02
   0.159E+02 0.552E+02 0.556E+02   -.191E+02 -.577E+02 -.600E+02   0.287E+01 0.252E+01 0.343E+01   -.260E-01 -.259E-01 0.257E-01
   0.460E+02 0.312E+02 -.805E+02   -.492E+02 -.291E+02 0.843E+02   0.282E+01 -.136E+01 -.242E+01   -.271E-01 0.159E-02 -.248E-01
   0.622E+02 0.196E+02 -.213E+02   -.669E+02 -.228E+02 0.252E+02   0.302E+01 0.322E+01 -.333E+01   -.267E-01 0.261E-01 0.971E-02
   0.397E+02 -.150E+02 0.467E+02   -.479E+02 0.133E+02 -.494E+02   0.640E+01 0.178E+01 -.778E-01   0.241E-01 0.405E-01 0.388E-01
   -.695E+02 -.509E+02 -.422E+02   0.770E+02 0.522E+02 0.422E+02   -.609E+01 -.111E+01 0.512E+00   0.100E-01 0.246E-01 -.194E-01
   -.221E+02 -.340E+02 -.476E+02   0.279E+02 0.361E+02 0.532E+02   -.467E+01 -.191E+01 -.541E+01   0.134E-01 -.260E-01 -.259E-01
   0.669E+02 -.520E+01 0.912E+02   -.741E+02 0.566E+01 -.988E+02   0.348E+01 0.276E+00 0.382E+01   0.422E-01 -.751E-02 0.406E-01
   0.118E+03 -.555E+02 -.393E+02   -.126E+03 0.610E+02 0.392E+02   0.629E+01 -.509E+01 0.660E+00   0.203E-01 0.801E-04 -.169E-01
   0.398E+02 0.599E+02 0.949E+02   -.413E+02 -.609E+02 -.987E+02   0.135E+01 0.615E+00 0.250E+01   -.319E-01 -.109E-01 -.147E-01
   0.569E+02 0.646E+02 -.231E+02   -.640E+02 -.690E+02 0.264E+02   0.502E+01 0.362E+01 -.366E+01   0.241E-01 0.236E-01 0.683E-01
   -.219E+02 0.722E+02 -.404E+02   0.223E+02 -.743E+02 0.419E+02   -.170E+01 0.380E+00 -.868E+00   0.333E-01 0.130E-01 -.293E-01
 -----------------------------------------------------------------------------------------------
   -.163E+02 0.203E+02 -.156E+02   0.284E-13 0.341E-12 0.426E-13   0.162E+02 -.203E+02 0.155E+02   0.631E-01 0.313E-01 0.957E-01
 
 
 POSITION                                       TOTAL-FORCE (eV/Angst)
 -----------------------------------------------------------------------------------
      8.43312      0.07538      6.92904         3.788721     -0.051741      2.688973
      1.49890      0.97382      2.42363        -0.108420     -0.859000     -0.759985
      0.13502      1.76473      4.88874        -0.683200     -0.286140     -1.156405
     -1.39309      2.51524      6.83507         3.816882     -0.918063      4.830936
      0.11907      3.45251      2.26168        -0.672477     -0.849564      0.731176
     -1.46829      4.22040      4.57696         1.003197     -0.156079      0.855728
      5.63660      4.88463      6.85708         0.925864      1.846628      1.927602
     -1.44364      5.84350      2.48423        -0.464528      0.062961     -1.158216
     -2.93970      6.67752      4.92583         1.132342     -0.151716     -2.879086
      3.04247      0.20152      6.92773        -4.472938     -3.360545      2.120312
      4.41772      0.87526      2.31920        -0.673742     -0.540235      1.386384
      2.85513      1.63048      4.54845         0.331392      1.575445      1.797879
      1.41001      2.57271      6.84807         0.442425      0.074893      1.626337
      2.95410      3.28513      2.42663        -1.252857      1.179967     -0.699667
      1.42219      4.15362      4.82237         0.532459      0.920847     -1.769479
     -0.19458      5.11901      0.17492         1.571419     -1.850286     -1.316322
      1.50388      6.00826      2.30465         0.129186     -2.136396      0.528693
      0.01845      6.64942      4.62882         0.359546     -0.904835      0.108867
      5.63313      0.00557      0.00809         2.105641      0.211965      1.199333
      7.03671      0.80519      2.47938         1.647681      2.566294     -1.443244
      5.86003      1.62918      4.68621        -0.865831      0.958546     -0.029156
      4.40212      2.43114      0.08918        -0.668974      2.092856     -1.571261
      5.66107      3.33080      2.27716         0.507211     -0.284385      1.033651
      4.39250      4.21029      4.72570        -1.124876     -1.101842      0.120384
      2.68680      4.99560      0.07133         2.855738      0.402705     -0.807738
      4.26655      5.91036      2.44926         0.028478     -3.786955     -2.972707
      2.94349      6.67071      4.76370        -0.590230     -1.016815      0.809381
      4.14764      7.28609      3.42947         0.952500      3.223782      2.194477
      1.51001      0.81497      6.01741        -0.118158      1.794264     -0.251725
      0.03174      1.69134      1.40027        -0.141888      0.372430     -0.648588
     -1.48154      2.65784      3.39412         0.259782     -0.637749      0.163779
      0.04909      3.54650      5.86394        -1.201592      0.245142      0.414740
     -1.49914      4.21836      1.23667         0.351907     -0.072207      0.222254
      5.58871      4.93789      3.55540         0.305148      0.780352     -0.516135
     -1.47701      5.94632      5.97135         0.385365     -0.563049     -1.025603
     -2.94076      6.67608      1.13220         0.815443     -0.013691      0.614717
      2.83170      0.04535      3.64787        -0.855273     -0.703207     -0.961445
      4.34052      0.80171      5.99002         1.860718      2.023814     -3.924288
      3.11281      1.58578      1.10777        -1.843469      1.790934      1.662204
      1.33518      2.44106      3.62855         0.121890      0.867952     -0.479091
      2.98412      3.37801      5.70732         0.696183     -1.147989      0.780803
      1.52587      4.23148      1.15137        -1.041509     -1.492333      1.770325
     -0.03470      4.94478      3.48102         0.761449      0.252030      0.214828
      1.37667      5.83383      5.89685        -0.301862     -0.053457     -0.977440
      0.01263      6.58980      1.21695        -0.409928      0.691805      1.410866
      5.84418      0.01542      3.63737        -1.718295     -0.030107      0.556331
      7.28307      0.92982      5.96610        -1.770611      0.100519     -2.765879
      5.73852      1.57691      1.13254         1.332481      0.269147      0.441646
      4.23757      2.42967      3.48957         1.111965      0.225469      0.146820
      5.91427      3.29285      5.97615        -3.663268      0.732974     -3.673570
      4.45321      4.11216      1.13359        -1.930390      0.419066      0.496439
      2.83995      4.99399      3.79431        -0.196098     -0.398506     -1.355995
      4.31038      5.80660      5.94152        -2.073989     -0.689812     -0.323571
      2.93527      6.79000      1.10925        -1.288608     -1.626082      0.610729
 -----------------------------------------------------------------------------------
    total drift:                                0.000717     -0.000155      0.006044


--------------------------------------------------------------------------------------------------------



  FREE ENERGIE OF THE ION-ELECTRON SYSTEM (eV)
  ---------------------------------------------------
  free  energy   TOTEN  =      -325.7012323625 eV

  energy  without entropy=     -325.6560219218  energy(sigma->0) =     -325.67862714
 


--------------------------------------------------------------------------------------------------------


    POTLOK:  cpu time    0.1480: real time    0.1562


--------------------------------------------------------------------------------------------------------


     LOOP+:  cpu time10721.9146: real time10747.5249
    4ORBIT:  cpu time    0.0000: real time    0.0000

volume of typ            1:    39.6 %

volume of typ            2:    10.1 %
 
total charge     
 
# of ion       s       p       d       tot
------------------------------------------
    1        0.273   0.364   8.026   8.663
    2        0.213   0.237   7.999   8.449
    3        0.216   0.246   8.073   8.535
    4        0.259   0.321   8.054   8.634
    5        0.217   0.251   7.971   8.440
    6        0.221   0.256   8.008   8.484
    7        0.252   0.324   8.008   8.584
    8        0.208   0.238   8.004   8.451
    9        0.230   0.276   8.039   8.545
   10        0.283   0.378   8.022   8.683
   11        0.226   0.264   8.032   8.522
   12        0.227   0.265   8.021   8.513
   13        0.200   0.220   8.050   8.470
   14        0.194   0.201   8.030   8.424
   15        0.233   0.280   7.995   8.507
   16        0.238   0.287   8.027   8.552
   17        0.206   0.231   8.044   8.481
   18        0.213   0.243   8.014   8.470
   19        0.254   0.323   8.039   8.616
   20        0.241   0.301   8.002   8.543
   21        0.198   0.219   8.042   8.459
   22        0.239   0.293   8.010   8.542
   23        0.241   0.293   8.004   8.538
   24        0.230   0.274   8.033   8.537
   25        0.226   0.268   8.020   8.514
   26        0.242   0.285   8.006   8.533
   27        0.233   0.284   8.039   8.557
   28        1.270   2.822   0.014   4.105
   29        1.263   2.820   0.012   4.095
   30        1.272   2.764   0.007   4.043
   31        1.268   2.780   0.008   4.056
   32        1.265   2.802   0.012   4.079
   33        1.269   2.792   0.010   4.071
   34        1.258   2.818   0.011   4.087
   35        1.262   2.815   0.011   4.087
   36        1.275   2.754   0.006   4.035
   37        1.251   2.826   0.011   4.088
   38        1.262   2.853   0.016   4.130
   39        1.265   2.818   0.012   4.095
   40        1.261   2.800   0.010   4.071
   41        1.267   2.777   0.008   4.052
   42        1.258   2.805   0.011   4.074
   43        1.258   2.799   0.009   4.067
   44        1.260   2.816   0.011   4.087
   45        1.261   2.829   0.013   4.102
   46        1.254   2.841   0.014   4.108
   47        1.256   2.857   0.016   4.130
   48        1.264   2.815   0.011   4.090
   49        1.264   2.795   0.010   4.069
   50        1.258   2.854   0.016   4.128
   51        1.262   2.804   0.010   4.076
   52        1.272   2.767   0.008   4.047
   53        1.263   2.828   0.014   4.105
   54        1.268   2.812   0.012   4.092
--------------------------------------------------
tot          40.31   83.28  216.92  340.51
 
magnetization (x)
 
# of ion       s       p       d       tot
------------------------------------------
    1        0.002   0.002  -0.410  -0.407
    2        0.004   0.002   0.650   0.657
    3        0.004   0.001   0.664   0.670
    4       -0.001  -0.003  -0.711  -0.715
    5        0.000   0.004  -0.998  -0.994
    6        0.001   0.003   0.990   0.995
    7        0.001   0.002   0.647   0.650
    8        0.003   0.001   0.971   0.976
    9        0.001  -0.003  -0.924  -0.926
   10       -0.000  -0.003  -0.651  -0.654
   11        0.001   0.002   0.962   0.965
   12        0.003   0.005   0.925   0.933
   13       -0.000  -0.001  -0.170  -0.171
   14       -0.001  -0.000  -0.878  -0.880
   15        0.002   0.003   0.820   0.825
   16        0.001   0.003   0.705   0.709
   17        0.002   0.005   0.939   0.946
   18        0.003   0.001   1.067   1.071
   19        0.000   0.003  -0.767  -0.764
   20       -0.001  -0.001  -0.663  -0.665
   21        0.000   0.001   1.049   1.050
   22        0.000   0.001  -0.940  -0.939
   23        0.004   0.003   0.196   0.203
   24        0.001   0.003   0.142   0.146
   25        0.002   0.005   1.058   1.065
   26        0.005   0.009   0.961   0.975
   27        0.001   0.001  -0.246  -0.243
   28       -0.000   0.008   0.000   0.008
   29       -0.006  -0.015  -0.000  -0.022
   30       -0.004  -0.019  -0.000  -0.023
   31        0.004   0.050   0.000   0.054
   32        0.003   0.030   0.000   0.033
   33        0.003   0.018   0.000   0.021
   34        0.015   0.084   0.001   0.099
   35        0.006   0.028   0.000   0.035
   36        0.003   0.066   0.000   0.069
   37        0.014   0.071   0.001   0.086
   38       -0.003  -0.032  -0.000  -0.035
   39       -0.004   0.001  -0.000  -0.004
   40        0.007   0.049   0.000   0.056
   41        0.008   0.056   0.000   0.064
   42        0.005   0.027   0.000   0.033
   43        0.014   0.102   0.000   0.117
   44        0.011   0.077   0.000   0.088
   45        0.005   0.040   0.000   0.045
   46        0.010   0.089   0.000   0.099
   47       -0.002  -0.010  -0.000  -0.013
   48       -0.007  -0.014  -0.000  -0.021
   49        0.005   0.061   0.000   0.066
   50        0.003   0.026  -0.000   0.028
   51        0.001  -0.006   0.000  -0.004
   52        0.010   0.017   0.000   0.027
   53       -0.001  -0.037   0.000  -0.037
   54       -0.001   0.050  -0.000   0.049
--------------------------------------------------
tot           0.14    0.86    5.39    6.39
 

 total amount of memory used by VASP MPI-rank0   360462. kBytes
=======================================================================

   base      :      30000. kBytes
   nonlr-proj:      39889. kBytes
   fftplans  :       4688. kBytes
   grid      :      26804. kBytes
   one-center:       1679. kBytes
   wavefun   :     257402. kBytes
 
  
  
 General timing and accounting informations for this job:
 ========================================================
  
                  Total CPU time used (sec):    10787.449
                            User time (sec):    10774.681
                          System time (sec):       12.768
                         Elapsed time (sec):    10816.738
  
                   Maximum memory used (kb):      460400.
                   Average memory used (kb):           0.
  
                          Minor page faults:        49247
                          Major page faults:           25
                 Voluntary context switches:         1166
