 vasp.5.4.4.18Apr17-6-g9f103f2a35 (build May 12 2020 04:58:55) complex          
  
 MD_VERSION_INFO: Compiled 2020-05-12T11:58:55-UTC in devlin.sd.materialsdesign.
 com:/home/medea2/data/build/wwolf/vasp-gpu5.4.4/13047/x86_64/src/src/build/std 
 from svn 13047
 
 This VASP executable licensed from Materials Design, Inc.
 
 executed on                        Lin64 date 2023.03.24  16:12:50
 running on   16 total cores
 distrk:  each k-point on   16 cores,    1 groups
 distr:  one band on NCORES_PER_BAND=   1 cores,   16 groups


--------------------------------------------------------------------------------------------------------


 INCAR:
 POTCAR:    PAW_PBE Ni 02Aug2007                  
 POTCAR:    PAW_PBE O 08Apr2002                   

 ----------------------------------------------------------------------------- 
|                                                                             |
|           W    W    AA    RRRRR   N    N  II  N    N   GGGG   !!!           |
|           W    W   A  A   R    R  NN   N  II  NN   N  G    G  !!!           |
|           W    W  A    A  R    R  N N  N  II  N N  N  G       !!!           |
|           W WW W  AAAAAA  RRRRR   N  N N  II  N  N N  G  GGG   !            |
|           WW  WW  A    A  R   R   N   NN  II  N   NN  G    G                |
|           W    W  A    A  R    R  N    N  II  N    N   GGGG   !!!           |
|                                                                             |
|      For optimal performance we recommend to set                            |
|        NCORE= 4 - approx SQRT( number of cores)                             |
|      NCORE specifies how many cores store one orbital (NPAR=cpu/NCORE).     |
|      This setting can  greatly improve the performance of VASP for DFT.     |
|      The default,   NCORE=1            might be grossly inefficient         |
|      on modern multi-core architectures or massively parallel machines.     |
|      Do your own testing !!!!                                               |
|      Unfortunately you need to use the default for GW and RPA calculations. |
|      (for HF NCORE is supported but not extensively tested yet)             |
|                                                                             |
 ----------------------------------------------------------------------------- 

 POTCAR:    PAW_PBE Ni 02Aug2007                  
  local pseudopotential read in
  partial core-charges read in
  partial kinetic energy density read in
  atomic valenz-charges read in
  non local Contribution for L=           2  read in
    real space projection operators read in
  non local Contribution for L=           2  read in
    real space projection operators read in
  non local Contribution for L=           0  read in
    real space projection operators read in
  non local Contribution for L=           0  read in
    real space projection operators read in
  non local Contribution for L=           1  read in
    real space projection operators read in
  non local Contribution for L=           1  read in
    real space projection operators read in
    PAW grid and wavefunctions read in
 
   number of l-projection  operators is LMAX  =           6
   number of lm-projection operators is LMMAX =          18
 
 POTCAR:    PAW_PBE O 08Apr2002                   
  local pseudopotential read in
  partial core-charges read in
  partial kinetic energy density read in
  kinetic energy density of atom read in
  atomic valenz-charges read in
  non local Contribution for L=           0  read in
    real space projection operators read in
  non local Contribution for L=           0  read in
    real space projection operators read in
  non local Contribution for L=           1  read in
    real space projection operators read in
  non local Contribution for L=           1  read in
    real space projection operators read in
    PAW grid and wavefunctions read in
 
   number of l-projection  operators is LMAX  =           4
   number of lm-projection operators is LMMAX =           8
 
 Optimization of the real space projectors (new method)

 maximal supplied QI-value         = 16.25
 optimisation between [QCUT,QGAM] = [ 11.38, 22.75] = [ 36.24,144.96] Ry 
 Optimized for a Real-space Cutoff    1.47 Angstroem

   l    n(q)    QCUT    max X(q) W(low)/X(q) W(high)/X(q)  e(spline) 
   2      9    11.376    60.317    0.17E-03    0.16E-04    0.16E-06
   2      9    11.376    55.921    0.17E-03    0.16E-04    0.17E-06
   0     10    11.376    51.690    0.45E-04    0.60E-04    0.21E-06
   0     10    11.376    30.015    0.37E-04    0.55E-04    0.19E-06
   1     10    11.376    18.849    0.83E-04    0.11E-03    0.92E-07
   1     10    11.376    14.624    0.69E-04    0.92E-04    0.82E-07
 Optimization of the real space projectors (new method)

 maximal supplied QI-value         = 24.76
 optimisation between [QCUT,QGAM] = [ 11.39, 22.77] = [ 36.31,145.25] Ry 
 Optimized for a Real-space Cutoff    1.10 Angstroem

   l    n(q)    QCUT    max X(q) W(low)/X(q) W(high)/X(q)  e(spline) 
   0      7    11.387    20.381    0.22E-03    0.48E-03    0.18E-06
   0      7    11.387    15.268    0.22E-03    0.52E-03    0.19E-06
   1      7    11.387     5.964    0.22E-03    0.73E-03    0.24E-06
   1      7    11.387     5.382    0.19E-03    0.60E-03    0.21E-06

 ----------------------------------------------------------------------------- 
|                                                                             |
|  ADVICE TO THIS USER RUNNING 'VASP/VAMP'   (HEAR YOUR MASTER'S VOICE ...):  |
|                                                                             |
|      You enforced a specific xc-type in the INCAR file,                     |
|      a different type was found on the POTCAR file                          |
|          I HOPE YOU KNOW, WHAT YOU ARE  DOING                               |
|                                                                             |
 ----------------------------------------------------------------------------- 

  PAW_PBE Ni 02Aug2007                  :
 energy of atom  1       EATOM=-1077.6739
 kinetic energy error for atom=    0.0030 (will be added to EATOM!!)
  PAW_PBE O 08Apr2002                   :
 energy of atom  2       EATOM= -432.3788
 kinetic energy error for atom=    0.0224 (will be added to EATOM!!)
 
 
 POSCAR: NiO_C2_m_scale_0_975_disp_0_05_round_2  
  positions in direct lattice
  No initial velocities read in
 exchange correlation table for  LEXCH =       14
   RHO(1)=    0.500       N(1)  =     2000
   RHO(2)=  100.500       N(2)  =     4000
 


--------------------------------------------------------------------------------------------------------


 ion  position               nearest neighbor table
   1  0.000  0.995  0.002-  54 1.79  53 1.80  47 1.83  29 1.94  36 1.99  30 2.09  19 2.56  25 2.65
                             7 2.65   9 2.69  26 2.73  27 2.74   2 2.80   3 2.82  13 2.89  20 2.90
   2  0.220  0.119  0.331-  36 1.88  30 1.99  28 1.99  39 2.01  40 2.07  37 2.19  20 2.64  26 2.65
                            13 2.72   8 2.77   1 2.80   5 2.86   9 2.86   3 2.88  10 2.92  14 2.94
   3  0.114  0.227  0.678-  47 1.85  40 1.96  28 2.04  31 2.08  32 2.09  29 2.18  21 2.67   9 2.70
                            20 2.71  27 2.73   1 2.82   6 2.85   4 2.86  13 2.87  15 2.87   5 2.87
   4  0.998  0.350  0.004-  50 1.77  48 1.92  32 1.96  33 1.98  47 1.99  30 2.05  22 2.67  23 2.67
                            21 2.73   6 2.75  19 2.81  16 2.82   7 2.82   3 2.86   5 2.93  20 2.94
   5  0.231  0.460  0.346-  43 1.92  40 2.00  42 2.04  33 2.07  30 2.08  31 2.15  23 2.69  20 2.79
                            15 2.79   6 2.81   2 2.86   3 2.87   8 2.88  16 2.90  17 2.91   4 2.93
   6  0.100  0.555  0.672-  50 1.92  34 1.98  31 2.03  32 2.09  43 2.11  35 2.22  24 2.63  21 2.70
                            23 2.73   4 2.75   5 2.81  16 2.84   3 2.85   7 2.85   8 2.89  15 2.94
   7  0.992  0.679  0.000-  53 1.81  50 1.88  35 1.90  51 1.93  33 2.07  36 2.10  24 2.59  25 2.61
                             1 2.65  26 2.72   9 2.81   4 2.82  22 2.83   6 2.85  10 2.89  23 2.90
   8  0.222  0.794  0.341-  36 1.92  37 1.97  33 2.04  45 2.07  43 2.07  34 2.11  26 2.59   2 2.77
                            10 2.81  11 2.83  23 2.83   9 2.86   5 2.88   6 2.89   7 2.91  18 2.91
   9  0.123  0.914  0.681-  28 1.81  53 1.90  29 1.90  35 1.92  34 2.00  37 2.03   1 2.69   3 2.70
                            24 2.77  10 2.78  12 2.80   7 2.81  26 2.83  27 2.85   8 2.86   2 2.86
  10  0.348  1.000  0.001-  35 1.80  45 1.84  29 1.90  38 1.93  39 2.07  36 2.15  18 2.70  16 2.71
                             9 2.78  12 2.78  22 2.81   8 2.81  13 2.83  11 2.85   7 2.89   2 2.92
  11  0.566  0.114  0.341-  45 1.97  37 2.01  48 2.04  39 2.04  49 2.11  46 2.11  17 2.72  18 2.82
                            14 2.83   8 2.83  10 2.85  23 2.86  12 2.87  21 2.87  22 2.89  20 2.92
  12  0.463  0.230  0.683-  38 1.92  41 1.94  37 2.04  49 2.09  29 2.12  40 2.13  22 2.67  18 2.77
                            13 2.78  10 2.78   9 2.80  11 2.87  21 2.88  14 2.89  15 2.91  24 2.95
  13  0.344  0.330  0.011-  39 1.91  29 1.94  30 1.99  42 2.08  41 2.08  32 2.10   2 2.72  12 2.78
                            22 2.82  10 2.83  14 2.86   3 2.87   1 2.89  15 2.91   5 2.93  25 2.97
  14  0.578  0.453  0.340-  49 1.93  51 1.94  39 2.02  52 2.04  42 2.09  40 2.18  11 2.83  23 2.84
                            13 2.86  25 2.88  12 2.89  22 2.89  15 2.91  24 2.92  26 2.92   2 2.94
  15  0.450  0.566  0.674-  40 1.99  52 2.00  43 2.01  32 2.09  44 2.11  41 2.13  16 2.77   5 2.79
                            18 2.84   3 2.87  25 2.88  27 2.91  12 2.91  13 2.91  14 2.91  17 2.92
  16  0.335  0.675  0.995-  32 1.88  44 1.99  33 2.06  45 2.06  35 2.08  42 2.09  10 2.71  18 2.75
                            15 2.77   4 2.82   6 2.84   5 2.90  19 2.93   7 2.94   8 2.95  17 2.95
  17  0.575  0.800  0.335-  46 1.84  42 2.05  45 2.07  52 2.07  54 2.10  43 2.10  19 2.68  11 2.72
                            20 2.81  25 2.84  27 2.85  18 2.90   5 2.91  15 2.92  26 2.94  16 2.95
  18  0.456  0.902  0.680-  37 1.93  38 1.98  44 2.01  43 2.07  46 2.09  35 2.19  10 2.70  16 2.75
                            12 2.77  27 2.77  11 2.82  21 2.83  15 2.84   9 2.89  17 2.90   8 2.91
  19  0.700  0.996  0.011-  54 1.69  44 1.85  47 1.99  48 2.03  45 2.15  38 2.23   1 2.56  25 2.60
                            27 2.63  17 2.68   4 2.81  20 2.84  21 2.88  18 2.92  16 2.93  11 2.95
  20  0.913  0.123  0.351-  31 1.88  30 1.98  46 1.99  48 2.03  28 2.04  54 2.06   2 2.64   3 2.71
                            21 2.74  27 2.76  23 2.76   5 2.79  26 2.80  17 2.81  19 2.84   1 2.90
  21  0.798  0.224  0.674-  31 1.78  46 2.08  47 2.09  38 2.10  49 2.12  50 2.19  27 2.60   3 2.67
                             6 2.70   4 2.73  20 2.74  22 2.80  18 2.83  23 2.86  11 2.87  19 2.88
  22  0.676  0.332  0.994-  38 1.86  41 1.92  50 1.96  51 2.06  48 2.08  39 2.08   4 2.67  12 2.67
                            21 2.80  10 2.81  13 2.82  24 2.83   7 2.83  11 2.89  14 2.89  23 2.91
  23  0.908  0.445  0.335-  31 1.87  33 1.89  51 1.98  48 1.98  49 1.99  34 2.23   4 2.67   5 2.69
                             6 2.73  20 2.76   8 2.83  14 2.84  21 2.86  11 2.86   7 2.90  22 2.91
  24  0.804  0.581  0.685-  34 1.78  53 1.97  41 1.99  52 2.02  50 2.07  49 2.08   7 2.59   6 2.63
                            25 2.74   9 2.77  22 2.83  27 2.89  26 2.91  14 2.92  15 2.95  12 2.95
  25  0.688  0.684  0.005-  54 1.98  44 2.00  53 2.02  42 2.08  41 2.08  51 2.11  19 2.60   7 2.61
                             1 2.65  24 2.74  27 2.82  17 2.84  26 2.86  15 2.88  14 2.88  22 2.95
  26  0.920  0.798  0.335-  36 1.77  28 1.92  34 1.95  51 2.12  54 2.12  52 2.18   8 2.59   2 2.65
                             7 2.72   1 2.73  20 2.80   9 2.83  25 2.86  24 2.91  14 2.92  17 2.94
  27  0.787  0.912  0.679-  46 1.81  47 2.00  44 2.01  28 2.04  52 2.08  53 2.13  21 2.60  19 2.63
                             3 2.73   1 2.74  20 2.76  18 2.77  25 2.82   9 2.85  17 2.85  24 2.89
  28  0.015  0.996  0.516-   9 1.81  26 1.92   2 1.99  27 2.04   3 2.04  20 2.04
  29  0.230  0.106  0.864-  10 1.90   9 1.90  13 1.94   1 1.94  12 2.12   3 2.18
  30  0.117  0.235  0.164-  20 1.98   2 1.99  13 1.99   4 2.05   5 2.08   1 2.09
  31  0.982  0.327  0.508-  21 1.78  23 1.87  20 1.88   6 2.03   3 2.08   5 2.15
  32  0.225  0.456  0.856-  16 1.88   4 1.96  15 2.09   3 2.09   6 2.09  13 2.10
  33  0.111  0.568  0.171-  23 1.89   4 1.98   8 2.04  16 2.06   7 2.07   5 2.07
  34  0.996  0.683  0.529-  24 1.78  26 1.95   6 1.98   9 2.00   8 2.11  23 2.23
  35  0.211  0.801  0.856-  10 1.80   7 1.90   9 1.92  16 2.08  18 2.19   6 2.22
  36  0.115  0.904  0.186-  26 1.77   2 1.88   8 1.92   1 1.99   7 2.10  10 2.15
  37  0.348  0.004  0.514-  18 1.93   8 1.97  11 2.01   9 2.03  12 2.04   2 2.19
  38  0.564  0.121  0.846-  22 1.86  12 1.92  10 1.93  18 1.98  21 2.10  19 2.23
  39  0.450  0.227  0.175-  13 1.91   2 2.01  14 2.02  11 2.04  10 2.07  22 2.08
  40  0.331  0.341  0.515-   3 1.96  15 1.99   5 2.00   2 2.07  12 2.13  14 2.18
  41  0.577  0.449  0.840-  22 1.92  12 1.94  24 1.99  25 2.08  13 2.08  15 2.13
  42  0.455  0.567  0.174-   5 2.04  17 2.05  25 2.08  13 2.08  16 2.09  14 2.09
  43  0.338  0.674  0.504-   5 1.92  15 2.01  18 2.07   8 2.07  17 2.10   6 2.11
  44  0.570  0.797  0.853-  19 1.85  16 1.99  25 2.00  18 2.01  27 2.01  15 2.11
  45  0.449  0.904  0.165-  10 1.84  11 1.97  16 2.06   8 2.07  17 2.07  19 2.15
  46  0.685  0.991  0.504-  27 1.81  17 1.84  20 1.99  21 2.08  18 2.09  11 2.11
  47  0.926  0.124  0.855-   1 1.83   3 1.85  19 1.99   4 1.99  27 2.00  21 2.09
  48  0.794  0.223  0.173-   4 1.92  23 1.98  19 2.03  20 2.03  11 2.04  22 2.08
  49  0.691  0.355  0.505-  14 1.93  23 1.99  24 2.08  12 2.09  11 2.11  21 2.12
  50  0.910  0.462  0.862-   4 1.77   7 1.88   6 1.92  22 1.96  24 2.07  21 2.19
  51  0.792  0.552  0.176-   7 1.93  14 1.94  23 1.98  22 2.06  25 2.11  26 2.12
  52  0.677  0.676  0.515-  15 2.00  24 2.02  14 2.04  17 2.07  27 2.08  26 2.18
  53  0.917  0.801  0.847-   1 1.80   7 1.81   9 1.90  24 1.97  25 2.02  27 2.13
  54  0.804  0.914  0.153-  19 1.69   1 1.79  25 1.98  20 2.06  17 2.10  26 2.12
 
  LATTYP: Found a hexagonal cell.
 ALAT       =     8.5043595001
 C/A-ratio  =     0.8152863540
  
  Lattice vectors:
  
 A1 = (   8.5043595000,   0.0000000000,   0.0000000000)
 A2 = (  -4.2521797500,   7.3649913700,   0.0000000000)
 A3 = (   0.0000000000,   0.0000000000,   6.9334882500)


Analysis of symmetry for initial positions (statically):
=====================================================================
 Subroutine PRICEL returns:
 Original cell was already a primitive cell.
 

 Routine SETGRP: Setting up the symmetry group for a 
 hexagonal supercell.


 Subroutine GETGRP returns: Found  1 space group operations
 (whereof  1 operations were pure point group operations)
 out of a pool of 24 trial point group operations.


The static configuration has the point symmetry C_1 .


Analysis of symmetry for dynamics (positions and initial velocities):
=====================================================================
 Subroutine PRICEL returns:
 Original cell was already a primitive cell.
 

 Routine SETGRP: Setting up the symmetry group for a 
 hexagonal supercell.


 Subroutine GETGRP returns: Found  1 space group operations
 (whereof  1 operations were pure point group operations)
 out of a pool of 24 trial point group operations.


The dynamic configuration has the point symmetry C_1 .


Analysis of structural, dynamic, and magnetic symmetry:
=====================================================================
 Subroutine PRICEL returns:
 Original cell was already a primitive cell.
 

 Routine SETGRP: Setting up the symmetry group for a 
 hexagonal supercell.


 Subroutine GETGRP returns: Found  1 space group operations
 (whereof  1 operations were pure point group operations)
 out of a pool of 24 trial point group operations.


The magnetic configuration has the point symmetry C_1 .


 Subroutine INISYM returns: Found  1 space group operations
 (whereof  1 operations are pure point group operations),
 and found     1 'primitive' translations

 
 
 KPOINTS: Automatic mesh                          

Automatic generation of k-mesh.
Space group operators:
 irot       det(A)        alpha          n_x          n_y          n_z        tau_x        tau_y        tau_z
    1     1.000000     0.000000     1.000000     0.000000     0.000000     0.000000     0.000000     0.000000
 
 Subroutine IBZKPT returns following result:
 ===========================================
 
 Found     36 irreducible k-points:
 
 Following reciprocal coordinates:
            Coordinates               Weight
  0.000000  0.000000  0.000000      1.000000
  0.250000  0.000000  0.000000      2.000000
  0.500000  0.000000  0.000000      1.000000
  0.000000  0.250000  0.000000      2.000000
  0.250000  0.250000  0.000000      2.000000
  0.500000  0.250000  0.000000      2.000000
 -0.250000  0.250000  0.000000      2.000000
  0.000000  0.500000  0.000000      1.000000
  0.250000  0.500000  0.000000      2.000000
  0.500000  0.500000  0.000000      1.000000
  0.000000  0.000000  0.250000      2.000000
  0.250000  0.000000  0.250000      2.000000
  0.500000  0.000000  0.250000      2.000000
 -0.250000 -0.000000  0.250000      2.000000
  0.000000  0.250000  0.250000      2.000000
  0.250000  0.250000  0.250000      2.000000
  0.500000  0.250000  0.250000      2.000000
 -0.250000  0.250000  0.250000      2.000000
  0.000000  0.500000  0.250000      2.000000
  0.250000  0.500000  0.250000      2.000000
  0.500000  0.500000  0.250000      2.000000
 -0.250000  0.500000  0.250000      2.000000
  0.000000 -0.250000  0.250000      2.000000
  0.250000 -0.250000  0.250000      2.000000
  0.500000 -0.250000  0.250000      2.000000
 -0.250000 -0.250000  0.250000      2.000000
  0.000000  0.000000  0.500000      1.000000
  0.250000  0.000000  0.500000      2.000000
  0.500000  0.000000  0.500000      1.000000
  0.000000  0.250000  0.500000      2.000000
  0.250000  0.250000  0.500000      2.000000
  0.500000  0.250000  0.500000      2.000000
 -0.250000  0.250000  0.500000      2.000000
  0.000000  0.500000  0.500000      1.000000
  0.250000  0.500000  0.500000      2.000000
  0.500000  0.500000  0.500000      1.000000
 
 Following cartesian coordinates:
            Coordinates               Weight
  0.000000  0.000000  0.000000      1.000000
  0.029397  0.016972  0.000000      2.000000
  0.058793  0.033944  0.000000      1.000000
  0.000000  0.033944  0.000000      2.000000
  0.029397  0.050917  0.000000      2.000000
  0.058793  0.067889  0.000000      2.000000
 -0.029397  0.016972  0.000000      2.000000
  0.000000  0.067889  0.000000      1.000000
  0.029397  0.084861  0.000000      2.000000
  0.058793  0.101833  0.000000      1.000000
  0.000000  0.000000  0.036057      2.000000
  0.029397  0.016972  0.036057      2.000000
  0.058793  0.033944  0.036057      2.000000
 -0.029397 -0.016972  0.036057      2.000000
  0.000000  0.033944  0.036057      2.000000
  0.029397  0.050917  0.036057      2.000000
  0.058793  0.067889  0.036057      2.000000
 -0.029397  0.016972  0.036057      2.000000
  0.000000  0.067889  0.036057      2.000000
  0.029397  0.084861  0.036057      2.000000
  0.058793  0.101833  0.036057      2.000000
 -0.029397  0.050917  0.036057      2.000000
  0.000000 -0.033944  0.036057      2.000000
  0.029397 -0.016972  0.036057      2.000000
  0.058793  0.000000  0.036057      2.000000
 -0.029397 -0.050917  0.036057      2.000000
  0.000000  0.000000  0.072114      1.000000
  0.029397  0.016972  0.072114      2.000000
  0.058793  0.033944  0.072114      1.000000
  0.000000  0.033944  0.072114      2.000000
  0.029397  0.050917  0.072114      2.000000
  0.058793  0.067889  0.072114      2.000000
 -0.029397  0.016972  0.072114      2.000000
  0.000000  0.067889  0.072114      1.000000
  0.029397  0.084861  0.072114      2.000000
  0.058793  0.101833  0.072114      1.000000
 


--------------------------------------------------------------------------------------------------------




 Dimension of arrays:
   k-points           NKPTS =     36   k-points in BZ     NKDIM =     36   number of bands    NBANDS=    304
   number of dos      NEDOS =    301   number of ions     NIONS =     54
   non local maximal  LDIM  =      6   non local SUM 2l+1 LMDIM =     18
   total plane-waves  NPLWV = 221184
   max r-space proj   IRMAX =   6887   max aug-charges    IRDMAX=  16707
   dimension x,y,z NGX =    64 NGY =   64 NGZ =   54
   dimension x,y,z NGXF=   128 NGYF=  128 NGZF=  108
   support grid    NGXF=   128 NGYF=  128 NGZF=  108
   ions per type =              27  27
   NGX,Y,Z   is equivalent  to a cutoff of  12.51, 12.51, 12.95 a.u.
   NGXF,Y,Z  is equivalent  to a cutoff of  25.02, 25.02, 25.90 a.u.

 SYSTEM =  unknown system                          
 POSCAR =  NiO_C2_m_scale_0_975_disp_0_05_round_2  

 Startparameter for this run:
   NWRITE =      1    write-flag & timer
   PREC   = accura    normal or accurate (medium, high low for compatibility)
   ISTART =      0    job   : 0-new  1-cont  2-samecut
   ICHARG =      2    charge: 1-file 2-atom 10-const
   ISPIN  =      2    spin polarized calculation?
   LNONCOLLINEAR =      F non collinear calculations
   LSORBIT =      F    spin-orbit coupling
   INIWAV =      1    electr: 0-lowe 1-rand  2-diag
   LASPH  =      F    aspherical Exc in radial PAW
   METAGGA=      F    non-selfconsistent MetaGGA calc.

 Electronic Relaxation 1
   ENCUT  =  500.0 eV  36.75 Ry    6.06 a.u.  15.51 15.51 12.64*2*pi/ulx,y,z
   ENINI  =  500.0     initial cutoff
   ENAUG  =  605.4 eV  augmentation charge cutoff
   NELM   =     80;   NELMIN=  2; NELMDL= -5     # of ELM steps 
   EDIFF  = 0.1E-04   stopping-criterion for ELM
   LREAL  =      T    real-space projection
   NLSPLINE    = F    spline interpolate recip. space projectors
   LCOMPAT=      F    compatible to vasp.4.4
   GGA_COMPAT  = T    GGA compatible to vasp.4.4-vasp.4.6
   LMAXPAW     = -100 max onsite density
   LMAXMIX     =    2 max onsite mixed and CHGCAR
   VOSKOWN=      1    Vosko Wilk Nusair interpolation
   ROPT   =   -0.00025  -0.00025
 Ionic relaxation
   EDIFFG = 0.1E-03   stopping-criterion for IOM
   NSW    =      0    number of steps for IOM
   NBLOCK =      1;   KBLOCK =      1    inner block; outer block 
   IBRION =     -1    ionic relax: 0-MD 1-quasi-New 2-CG
   NFREE  =      0    steps in history (QN), initial steepest desc. (CG)
   ISIF   =      2    stress and relaxation
   IWAVPR =     10    prediction:  0-non 1-charg 2-wave 3-comb
   ISYM   =      2    0-nonsym 1-usesym 2-fastsym
   LCORR  =      T    Harris-Foulkes like correction to forces

   POTIM  = 0.5000    time-step for ionic-motion
   TEIN   =    0.0    initial temperature
   TEBEG  =    0.0;   TEEND  =   0.0 temperature during run
   SMASS  =  -3.00    Nose mass-parameter (am)
   estimated Nose-frequenzy (Omega)   =  0.10E-29 period in steps =****** mass=  -0.165E-26a.u.
   SCALEE = 1.0000    scale energy and forces
   NPACO  =    256;   APACO  = 16.0  distance and # of slots for P.C.
   PSTRESS=    0.0 pullay stress

  Mass of Ions in am
   POMASS =  58.69 16.00
  Ionic Valenz
   ZVAL   =  10.00  6.00
  Atomic Wigner-Seitz radii
   RWIGS  =   1.15  0.73
  virtual crystal weights 
   VCA    =   1.00  1.00
   NELECT =     432.0000    total number of electrons
   NUPDOWN=      -1.0000    fix difference up-down

 DOS related values:
   EMIN   =  10.00;   EMAX   =-10.00  energy-range for DOS
   EFERMI =   0.00
   ISMEAR =     0;   SIGMA  =   0.05  broadening in eV -4-tet -1-fermi 0-gaus

 Electronic relaxation 2 (details)
   IALGO  =     38    algorithm
   LDIAG  =      T    sub-space diagonalisation (order eigenvalues)
   LSUBROT=      F    optimize rotation matrix (better conditioning)
   TURBO    =      0    0=normal 1=particle mesh
   IRESTART =      0    0=no restart 2=restart with 2 vectors
   NREBOOT  =      0    no. of reboots
   NMIN     =      0    reboot dimension
   EREF     =   0.00    reference energy to select bands
   IMIX   =      4    mixing-type and parameters
     AMIX     =   0.40;   BMIX     =  1.00
     AMIX_MAG =   1.60;   BMIX_MAG =  1.00
     AMIN     =   0.10
     WC   =   100.;   INIMIX=   1;  MIXPRE=   1;  MAXMIX= -45

 Intra band minimization:
   WEIMIN = 0.0000     energy-eigenvalue tresh-hold
   EBREAK =  0.82E-08  absolut break condition
   DEPER  =   0.30     relativ break condition  

   TIME   =   0.40     timestep for ELM

  volume/ion in A,a.u.               =       8.04        54.27
  Fermi-wavevector in a.u.,A,eV,Ry     =   1.634234  3.088254 36.337355  2.670720
  Thomas-Fermi vector in A             =   2.725907
 
 Write flags
   LWAVE        =      F    write WAVECAR
   LDOWNSAMPLE  =      F    k-point downsampling of WAVECAR
   LCHARG       =      T    write CHGCAR
   LVTOT        =      F    write LOCPOT, total local potential
   LVHAR        =      F    write LOCPOT, Hartree potential only
   LELF         =      F    write electronic localiz. function (ELF)
   LORBIT       =      0    0 simple, 1 ext, 2 COOP (PROOUT), +10 PAW based schemes


 Dipole corrections
   LMONO  =      F    monopole corrections only (constant potential shift)
   LDIPOL =      F    correct potential (dipole corrections)
   IDIPOL =      0    1-x, 2-y, 3-z, 4-all directions 
   EPSILON=  1.0000000 bulk dielectric constant

 Exchange correlation treatment:
   GGA     =    PS    GGA type
   LEXCH   =    14    internal setting for exchange type
   VOSKOWN=      1    Vosko Wilk Nusair interpolation
   LHFCALC =     F    Hartree Fock is set to
   LHFONE  =     F    Hartree Fock one center treatment
   AEXX    =    0.0000 exact exchange contribution

 Linear response parameters
   LEPSILON=     F    determine dielectric tensor
   LRPA    =     F    only Hartree local field effects (RPA)
   LNABLA  =     F    use nabla operator in PAW spheres
   LVEL    =     F    velocity operator in full k-point grid
   LINTERFAST=   F  fast interpolation
   KINTER  =     0    interpolate to denser k-point grid
   CSHIFT  =0.1000    complex shift for real part using Kramers Kronig
   OMEGAMAX=  -1.0    maximum frequency
   DEG_THRESHOLD= 0.2000000E-02 threshold for treating states as degnerate
   RTIME   =   -0.100 relaxation time in fs
  (WPLASMAI=    0.000 imaginary part of plasma frequency in eV, 0.658/RTIME)
   DFIELD  = 0.0000000 0.0000000 0.0000000 field for delta impulse in time
 
 Orbital magnetization related:
   ORBITALMAG=     F  switch on orbital magnetization
   LCHIMAG   =     F  perturbation theory with respect to B field
   DQ        =  0.001000  dq finite difference perturbation B field
   LLRAUG    =     F  two centre corrections for induced B field



--------------------------------------------------------------------------------------------------------


 Static calculation
 charge density and potential will be updated during run
 spin polarized calculation
 Variant of blocked Davidson
 Davidson routine will perform the subspace rotation
 perform sub-space diagonalisation
    after iterative eigenvector-optimisation
 modified Broyden-mixing scheme, WC =      100.0
 initial mixing is a Kerker type mixing with AMIX =  0.4000 and BMIX =      1.0000
 Hartree-type preconditioning will be used
 using additional bands           88
 real space projection scheme for non local part
 use partial core corrections
 calculate Harris-corrections to forces 
   (improved forces if not selfconsistent)
 use gradient corrections 
 use of overlap-Matrix (Vanderbilt PP)
 Gauss-broadening in eV      SIGMA  =   0.05


--------------------------------------------------------------------------------------------------------


  energy-cutoff  :      500.00
  volume of cell :      434.28
      direct lattice vectors                 reciprocal lattice vectors
     8.504359500  0.000000000  0.000000000     0.117586751  0.067888742  0.000000000
    -4.252179750  7.364991370  0.000000000     0.000000000  0.135777484  0.000000000
     0.000000000  0.000000000  6.933488250     0.000000000  0.000000000  0.144227547

  length of vectors
     8.504359500  8.504359500  6.933488250     0.135777484  0.135777484  0.144227547


 
 k-points in units of 2pi/SCALE and weight: Automatic mesh                          
   0.00000000  0.00000000  0.00000000       0.016
   0.02939669  0.01697219  0.00000000       0.031
   0.05879338  0.03394437  0.00000000       0.016
   0.00000000  0.03394437  0.00000000       0.031
   0.02939669  0.05091656  0.00000000       0.031
   0.05879338  0.06788874  0.00000000       0.031
  -0.02939669  0.01697219  0.00000000       0.031
   0.00000000  0.06788874  0.00000000       0.016
   0.02939669  0.08486093  0.00000000       0.031
   0.05879338  0.10183311  0.00000000       0.016
   0.00000000  0.00000000  0.03605689       0.031
   0.02939669  0.01697219  0.03605689       0.031
   0.05879338  0.03394437  0.03605689       0.031
  -0.02939669 -0.01697219  0.03605689       0.031
   0.00000000  0.03394437  0.03605689       0.031
   0.02939669  0.05091656  0.03605689       0.031
   0.05879338  0.06788874  0.03605689       0.031
  -0.02939669  0.01697219  0.03605689       0.031
   0.00000000  0.06788874  0.03605689       0.031
   0.02939669  0.08486093  0.03605689       0.031
   0.05879338  0.10183311  0.03605689       0.031
  -0.02939669  0.05091656  0.03605689       0.031
   0.00000000 -0.03394437  0.03605689       0.031
   0.02939669 -0.01697219  0.03605689       0.031
   0.05879338  0.00000000  0.03605689       0.031
  -0.02939669 -0.05091656  0.03605689       0.031
   0.00000000  0.00000000  0.07211377       0.016
   0.02939669  0.01697219  0.07211377       0.031
   0.05879338  0.03394437  0.07211377       0.016
   0.00000000  0.03394437  0.07211377       0.031
   0.02939669  0.05091656  0.07211377       0.031
   0.05879338  0.06788874  0.07211377       0.031
  -0.02939669  0.01697219  0.07211377       0.031
   0.00000000  0.06788874  0.07211377       0.016
   0.02939669  0.08486093  0.07211377       0.031
   0.05879338  0.10183311  0.07211377       0.016
 
 k-points in reciprocal lattice and weights: Automatic mesh                          
   0.00000000  0.00000000  0.00000000       0.016
   0.25000000  0.00000000  0.00000000       0.031
   0.50000000  0.00000000  0.00000000       0.016
   0.00000000  0.25000000  0.00000000       0.031
   0.25000000  0.25000000  0.00000000       0.031
   0.50000000  0.25000000  0.00000000       0.031
  -0.25000000  0.25000000  0.00000000       0.031
   0.00000000  0.50000000  0.00000000       0.016
   0.25000000  0.50000000  0.00000000       0.031
   0.50000000  0.50000000  0.00000000       0.016
   0.00000000  0.00000000  0.25000000       0.031
   0.25000000  0.00000000  0.25000000       0.031
   0.50000000  0.00000000  0.25000000       0.031
  -0.25000000 -0.00000000  0.25000000       0.031
   0.00000000  0.25000000  0.25000000       0.031
   0.25000000  0.25000000  0.25000000       0.031
   0.50000000  0.25000000  0.25000000       0.031
  -0.25000000  0.25000000  0.25000000       0.031
   0.00000000  0.50000000  0.25000000       0.031
   0.25000000  0.50000000  0.25000000       0.031
   0.50000000  0.50000000  0.25000000       0.031
  -0.25000000  0.50000000  0.25000000       0.031
   0.00000000 -0.25000000  0.25000000       0.031
   0.25000000 -0.25000000  0.25000000       0.031
   0.50000000 -0.25000000  0.25000000       0.031
  -0.25000000 -0.25000000  0.25000000       0.031
   0.00000000  0.00000000  0.50000000       0.016
   0.25000000  0.00000000  0.50000000       0.031
   0.50000000  0.00000000  0.50000000       0.016
   0.00000000  0.25000000  0.50000000       0.031
   0.25000000  0.25000000  0.50000000       0.031
   0.50000000  0.25000000  0.50000000       0.031
  -0.25000000  0.25000000  0.50000000       0.031
   0.00000000  0.50000000  0.50000000       0.016
   0.25000000  0.50000000  0.50000000       0.031
   0.50000000  0.50000000  0.50000000       0.016
 
 position of ions in fractional coordinates (direct lattice) 
   0.00046779  0.99537389  0.00174832
   0.22047525  0.11907197  0.33080947
   0.11358101  0.22710174  0.67794465
   0.99805362  0.35009008  0.00361919
   0.23090930  0.46018594  0.34567972
   0.09965908  0.55477909  0.67163632
   0.99171396  0.67891782  0.00025540
   0.22199086  0.79384065  0.34111351
   0.12289447  0.91384543  0.68132958
   0.34758728  0.99965095  0.00115229
   0.56576547  0.11430197  0.34084326
   0.46259750  0.23034595  0.68316232
   0.34442465  0.33041936  0.01060962
   0.57786027  0.45270355  0.34042482
   0.45042613  0.56570941  0.67410526
   0.33526330  0.67521539  0.99503224
   0.57544868  0.79957231  0.33488783
   0.45605292  0.90186290  0.67989533
   0.69952201  0.99574961  0.01085962
   0.91286521  0.12323158  0.35076166
   0.79819678  0.22356350  0.67382974
   0.67578224  0.33160476  0.99449389
   0.90775070  0.44504289  0.33481319
   0.80417903  0.58127352  0.68504592
   0.68784608  0.68407912  0.00480334
   0.92013348  0.79807032  0.33512726
   0.78712683  0.91211504  0.67861541
   0.01485512  0.99594146  0.51622758
   0.23023663  0.10570935  0.86437767
   0.11667773  0.23479179  0.16435333
   0.98195651  0.32681557  0.50815165
   0.22467819  0.45556971  0.85624771
   0.11083734  0.56808141  0.17147184
   0.99616892  0.68298393  0.52898711
   0.21122971  0.80135605  0.85637401
   0.11516242  0.90388698  0.18619092
   0.34774949  0.00377502  0.51442663
   0.56430930  0.12094616  0.84628710
   0.44954302  0.22720330  0.17463597
   0.33126628  0.34052371  0.51467941
   0.57715955  0.44904022  0.83961346
   0.45511457  0.56663913  0.17351245
   0.33840499  0.67449295  0.50420692
   0.56962711  0.79717967  0.85288880
   0.44877028  0.90419615  0.16530226
   0.68508358  0.99128306  0.50362909
   0.92559762  0.12388351  0.85496899
   0.79402068  0.22340812  0.17347720
   0.69051446  0.35500128  0.50516135
   0.91023531  0.46155716  0.86246221
   0.79152229  0.55202172  0.17627313
   0.67661650  0.67607591  0.51479853
   0.91748299  0.80067161  0.84662040
   0.80401794  0.91381720  0.15300165
 
 position of ions in cartesian coordinates  (Angst):
  -4.22853044  7.33092011  0.01212196
   1.36868537  0.87696403  2.29366357
   0.00025632  1.67260236  4.70052126
   6.99916084  2.57841042  0.02509361
   0.00694236  3.38926548  2.39676628
  -1.51148377  4.08594321  4.65678253
   5.54701143  5.00022389  0.00177081
  -1.48766306  5.84662954  2.36510651
  -2.84069628  6.73046371  4.72399064
  -1.29468834  7.36242062  0.00798939
   4.32544043  0.84183302  2.36323274
   2.95462306  1.69649593  4.73669792
   1.52410853  2.43353573  0.07356168
   2.98935461  3.33415774  2.36033149
   1.42508764  4.16644492  4.67390090
  -0.01993758  4.97295552  6.89904434
   1.49389726  5.88884316  2.32194083
   0.04355482  6.64221248  4.71404628
   1.71488032  7.33368728  0.07529505
   7.23933109  0.90759952  2.43200185
   5.83752018  1.64654325  4.67199058
   4.33705207  2.44226620  6.89531170
   5.82743592  3.27773704  2.32142332
   4.36734808  4.28107446  4.74975784
   2.94086296  5.03823682  0.03330390
   4.43160745  5.87778102  2.32360092
   2.81553243  6.71771940  4.70517197
  -4.10858883  7.33510026  3.57925786
   1.50851991  0.77854845  5.99315242
  -0.00610753  1.72923951  1.13954188
   6.96123263  2.40699385  3.52326349
  -0.02642020  3.35526698  5.93678344
  -1.47298368  4.18391468  1.18889799
   5.56760818  5.03017075  3.66772591
  -1.61113658  5.90198039  5.93765914
  -2.86410729  6.65711981  1.29095256
   2.94133462  0.02780299  3.56677099
   4.28480434  0.89076742  5.86772166
   2.85696618  1.67335034  1.21083645
   1.36923951  2.50795419  3.56852364
   2.99897257  3.30717735  5.82145006
   1.46100648  4.17329230  1.20304653
   0.00985243  4.96763476  3.49591276
   1.45456247  5.87122139  5.91349447
  -0.02830077  6.65939684  1.14612128
   1.61108330  7.30079118  3.49190638
   7.34483996  0.91240098  5.92791745
   5.80266583  1.64539888  1.20280213
   4.36285395  2.61458136  3.50253028
   5.77834430  3.39936450  5.97987160
   4.38409453  4.06563520  1.22218768
   2.87939367  4.97929324  3.56934956
   4.39800558  5.89693950  5.87003260
   2.95194261  6.73025579  1.06083514
 


--------------------------------------------------------------------------------------------------------


 k-point  1 :   0.0000 0.0000 0.0000  plane waves:   11029
 k-point  2 :   0.2500 0.0000 0.0000  plane waves:   11041
 k-point  3 :   0.5000 0.0000 0.0000  plane waves:   11030
 k-point  4 :   0.0000 0.2500 0.0000  plane waves:   11041
 k-point  5 :   0.2500 0.2500 0.0000  plane waves:   11024
 k-point  6 :   0.5000 0.2500 0.0000  plane waves:   11024
 k-point  7 :  -0.2500 0.2500 0.0000  plane waves:   11041
 k-point  8 :   0.0000 0.5000 0.0000  plane waves:   11030
 k-point  9 :   0.2500 0.5000 0.0000  plane waves:   11024
 k-point 10 :   0.5000 0.5000 0.0000  plane waves:   11030
 k-point 11 :   0.0000 0.0000 0.2500  plane waves:   11035
 k-point 12 :   0.2500 0.0000 0.2500  plane waves:   11030
 k-point 13 :   0.5000 0.0000 0.2500  plane waves:   11030
 k-point 14 :  -0.2500-0.0000 0.2500  plane waves:   11030
 k-point 15 :   0.0000 0.2500 0.2500  plane waves:   11030
 k-point 16 :   0.2500 0.2500 0.2500  plane waves:   11019
 k-point 17 :   0.5000 0.2500 0.2500  plane waves:   11019
 k-point 18 :  -0.2500 0.2500 0.2500  plane waves:   11030
 k-point 19 :   0.0000 0.5000 0.2500  plane waves:   11030
 k-point 20 :   0.2500 0.5000 0.2500  plane waves:   11019
 k-point 21 :   0.5000 0.5000 0.2500  plane waves:   11030
 k-point 22 :  -0.2500 0.5000 0.2500  plane waves:   11019
 k-point 23 :   0.0000-0.2500 0.2500  plane waves:   11030
 k-point 24 :   0.2500-0.2500 0.2500  plane waves:   11030
 k-point 25 :   0.5000-0.2500 0.2500  plane waves:   11019
 k-point 26 :  -0.2500-0.2500 0.2500  plane waves:   11019
 k-point 27 :   0.0000 0.0000 0.5000  plane waves:   11018
 k-point 28 :   0.2500 0.0000 0.5000  plane waves:   11052
 k-point 29 :   0.5000 0.0000 0.5000  plane waves:   10980
 k-point 30 :   0.0000 0.2500 0.5000  plane waves:   11052
 k-point 31 :   0.2500 0.2500 0.5000  plane waves:   10974
 k-point 32 :   0.5000 0.2500 0.5000  plane waves:   10974
 k-point 33 :  -0.2500 0.2500 0.5000  plane waves:   11052
 k-point 34 :   0.0000 0.5000 0.5000  plane waves:   10980
 k-point 35 :   0.2500 0.5000 0.5000  plane waves:   10974
 k-point 36 :   0.5000 0.5000 0.5000  plane waves:   10980

 maximum and minimum number of plane-waves per node :     11052    10974

 maximum number of plane-waves:     11052
 maximum index in each direction: 
   IXMAX=   15   IYMAX=   15   IZMAX=   12
   IXMIN=  -16   IYMIN=  -16   IZMIN=  -13

 The following grids will avoid any aliasing or wrap around errors in the Hartre
 e energy
  - symmetry arguments have not been applied
  - exchange correlation energies might require even more grid points
  - we recommend to set PREC=Normal or Accurate and rely on VASP defaults
 NGX is ok and might be reduce to    64
 NGY is ok and might be reduce to    64
 NGZ is ok and might be reduce to    54

 serial   3D FFT for wavefunctions
 parallel 3D FFT for charge:
    minimum data exchange during FFTs selected (reduces bandwidth)


 total amount of memory used by VASP MPI-rank0   360471. kBytes
=======================================================================

   base      :      30000. kBytes
   nonlr-proj:      39898. kBytes
   fftplans  :       4688. kBytes
   grid      :      26804. kBytes
   one-center:       1679. kBytes
   wavefun   :     257402. kBytes
 
     INWAV:  cpu time    0.0000: real time    0.0000
 Broyden mixing: mesh for mixing (old mesh)
   NGX = 31   NGY = 31   NGZ = 25
  (NGX  =128   NGY  =128   NGZ  =108)
  gives a total of  24025 points

 initial charge density was supplied:
 charge density of overlapping atoms calculated
 number of electron     432.0000000 magnetization      67.5000000
 keeping initial charge density in first step


--------------------------------------------------------------------------------------------------------


 Maximum index for non-local projection operator         6653
 Maximum index for augmentation-charges         1099 (set IRDMAX)


--------------------------------------------------------------------------------------------------------


 First call to EWALD:  gamma=   0.234
 Maximum number of real-space cells 3x 3x 3
 Maximum number of reciprocal cells 3x 3x 3

    FEWALD:  cpu time    0.0026: real time    0.0026


--------------------------------------- Iteration      1(   1)  ---------------------------------------


    POTLOK:  cpu time    0.1422: real time    0.1521
    SETDIJ:  cpu time    0.0231: real time    0.0232
     EDDAV:  cpu time   99.0134: real time   99.2621
    --------------------------------------------
      LOOP:  cpu time   99.1827: real time   99.4413

 eigenvalue-minimisations  : 43776
 total energy-change (2. order) : 0.5386603E+04  (-0.1716907E+05)
 number of electron     432.0000000 magnetization      67.5000000
 augmentation part      432.0000000 magnetization      67.5000000

 Free energy of the ion-electron system (eV)
  ---------------------------------------------------
  alpha Z        PSCENC =      1991.78600378
  Ewald energy   TEWEN  =    -36287.62394310
  -Hartree energ DENC   =     -8425.70740663
  -exchange      EXHF   =         0.00000000
  -V(xc)+E(xc)   XCENC  =      1665.65213427
  PAW double counting   =     35307.98069315   -37155.18892105
  entropy T*S    EENTRO =        -0.00811132
  eigenvalues    EBANDS =      7581.23774849
  atomic energy  EATOM  =     40708.47505058
  Solvation  Ediel_sol  =         0.00000000
  ---------------------------------------------------
  free energy    TOTEN  =      5386.60324817 eV

  energy without entropy =     5386.61135949  energy(sigma->0) =     5386.60730383


--------------------------------------------------------------------------------------------------------




--------------------------------------- Iteration      1(   2)  ---------------------------------------


     EDDAV:  cpu time   98.2016: real time   98.4340
    --------------------------------------------
      LOOP:  cpu time   98.2012: real time   98.4335

 eigenvalue-minimisations  : 43776
 total energy-change (2. order) :-0.4612996E+04  (-0.4160257E+04)
 number of electron     432.0000000 magnetization      67.5000000
 augmentation part      432.0000000 magnetization      67.5000000

 Free energy of the ion-electron system (eV)
  ---------------------------------------------------
  alpha Z        PSCENC =      1991.78600378
  Ewald energy   TEWEN  =    -36287.62394310
  -Hartree energ DENC   =     -8425.70740663
  -exchange      EXHF   =         0.00000000
  -V(xc)+E(xc)   XCENC  =      1665.65213427
  PAW double counting   =     35307.98069315   -37155.18892105
  entropy T*S    EENTRO =        -0.02245249
  eigenvalues    EBANDS =      2968.25639144
  atomic energy  EATOM  =     40708.47505058
  Solvation  Ediel_sol  =         0.00000000
  ---------------------------------------------------
  free energy    TOTEN  =       773.60754996 eV

  energy without entropy =      773.63000245  energy(sigma->0) =      773.61877620


--------------------------------------------------------------------------------------------------------




--------------------------------------- Iteration      1(   3)  ---------------------------------------


     EDDAV:  cpu time   93.7531: real time   93.9966
    --------------------------------------------
      LOOP:  cpu time   93.7538: real time   94.0295

 eigenvalue-minimisations  : 44816
 total energy-change (2. order) :-0.1047511E+04  (-0.9322582E+03)
 number of electron     432.0000000 magnetization      67.5000000
 augmentation part      432.0000000 magnetization      67.5000000

 Free energy of the ion-electron system (eV)
  ---------------------------------------------------
  alpha Z        PSCENC =      1991.78600378
  Ewald energy   TEWEN  =    -36287.62394310
  -Hartree energ DENC   =     -8425.70740663
  -exchange      EXHF   =         0.00000000
  -V(xc)+E(xc)   XCENC  =      1665.65213427
  PAW double counting   =     35307.98069315   -37155.18892105
  entropy T*S    EENTRO =        -0.10250860
  eigenvalues    EBANDS =      1920.82500536
  atomic energy  EATOM  =     40708.47505058
  Solvation  Ediel_sol  =         0.00000000
  ---------------------------------------------------
  free energy    TOTEN  =      -273.90389224 eV

  energy without entropy =     -273.80138363  energy(sigma->0) =     -273.85263793


--------------------------------------------------------------------------------------------------------




--------------------------------------- Iteration      1(   4)  ---------------------------------------


     EDDAV:  cpu time  111.2918: real time  111.6028
    --------------------------------------------
      LOOP:  cpu time  111.2918: real time  111.5706

 eigenvalue-minimisations  : 51376
 total energy-change (2. order) :-0.1087989E+03  (-0.1037908E+03)
 number of electron     432.0000000 magnetization      67.5000000
 augmentation part      432.0000000 magnetization      67.5000000

 Free energy of the ion-electron system (eV)
  ---------------------------------------------------
  alpha Z        PSCENC =      1991.78600378
  Ewald energy   TEWEN  =    -36287.62394310
  -Hartree energ DENC   =     -8425.70740663
  -exchange      EXHF   =         0.00000000
  -V(xc)+E(xc)   XCENC  =      1665.65213427
  PAW double counting   =     35307.98069315   -37155.18892105
  entropy T*S    EENTRO =        -0.09258137
  eigenvalues    EBANDS =      1812.01617820
  atomic energy  EATOM  =     40708.47505058
  Solvation  Ediel_sol  =         0.00000000
  ---------------------------------------------------
  free energy    TOTEN  =      -382.70279217 eV

  energy without entropy =     -382.61021079  energy(sigma->0) =     -382.65650148


--------------------------------------------------------------------------------------------------------




--------------------------------------- Iteration      1(   5)  ---------------------------------------


     EDDAV:  cpu time  110.7090: real time  110.9709
    CHARGE:  cpu time    3.3284: real time    3.3644
    MIXING:  cpu time    0.0060: real time    0.0162
    --------------------------------------------
      LOOP:  cpu time  114.0393: real time  114.3474

 eigenvalue-minimisations  : 50736
 total energy-change (2. order) :-0.2579212E+01  (-0.2558758E+01)
 number of electron     431.9999991 magnetization      58.6095628
 augmentation part      175.4508549 magnetization      46.1591747

 Broyden mixing:
  rms(total) = 0.96155E+01    rms(broyden)= 0.96140E+01
  rms(prec ) = 0.11820E+02
  weight for this iteration     100.00

 Free energy of the ion-electron system (eV)
  ---------------------------------------------------
  alpha Z        PSCENC =      1991.78600378
  Ewald energy   TEWEN  =    -36287.62394310
  -Hartree energ DENC   =     -8425.70740663
  -exchange      EXHF   =         0.00000000
  -V(xc)+E(xc)   XCENC  =      1665.65213427
  PAW double counting   =     35307.98069315   -37155.18892105
  entropy T*S    EENTRO =        -0.09292989
  eigenvalues    EBANDS =      1809.43731442
  atomic energy  EATOM  =     40708.47505058
  Solvation  Ediel_sol  =         0.00000000
  ---------------------------------------------------
  free energy    TOTEN  =      -385.28200447 eV

  energy without entropy =     -385.18907458  energy(sigma->0) =     -385.23553952


--------------------------------------------------------------------------------------------------------




--------------------------------------- Iteration      1(   6)  ---------------------------------------


    POTLOK:  cpu time    0.1142: real time    0.1145
    SETDIJ:  cpu time    0.0235: real time    0.0235
     EDDAV:  cpu time  132.0829: real time  132.3954
    CHARGE:  cpu time    3.3010: real time    3.3088
    MIXING:  cpu time    0.0056: real time    0.2694
    --------------------------------------------
      LOOP:  cpu time  135.5271: real time  136.1116

 eigenvalue-minimisations  : 62848
 total energy-change (2. order) : 0.2598260E+02  (-0.3336082E+02)
 number of electron     431.9999999 magnetization      48.5808202
 augmentation part      194.2551185 magnetization      41.9408470

 Broyden mixing:
  rms(total) = 0.11271E+02    rms(broyden)= 0.11270E+02
  rms(prec ) = 0.13805E+02
  weight for this iteration     100.00

 eigenvalues of (default mixing * dielectric matrix)
  average eigenvalue GAMMA=   0.3155
  0.3155

 Free energy of the ion-electron system (eV)
  ---------------------------------------------------
  alpha Z        PSCENC =      1991.78600378
  Ewald energy   TEWEN  =    -36287.62394310
  -Hartree energ DENC   =     -8138.30939673
  -exchange      EXHF   =         0.00000000
  -V(xc)+E(xc)   XCENC  =      1662.27938393
  PAW double counting   =     38991.15691702   -40711.70120293
  entropy T*S    EENTRO =        -0.04096437
  eigenvalues    EBANDS =      1424.67874363
  atomic energy  EATOM  =     40708.47505058
  Solvation  Ediel_sol  =         0.00000000
  ---------------------------------------------------
  free energy    TOTEN  =      -359.29940819 eV

  energy without entropy =     -359.25844381  energy(sigma->0) =     -359.27892600


--------------------------------------------------------------------------------------------------------




--------------------------------------- Iteration      1(   7)  ---------------------------------------


    POTLOK:  cpu time    0.1233: real time    0.1235
    SETDIJ:  cpu time    0.0235: real time    0.0236
     EDDAV:  cpu time  113.3777: real time  113.6458
    CHARGE:  cpu time    3.2579: real time    3.2657
    MIXING:  cpu time    0.0033: real time    0.0180
    --------------------------------------------
      LOOP:  cpu time  116.7857: real time  117.0766

 eigenvalue-minimisations  : 51856
 total energy-change (2. order) :-0.6155509E+01  (-0.2232837E+02)
 number of electron     431.9999997 magnetization      43.2914486
 augmentation part      186.2217759 magnetization      36.2165538

 Broyden mixing:
  rms(total) = 0.11809E+02    rms(broyden)= 0.11809E+02
  rms(prec ) = 0.17176E+02
  weight for this iteration     100.00

 eigenvalues of (default mixing * dielectric matrix)
  average eigenvalue GAMMA=   0.3252
  0.3252  0.3252

 Free energy of the ion-electron system (eV)
  ---------------------------------------------------
  alpha Z        PSCENC =      1991.78600378
  Ewald energy   TEWEN  =    -36287.62394310
  -Hartree energ DENC   =     -8212.21410724
  -exchange      EXHF   =         0.00000000
  -V(xc)+E(xc)   XCENC  =      1654.47971075
  PAW double counting   =     40532.11899804   -42353.09180559
  entropy T*S    EENTRO =        -0.06245147
  eigenvalues    EBANDS =      1600.67762688
  atomic energy  EATOM  =     40708.47505058
  Solvation  Ediel_sol  =         0.00000000
  ---------------------------------------------------
  free energy    TOTEN  =      -365.45491736 eV

  energy without entropy =     -365.39246589  energy(sigma->0) =     -365.42369162


--------------------------------------------------------------------------------------------------------




--------------------------------------- Iteration      1(   8)  ---------------------------------------


    POTLOK:  cpu time    0.1152: real time    0.1155
    SETDIJ:  cpu time    0.0235: real time    0.0236
     EDDAV:  cpu time  119.5996: real time  119.8825
    CHARGE:  cpu time    3.2129: real time    3.2206
    MIXING:  cpu time    0.0030: real time    0.0030
    --------------------------------------------
      LOOP:  cpu time  122.9542: real time  123.2450

 eigenvalue-minimisations  : 55392
 total energy-change (2. order) : 0.1623867E+02  (-0.1631681E+02)
 number of electron     431.9999998 magnetization      37.3209788
 augmentation part      185.1658662 magnetization      31.3065779

 Broyden mixing:
  rms(total) = 0.75537E+01    rms(broyden)= 0.75527E+01
  rms(prec ) = 0.10866E+02
  weight for this iteration     100.00

 eigenvalues of (default mixing * dielectric matrix)
  average eigenvalue GAMMA=   0.4412
  0.5919  0.5919  0.1398

 Free energy of the ion-electron system (eV)
  ---------------------------------------------------
  alpha Z        PSCENC =      1991.78600378
  Ewald energy   TEWEN  =    -36287.62394310
  -Hartree energ DENC   =     -8245.74056426
  -exchange      EXHF   =         0.00000000
  -V(xc)+E(xc)   XCENC  =      1652.32176387
  PAW double counting   =     41503.93131455   -43365.97631721
  entropy T*S    EENTRO =        -0.06607001
  eigenvalues    EBANDS =      1693.67651177
  atomic energy  EATOM  =     40708.47505058
  Solvation  Ediel_sol  =         0.00000000
  ---------------------------------------------------
  free energy    TOTEN  =      -349.21625003 eV

  energy without entropy =     -349.15018003  energy(sigma->0) =     -349.18321503


--------------------------------------------------------------------------------------------------------




--------------------------------------- Iteration      1(   9)  ---------------------------------------


    POTLOK:  cpu time    0.1138: real time    0.1140
    SETDIJ:  cpu time    0.0235: real time    0.0236
     EDDAV:  cpu time  116.5907: real time  116.8665
    CHARGE:  cpu time    3.2629: real time    3.2707
    MIXING:  cpu time    0.0030: real time    0.0030
    --------------------------------------------
      LOOP:  cpu time  119.9940: real time  120.2778

 eigenvalue-minimisations  : 53728
 total energy-change (2. order) :-0.4705636E+01  (-0.8572960E+01)
 number of electron     431.9999993 magnetization      27.1190757
 augmentation part      184.7974560 magnetization      21.8093161

 Broyden mixing:
  rms(total) = 0.93612E+01    rms(broyden)= 0.93604E+01
  rms(prec ) = 0.15610E+02
  weight for this iteration     100.00

 eigenvalues of (default mixing * dielectric matrix)
  average eigenvalue GAMMA=   0.4895
  0.8750  0.7884  0.1695  0.1251

 Free energy of the ion-electron system (eV)
  ---------------------------------------------------
  alpha Z        PSCENC =      1991.78600378
  Ewald energy   TEWEN  =    -36287.62394310
  -Hartree energ DENC   =     -8234.95245488
  -exchange      EXHF   =         0.00000000
  -V(xc)+E(xc)   XCENC  =      1650.33327043
  PAW double counting   =     42493.99393488   -44380.35046942
  entropy T*S    EENTRO =        -0.05357588
  eigenvalues    EBANDS =      1704.47029728
  atomic energy  EATOM  =     40708.47505058
  Solvation  Ediel_sol  =         0.00000000
  ---------------------------------------------------
  free energy    TOTEN  =      -353.92188633 eV

  energy without entropy =     -353.86831045  energy(sigma->0) =     -353.89509839


--------------------------------------------------------------------------------------------------------




--------------------------------------- Iteration      1(  10)  ---------------------------------------


    POTLOK:  cpu time    0.1152: real time    0.1154
    SETDIJ:  cpu time    0.0293: real time    0.0294
     EDDAV:  cpu time  114.0534: real time  114.3446
    CHARGE:  cpu time    2.9057: real time    2.9306
    MIXING:  cpu time    0.0040: real time    0.0176
    --------------------------------------------
      LOOP:  cpu time  117.1075: real time  117.4376

 eigenvalue-minimisations  : 57296
 total energy-change (2. order) :-0.6949772E+01  (-0.1218010E+02)
 number of electron     431.9999999 magnetization      19.6415348
 augmentation part      184.6819961 magnetization      15.5239477

 Broyden mixing:
  rms(total) = 0.93937E+01    rms(broyden)= 0.93930E+01
  rms(prec ) = 0.15768E+02
  weight for this iteration     100.00

 eigenvalues of (default mixing * dielectric matrix)
  average eigenvalue GAMMA=   0.5344
  1.4813  0.6669  0.2908  0.1165  0.1165

 Free energy of the ion-electron system (eV)
  ---------------------------------------------------
  alpha Z        PSCENC =      1991.78600378
  Ewald energy   TEWEN  =    -36287.62394310
  -Hartree energ DENC   =     -8199.79736211
  -exchange      EXHF   =         0.00000000
  -V(xc)+E(xc)   XCENC  =      1647.79945729
  PAW double counting   =     44147.64910662   -46062.30726658
  entropy T*S    EENTRO =        -0.06780035
  eigenvalues    EBANDS =      1693.21509510
  atomic energy  EATOM  =     40708.47505058
  Solvation  Ediel_sol  =         0.00000000
  ---------------------------------------------------
  free energy    TOTEN  =      -360.87165878 eV

  energy without entropy =     -360.80385843  energy(sigma->0) =     -360.83775861


--------------------------------------------------------------------------------------------------------




--------------------------------------- Iteration      1(  11)  ---------------------------------------


    POTLOK:  cpu time    0.1065: real time    0.1068
    SETDIJ:  cpu time    0.0211: real time    0.0211
     EDDAV:  cpu time  118.2219: real time  118.5017
    CHARGE:  cpu time    3.1881: real time    3.1957
    MIXING:  cpu time    0.0033: real time    0.0033
    --------------------------------------------
      LOOP:  cpu time  121.5410: real time  121.8286

 eigenvalue-minimisations  : 55232
 total energy-change (2. order) :-0.1344169E+02  (-0.6260815E+01)
 number of electron     431.9999994 magnetization      15.4467600
 augmentation part      184.4041848 magnetization      12.2154362

 Broyden mixing:
  rms(total) = 0.98368E+01    rms(broyden)= 0.98359E+01
  rms(prec ) = 0.17135E+02
  weight for this iteration     100.00

 eigenvalues of (default mixing * dielectric matrix)
  average eigenvalue GAMMA=   0.5207
  1.7564  0.6489  0.3819  0.1227  0.1227  0.0919

 Free energy of the ion-electron system (eV)
  ---------------------------------------------------
  alpha Z        PSCENC =      1991.78600378
  Ewald energy   TEWEN  =    -36287.62394310
  -Hartree energ DENC   =     -8177.11166950
  -exchange      EXHF   =         0.00000000
  -V(xc)+E(xc)   XCENC  =      1646.03144177
  PAW double counting   =     45295.87347516   -47229.16255857
  entropy T*S    EENTRO =        -0.05645700
  eigenvalues    EBANDS =      1677.47530705
  atomic energy  EATOM  =     40708.47505058
  Solvation  Ediel_sol  =         0.00000000
  ---------------------------------------------------
  free energy    TOTEN  =      -374.31334983 eV

  energy without entropy =     -374.25689282  energy(sigma->0) =     -374.28512133


--------------------------------------------------------------------------------------------------------




--------------------------------------- Iteration      1(  12)  ---------------------------------------


    POTLOK:  cpu time    0.1137: real time    0.1139
    SETDIJ:  cpu time    0.0234: real time    0.0235
     EDDAV:  cpu time  111.3838: real time  111.6474
    CHARGE:  cpu time    3.2270: real time    3.2347
    MIXING:  cpu time    0.0032: real time    0.0032
    --------------------------------------------
      LOOP:  cpu time  114.7511: real time  115.0227

 eigenvalue-minimisations  : 50832
 total energy-change (2. order) : 0.2173019E+02  (-0.2729782E+01)
 number of electron     431.9999998 magnetization      13.1935162
 augmentation part      185.1505110 magnetization       9.9008565

 Broyden mixing:
  rms(total) = 0.73247E+01    rms(broyden)= 0.73239E+01
  rms(prec ) = 0.12144E+02
  weight for this iteration     100.00

 eigenvalues of (default mixing * dielectric matrix)
  average eigenvalue GAMMA=   0.4880
  1.8818  0.6291  0.4311  0.1229  0.1229  0.1341  0.0944

 Free energy of the ion-electron system (eV)
  ---------------------------------------------------
  alpha Z        PSCENC =      1991.78600378
  Ewald energy   TEWEN  =    -36287.62394310
  -Hartree energ DENC   =     -8169.28586027
  -exchange      EXHF   =         0.00000000
  -V(xc)+E(xc)   XCENC  =      1645.23239400
  PAW double counting   =     45905.49658929   -47849.82087202
  entropy T*S    EENTRO =        -0.07699843
  eigenvalues    EBANDS =      1703.23447791
  atomic energy  EATOM  =     40708.47505058
  Solvation  Ediel_sol  =         0.00000000
  ---------------------------------------------------
  free energy    TOTEN  =      -352.58315825 eV

  energy without entropy =     -352.50615982  energy(sigma->0) =     -352.54465904


--------------------------------------------------------------------------------------------------------




--------------------------------------- Iteration      1(  13)  ---------------------------------------


    POTLOK:  cpu time    0.1135: real time    0.1138
    SETDIJ:  cpu time    0.0235: real time    0.0235
     EDDAV:  cpu time  114.1161: real time  114.3881
    CHARGE:  cpu time    3.3126: real time    3.3205
    MIXING:  cpu time    0.0034: real time    0.0034
    --------------------------------------------
      LOOP:  cpu time  117.5691: real time  117.8492

 eigenvalue-minimisations  : 52320
 total energy-change (2. order) : 0.1340400E+02  (-0.4162869E+01)
 number of electron     431.9999998 magnetization      12.5526224
 augmentation part      185.7688090 magnetization      10.2047152

 Broyden mixing:
  rms(total) = 0.49177E+01    rms(broyden)= 0.49168E+01
  rms(prec ) = 0.83042E+01
  weight for this iteration     100.00

 eigenvalues of (default mixing * dielectric matrix)
  average eigenvalue GAMMA=   0.4664
  1.9134  0.6642  0.3906  0.3116  0.1314  0.1314  0.1078  0.0810

 Free energy of the ion-electron system (eV)
  ---------------------------------------------------
  alpha Z        PSCENC =      1991.78600378
  Ewald energy   TEWEN  =    -36287.62394310
  -Hartree energ DENC   =     -8166.37416972
  -exchange      EXHF   =         0.00000000
  -V(xc)+E(xc)   XCENC  =      1644.85565282
  PAW double counting   =     46238.16883583   -48188.60946919
  entropy T*S    EENTRO =        -0.06955239
  eigenvalues    EBANDS =      1720.21243478
  atomic energy  EATOM  =     40708.47505058
  Solvation  Ediel_sol  =         0.00000000
  ---------------------------------------------------
  free energy    TOTEN  =      -339.17915662 eV

  energy without entropy =     -339.10960422  energy(sigma->0) =     -339.14438042


--------------------------------------------------------------------------------------------------------




--------------------------------------- Iteration      1(  14)  ---------------------------------------


    POTLOK:  cpu time    0.1054: real time    0.1057
    SETDIJ:  cpu time    0.0234: real time    0.0235
     EDDAV:  cpu time  119.8850: real time  120.1686
    CHARGE:  cpu time    3.3025: real time    3.3103
    MIXING:  cpu time    0.0035: real time    0.0035
    --------------------------------------------
      LOOP:  cpu time  123.3199: real time  123.6116

 eigenvalue-minimisations  : 55792
 total energy-change (2. order) : 0.4525768E+01  (-0.3223663E+01)
 number of electron     431.9999996 magnetization      12.0259326
 augmentation part      185.7001850 magnetization      10.0949567

 Broyden mixing:
  rms(total) = 0.54789E+01    rms(broyden)= 0.54783E+01
  rms(prec ) = 0.95489E+01
  weight for this iteration     100.00

 eigenvalues of (default mixing * dielectric matrix)
  average eigenvalue GAMMA=   0.4504
  1.8865  0.7384  0.4471  0.4471  0.1295  0.1194  0.1194  0.0832  0.0832

 Free energy of the ion-electron system (eV)
  ---------------------------------------------------
  alpha Z        PSCENC =      1991.78600378
  Ewald energy   TEWEN  =    -36287.62394310
  -Hartree energ DENC   =     -8166.82648660
  -exchange      EXHF   =         0.00000000
  -V(xc)+E(xc)   XCENC  =      1644.55811006
  PAW double counting   =     46282.91671661   -48234.60298903
  entropy T*S    EENTRO =        -0.05511407
  eigenvalues    EBANDS =      1726.71926303
  atomic energy  EATOM  =     40708.47505058
  Solvation  Ediel_sol  =         0.00000000
  ---------------------------------------------------
  free energy    TOTEN  =      -334.65338873 eV

  energy without entropy =     -334.59827466  energy(sigma->0) =     -334.62583170


--------------------------------------------------------------------------------------------------------




--------------------------------------- Iteration      1(  15)  ---------------------------------------


    POTLOK:  cpu time    0.1136: real time    0.1138
    SETDIJ:  cpu time    0.0235: real time    0.0236
     EDDAV:  cpu time  121.3768: real time  121.6639
    CHARGE:  cpu time    3.2867: real time    3.2945
    MIXING:  cpu time    0.0036: real time    0.0036
    --------------------------------------------
      LOOP:  cpu time  124.8043: real time  125.0995

 eigenvalue-minimisations  : 56736
 total energy-change (2. order) : 0.8895872E+00  (-0.7542727E+01)
 number of electron     431.9999997 magnetization      12.0272963
 augmentation part      185.6096500 magnetization       9.7918353

 Broyden mixing:
  rms(total) = 0.35446E+01    rms(broyden)= 0.35439E+01
  rms(prec ) = 0.60434E+01
  weight for this iteration     100.00

 eigenvalues of (default mixing * dielectric matrix)
  average eigenvalue GAMMA=   0.4271
  1.8190  0.8216  0.4743  0.4743  0.1660  0.1277  0.1277  0.1069  0.0769  0.0769

 Free energy of the ion-electron system (eV)
  ---------------------------------------------------
  alpha Z        PSCENC =      1991.78600378
  Ewald energy   TEWEN  =    -36287.62394310
  -Hartree energ DENC   =     -8167.97314330
  -exchange      EXHF   =         0.00000000
  -V(xc)+E(xc)   XCENC  =      1644.19222667
  PAW double counting   =     46238.39497866   -48187.58941916
  entropy T*S    EENTRO =        -0.06051750
  eigenvalues    EBANDS =      1726.63496180
  atomic energy  EATOM  =     40708.47505058
  Solvation  Ediel_sol  =         0.00000000
  ---------------------------------------------------
  free energy    TOTEN  =      -333.76380157 eV

  energy without entropy =     -333.70328407  energy(sigma->0) =     -333.73354282


--------------------------------------------------------------------------------------------------------




--------------------------------------- Iteration      1(  16)  ---------------------------------------


    POTLOK:  cpu time    0.1136: real time    0.1139
    SETDIJ:  cpu time    0.0235: real time    0.0236
     EDDAV:  cpu time  120.8738: real time  121.1598
    CHARGE:  cpu time    2.8222: real time    2.8289
    MIXING:  cpu time    0.0062: real time    0.0458
    --------------------------------------------
      LOOP:  cpu time  123.8395: real time  124.1720

 eigenvalue-minimisations  : 56912
 total energy-change (2. order) : 0.4648004E+01  (-0.1079034E+01)
 number of electron     431.9999998 magnetization      12.0048636
 augmentation part      185.6187363 magnetization       9.6324394

 Broyden mixing:
  rms(total) = 0.20038E+01    rms(broyden)= 0.20029E+01
  rms(prec ) = 0.31756E+01
  weight for this iteration     100.00

 eigenvalues of (default mixing * dielectric matrix)
  average eigenvalue GAMMA=   0.4076
  1.7205  0.8622  0.4927  0.4927  0.2821  0.1319  0.1319  0.1059  0.1059  0.0790
  0.0790

 Free energy of the ion-electron system (eV)
  ---------------------------------------------------
  alpha Z        PSCENC =      1991.78600378
  Ewald energy   TEWEN  =    -36287.62394310
  -Hartree energ DENC   =     -8171.07203943
  -exchange      EXHF   =         0.00000000
  -V(xc)+E(xc)   XCENC  =      1644.02904989
  PAW double counting   =     46131.69666349   -48078.78373688
  entropy T*S    EENTRO =        -0.05465802
  eigenvalues    EBANDS =      1732.43181239
  atomic energy  EATOM  =     40708.47505058
  Solvation  Ediel_sol  =         0.00000000
  ---------------------------------------------------
  free energy    TOTEN  =      -329.11579730 eV

  energy without entropy =     -329.06113927  energy(sigma->0) =     -329.08846829


--------------------------------------------------------------------------------------------------------




--------------------------------------- Iteration      1(  17)  ---------------------------------------


    POTLOK:  cpu time    0.1155: real time    0.1157
    SETDIJ:  cpu time    0.0199: real time    0.0199
     EDDAV:  cpu time  116.6353: real time  116.9208
    CHARGE:  cpu time    3.2816: real time    3.3197
    MIXING:  cpu time    0.0048: real time    0.0153
    --------------------------------------------
      LOOP:  cpu time  120.0571: real time  120.3915

 eigenvalue-minimisations  : 57472
 total energy-change (2. order) : 0.7273177E+00  (-0.4330781E+00)
 number of electron     431.9999997 magnetization      11.9839635
 augmentation part      185.5287306 magnetization       9.4372366

 Broyden mixing:
  rms(total) = 0.16022E+01    rms(broyden)= 0.16018E+01
  rms(prec ) = 0.25826E+01
  weight for this iteration     100.00

 eigenvalues of (default mixing * dielectric matrix)
  average eigenvalue GAMMA=   0.3949
  1.6220  0.8786  0.5439  0.5439  0.3694  0.1563  0.1243  0.1243  0.1297  0.0894
  0.0784  0.0784

 Free energy of the ion-electron system (eV)
  ---------------------------------------------------
  alpha Z        PSCENC =      1991.78600378
  Ewald energy   TEWEN  =    -36287.62394310
  -Hartree energ DENC   =     -8172.18171202
  -exchange      EXHF   =         0.00000000
  -V(xc)+E(xc)   XCENC  =      1643.98348294
  PAW double counting   =     46087.96857908   -48032.39115777
  entropy T*S    EENTRO =        -0.05663448
  eigenvalues    EBANDS =      1731.65185136
  atomic energy  EATOM  =     40708.47505058
  Solvation  Ediel_sol  =         0.00000000
  ---------------------------------------------------
  free energy    TOTEN  =      -328.38847961 eV

  energy without entropy =     -328.33184514  energy(sigma->0) =     -328.36016238


--------------------------------------------------------------------------------------------------------




--------------------------------------- Iteration      1(  18)  ---------------------------------------


    POTLOK:  cpu time    0.1053: real time    0.1055
    SETDIJ:  cpu time    0.0233: real time    0.0234
     EDDAV:  cpu time  121.5300: real time  121.8175
    CHARGE:  cpu time    3.2807: real time    3.2885
    MIXING:  cpu time    0.0041: real time    0.0041
    --------------------------------------------
      LOOP:  cpu time  124.9435: real time  125.2390

 eigenvalue-minimisations  : 56736
 total energy-change (2. order) : 0.4685935E+00  (-0.2337681E+00)
 number of electron     431.9999997 magnetization      11.8851053
 augmentation part      185.4342737 magnetization       9.3160354

 Broyden mixing:
  rms(total) = 0.11782E+01    rms(broyden)= 0.11779E+01
  rms(prec ) = 0.17955E+01
  weight for this iteration     100.00

 eigenvalues of (default mixing * dielectric matrix)
  average eigenvalue GAMMA=   0.4081
  1.6069  0.8083  0.6660  0.6660  0.4059  0.4059  0.1413  0.1257  0.1257  0.1121
  0.0787  0.0787  0.0834

 Free energy of the ion-electron system (eV)
  ---------------------------------------------------
  alpha Z        PSCENC =      1991.78600378
  Ewald energy   TEWEN  =    -36287.62394310
  -Hartree energ DENC   =     -8173.75191448
  -exchange      EXHF   =         0.00000000
  -V(xc)+E(xc)   XCENC  =      1644.00358903
  PAW double counting   =     46050.12212688   -47990.68690732
  entropy T*S    EENTRO =        -0.05599261
  eigenvalues    EBANDS =      1729.81210110
  atomic energy  EATOM  =     40708.47505058
  Solvation  Ediel_sol  =         0.00000000
  ---------------------------------------------------
  free energy    TOTEN  =      -327.91988613 eV

  energy without entropy =     -327.86389352  energy(sigma->0) =     -327.89188983


--------------------------------------------------------------------------------------------------------




--------------------------------------- Iteration      1(  19)  ---------------------------------------


    POTLOK:  cpu time    0.1135: real time    0.1138
    SETDIJ:  cpu time    0.0234: real time    0.0235
     EDDAV:  cpu time  121.4442: real time  121.7314
    CHARGE:  cpu time    3.2812: real time    3.2889
    MIXING:  cpu time    0.0044: real time    0.0044
    --------------------------------------------
      LOOP:  cpu time  124.8667: real time  125.1620

 eigenvalue-minimisations  : 56528
 total energy-change (2. order) :-0.8372944E-01  (-0.1760056E+00)
 number of electron     431.9999996 magnetization      11.5491641
 augmentation part      185.3974781 magnetization       9.0358409

 Broyden mixing:
  rms(total) = 0.12426E+01    rms(broyden)= 0.12424E+01
  rms(prec ) = 0.19282E+01
  weight for this iteration     100.00

 eigenvalues of (default mixing * dielectric matrix)
  average eigenvalue GAMMA=   0.4160
  1.6068  0.8464  0.8464  0.7767  0.4460  0.4460  0.1548  0.1272  0.1272  0.1045
  0.1045  0.0785  0.0785  0.0800

 Free energy of the ion-electron system (eV)
  ---------------------------------------------------
  alpha Z        PSCENC =      1991.78600378
  Ewald energy   TEWEN  =    -36287.62394310
  -Hartree energ DENC   =     -8174.45216200
  -exchange      EXHF   =         0.00000000
  -V(xc)+E(xc)   XCENC  =      1644.01480482
  PAW double counting   =     46054.43249767   -47992.71749185
  entropy T*S    EENTRO =        -0.05516830
  eigenvalues    EBANDS =      1728.13679283
  atomic energy  EATOM  =     40708.47505058
  Solvation  Ediel_sol  =         0.00000000
  ---------------------------------------------------
  free energy    TOTEN  =      -328.00361557 eV

  energy without entropy =     -327.94844727  energy(sigma->0) =     -327.97603142


--------------------------------------------------------------------------------------------------------




--------------------------------------- Iteration      1(  20)  ---------------------------------------


    POTLOK:  cpu time    0.1137: real time    0.1139
    SETDIJ:  cpu time    0.0234: real time    0.0235
     EDDAV:  cpu time  120.1605: real time  120.4448
    CHARGE:  cpu time    3.2837: real time    3.2915
    MIXING:  cpu time    0.0044: real time    0.0045
    --------------------------------------------
      LOOP:  cpu time  123.5858: real time  123.8782

 eigenvalue-minimisations  : 55824
 total energy-change (2. order) : 0.1331354E+00  (-0.1380296E+00)
 number of electron     431.9999997 magnetization      11.3239411
 augmentation part      185.3694979 magnetization       8.8292600

 Broyden mixing:
  rms(total) = 0.10336E+01    rms(broyden)= 0.10333E+01
  rms(prec ) = 0.16252E+01
  weight for this iteration     100.00

 eigenvalues of (default mixing * dielectric matrix)
  average eigenvalue GAMMA=   0.4181
  1.6094  0.9536  0.9536  0.7906  0.4556  0.4556  0.2217  0.1292  0.1292  0.1216
  0.1216  0.0787  0.0787  0.0924  0.0797

 Free energy of the ion-electron system (eV)
  ---------------------------------------------------
  alpha Z        PSCENC =      1991.78600378
  Ewald energy   TEWEN  =    -36287.62394310
  -Hartree energ DENC   =     -8175.28433382
  -exchange      EXHF   =         0.00000000
  -V(xc)+E(xc)   XCENC  =      1644.07784001
  PAW double counting   =     46097.23838150   -48031.51299466
  entropy T*S    EENTRO =        -0.05790733
  eigenvalues    EBANDS =      1725.03142290
  atomic energy  EATOM  =     40708.47505058
  Solvation  Ediel_sol  =         0.00000000
  ---------------------------------------------------
  free energy    TOTEN  =      -327.87048015 eV

  energy without entropy =     -327.81257282  energy(sigma->0) =     -327.84152648


--------------------------------------------------------------------------------------------------------




--------------------------------------- Iteration      1(  21)  ---------------------------------------


    POTLOK:  cpu time    0.1136: real time    0.1139
    SETDIJ:  cpu time    0.0234: real time    0.0235
     EDDAV:  cpu time  121.5671: real time  121.8547
    CHARGE:  cpu time    3.2316: real time    3.2393
    MIXING:  cpu time    0.0049: real time    0.0086
    --------------------------------------------
      LOOP:  cpu time  124.9407: real time  125.2399

 eigenvalue-minimisations  : 56800
 total energy-change (2. order) : 0.8056873E-01  (-0.1208728E+00)
 number of electron     431.9999996 magnetization      10.4663029
 augmentation part      185.3771052 magnetization       8.0433609

 Broyden mixing:
  rms(total) = 0.86466E+00    rms(broyden)= 0.86438E+00
  rms(prec ) = 0.12968E+01
  weight for this iteration     100.00

 eigenvalues of (default mixing * dielectric matrix)
  average eigenvalue GAMMA=   0.4531
  1.6922  1.2244  1.2244  0.8310  0.4954  0.4954  0.3457  0.1250  0.1250  0.1338
  0.1338  0.1064  0.0786  0.0786  0.0854  0.0748

 Free energy of the ion-electron system (eV)
  ---------------------------------------------------
  alpha Z        PSCENC =      1991.78600378
  Ewald energy   TEWEN  =    -36287.62394310
  -Hartree energ DENC   =     -8175.67305817
  -exchange      EXHF   =         0.00000000
  -V(xc)+E(xc)   XCENC  =      1644.11906593
  PAW double counting   =     46124.35367875   -48056.81216667
  entropy T*S    EENTRO =        -0.05277423
  eigenvalues    EBANDS =      1723.63823172
  atomic energy  EATOM  =     40708.47505058
  Solvation  Ediel_sol  =         0.00000000
  ---------------------------------------------------
  free energy    TOTEN  =      -327.78991141 eV

  energy without entropy =     -327.73713718  energy(sigma->0) =     -327.76352430


--------------------------------------------------------------------------------------------------------




--------------------------------------- Iteration      1(  22)  ---------------------------------------


    POTLOK:  cpu time    0.1136: real time    0.1138
    SETDIJ:  cpu time    0.0235: real time    0.0235
     EDDAV:  cpu time  125.1939: real time  125.4900
    CHARGE:  cpu time    3.2603: real time    3.2680
    MIXING:  cpu time    0.0049: real time    0.0049
    --------------------------------------------
      LOOP:  cpu time  128.5962: real time  128.9003

 eigenvalue-minimisations  : 58752
 total energy-change (2. order) :-0.8875034E-01  (-0.9726302E-01)
 number of electron     431.9999997 magnetization       9.9790154
 augmentation part      185.3504739 magnetization       7.7566521

 Broyden mixing:
  rms(total) = 0.82431E+00    rms(broyden)= 0.82408E+00
  rms(prec ) = 0.12553E+01
  weight for this iteration     100.00

 eigenvalues of (default mixing * dielectric matrix)
  average eigenvalue GAMMA=   0.4492
  1.7342  1.2977  1.2977  0.8479  0.4946  0.4946  0.3089  0.2313  0.1471  0.1261
  0.1261  0.1147  0.1030  0.0786  0.0786  0.0826  0.0729

 Free energy of the ion-electron system (eV)
  ---------------------------------------------------
  alpha Z        PSCENC =      1991.78600378
  Ewald energy   TEWEN  =    -36287.62394310
  -Hartree energ DENC   =     -8176.98710683
  -exchange      EXHF   =         0.00000000
  -V(xc)+E(xc)   XCENC  =      1644.26250919
  PAW double counting   =     46221.86329774   -48150.50962980
  entropy T*S    EENTRO =        -0.05646835
  eigenvalues    EBANDS =      1720.91162503
  atomic energy  EATOM  =     40708.47505058
  Solvation  Ediel_sol  =         0.00000000
  ---------------------------------------------------
  free energy    TOTEN  =      -327.87866175 eV

  energy without entropy =     -327.82219341  energy(sigma->0) =     -327.85042758


--------------------------------------------------------------------------------------------------------




--------------------------------------- Iteration      1(  23)  ---------------------------------------


    POTLOK:  cpu time    0.1132: real time    0.1135
    SETDIJ:  cpu time    0.0234: real time    0.0234
[...]
  in kB      286.2650674    283.8242287    293.8297302     -8.6477116     -9.0249285     14.6378319
  external PRESSURE =     287.9730088 kB  Pullay stress =       0.0000000 kB


 VOLUME and BASIS-vectors are now :
 -----------------------------------------------------------------------------
  energy-cutoff  :      500.00
  volume of cell :      434.28
      direct lattice vectors                 reciprocal lattice vectors
     8.504359500  0.000000000  0.000000000     0.117586751  0.067888742  0.000000000
    -4.252179750  7.364991370  0.000000000     0.000000000  0.135777484  0.000000000
     0.000000000  0.000000000  6.933488250     0.000000000  0.000000000  0.144227547

  length of vectors
     8.504359500  8.504359500  6.933488250     0.135777484  0.135777484  0.144227547


 FORCES acting on ions
    electron-ion (+dipol)            ewald-force                    non-local-force                 convergence-correction
 -----------------------------------------------------------------------------------------------
   -.628E+02 -.933E+02 -.567E+02   0.650E+02 0.969E+02 0.575E+02   0.404E+00 -.103E+01 0.675E+00   0.184E-01 -.207E-01 -.468E-02
   -.100E+03 -.133E+03 -.713E+02   0.101E+03 0.135E+03 0.710E+02   0.300E-01 -.894E+00 0.108E+01   -.428E-01 -.749E-01 0.142E-01
   -.105E+03 -.126E+03 0.387E+02   0.108E+03 0.128E+03 -.390E+02   -.106E+01 -.835E+00 -.135E+00   -.731E-02 -.418E-01 -.192E-01
   -.865E+02 -.466E+01 -.354E+02   0.895E+02 0.412E+01 0.368E+02   0.548E-01 -.483E+00 0.770E-01   0.110E-02 -.194E-02 0.490E-02
   -.682E+02 -.345E+02 0.678E+01   0.713E+02 0.359E+02 -.753E+01   -.259E+01 -.171E+01 0.162E+00   -.556E-01 -.148E-01 0.311E-01
   -.135E+03 -.537E+02 0.521E+02   0.136E+03 0.551E+02 -.527E+02   0.421E+00 -.539E+00 0.294E+00   -.158E-02 -.468E-02 -.445E-01
   -.636E+02 0.455E+02 -.920E+02   0.661E+02 -.469E+02 0.928E+02   -.735E+00 0.125E+01 0.108E+01   -.139E-01 0.345E-01 0.456E-01
   -.110E+03 0.496E+02 -.381E+02   0.113E+03 -.495E+02 0.380E+02   -.149E+01 -.589E+00 -.101E-01   -.721E-01 -.113E-01 -.384E-02
   -.110E+03 -.291E+02 0.992E+02   0.112E+03 0.284E+02 -.100E+03   -.155E+00 -.281E+00 0.410E+00   -.472E-01 0.131E-01 -.309E-01
   -.580E+02 -.475E+02 -.705E+02   0.585E+02 0.481E+02 0.709E+02   -.140E+01 0.115E+01 0.111E+01   -.104E-02 -.123E-01 -.530E-02
   0.274E+02 -.310E+02 -.399E+02   -.284E+02 0.315E+02 0.394E+02   0.108E+01 0.231E+00 0.759E+00   0.117E-01 -.961E-02 -.158E-01
   0.484E+02 -.611E+02 0.111E+03   -.481E+02 0.624E+02 -.113E+03   -.113E+01 -.851E+00 0.518E-01   -.199E-01 -.289E-01 0.383E-01
   0.135E+00 -.137E+03 0.131E+02   -.111E+01 0.137E+03 -.122E+02   0.219E+00 0.588E+00 -.113E+01   -.158E-02 -.324E-01 -.396E-01
   0.987E+02 -.126E+01 -.298E+02   -.982E+02 0.190E+01 0.302E+02   -.164E+01 -.577E+00 -.135E+00   0.515E-01 0.442E-01 -.170E-02
   -.225E+01 0.239E+02 -.449E+01   0.294E+01 -.244E+02 0.266E+01   -.359E+00 0.409E+00 0.234E+01   -.414E-02 0.248E-01 0.223E-01
   -.552E+02 0.200E+02 -.318E+02   0.561E+02 -.213E+02 0.326E+02   -.944E+00 0.156E+01 0.273E+00   -.392E-02 0.416E-01 -.177E-01
   0.387E+02 0.120E+03 0.106E+02   -.393E+02 -.123E+03 -.928E+01   0.457E+00 0.892E+00 -.170E+01   0.413E-01 0.232E-01 0.235E-01
   -.656E+01 0.695E+02 0.404E+02   0.565E+01 -.698E+02 -.419E+02   0.932E+00 -.477E+00 0.126E+01   0.146E-01 -.601E-02 0.351E-01
   0.199E+03 -.456E+02 0.264E+01   -.203E+03 0.473E+02 -.250E+01   -.375E+00 0.112E+01 -.127E+01   -.119E-01 -.263E-01 -.356E-01
   0.336E+01 0.764E+01 0.504E+01   -.409E+01 -.687E+01 -.639E+01   0.548E+00 -.165E+01 0.614E+00   0.320E-01 -.233E-01 0.604E-01
   0.132E+03 0.119E+02 -.239E+02   -.134E+03 -.116E+02 0.232E+02   -.230E+00 -.101E+01 0.226E+01   0.471E-01 -.235E-01 -.230E-01
   0.554E+02 0.121E+02 -.667E+02   -.560E+02 -.118E+02 0.675E+02   0.685E+00 0.252E+00 0.958E+00   -.767E-02 -.157E-01 0.426E-02
   0.493E+02 -.396E+02 -.393E+02   -.515E+02 0.397E+02 0.392E+02   0.339E+00 0.533E+00 0.887E+00   0.146E-02 0.444E-01 0.254E-01
   0.119E+03 0.108E+03 0.541E+02   -.122E+03 -.110E+03 -.573E+02   0.670E+00 -.258E+00 0.321E+01   0.881E-03 0.544E-01 -.459E-01
   0.108E+03 0.161E+03 -.385E+02   -.111E+03 -.164E+03 0.396E+02   0.185E+01 0.171E+01 -.495E+00   0.133E-01 0.337E-01 -.125E-01
   0.134E+03 0.130E+03 -.391E+02   -.135E+03 -.132E+03 0.413E+02   -.161E+01 -.142E+00 -.134E+01   0.115E-01 0.504E-02 0.303E-01
   0.345E+02 0.105E+03 0.399E+02   -.350E+02 -.107E+03 -.420E+02   0.192E+01 0.534E+00 0.260E+01   0.353E-01 0.208E-02 -.283E-01
   0.214E+02 -.285E+02 0.186E+02   -.241E+02 0.286E+02 -.190E+02   0.142E+01 0.124E+01 0.180E+00   -.379E-01 -.332E-01 -.119E-02
   -.224E+02 -.103E+03 0.346E+02   0.211E+02 0.107E+03 -.360E+02   0.131E+01 -.274E+01 0.109E+01   0.180E-02 -.652E-02 -.693E-02
   -.236E+02 -.745E+02 -.706E+01   0.214E+02 0.762E+02 0.237E+01   0.195E+01 -.118E+01 0.497E+01   0.108E-02 -.231E-01 0.139E-01
   -.596E+02 -.585E+02 0.719E+01   0.653E+02 0.620E+02 -.775E+01   -.352E+01 -.206E+01 -.174E+00   0.990E-02 0.759E-03 -.613E-02
   -.712E+02 -.125E+02 0.316E+02   0.738E+02 0.934E+01 -.323E+02   -.226E+01 0.285E+01 -.494E+00   0.846E-02 -.194E-01 -.402E-01
   -.723E+02 -.384E+02 -.202E+02   0.746E+02 0.424E+02 0.170E+02   -.154E+01 -.326E+01 0.327E+01   -.315E-01 0.242E-02 0.509E-01
   -.501E+02 0.280E+02 0.610E+02   0.533E+02 -.267E+02 -.656E+02   -.122E+01 -.938E+00 0.391E+01   -.308E-01 0.139E-01 -.694E-01
   -.100E+03 0.655E+02 0.548E+02   0.102E+03 -.720E+02 -.602E+02   -.477E+00 0.470E+01 0.409E+01   0.244E-01 0.428E-01 0.128E-01
   -.775E+02 -.108E+02 0.200E+02   0.839E+02 0.129E+02 -.286E+02   -.486E+01 -.169E+01 0.696E+01   -.277E-01 -.281E-01 0.466E-01
   -.115E+02 -.402E+02 0.240E+02   0.876E+01 0.420E+02 -.255E+02   0.274E+01 -.117E+01 0.142E+01   -.215E-01 -.231E-01 0.672E-02
   -.458E+02 0.158E+02 0.160E+02   0.508E+02 -.191E+02 -.154E+02   -.328E+01 0.287E+01 -.136E+01   -.226E-01 -.306E-01 0.211E-01
   -.222E+02 -.287E+02 -.483E+02   0.248E+02 0.274E+02 0.498E+02   -.199E+01 0.115E+01 -.121E+01   0.507E-03 -.442E-01 -.406E-01
   -.578E+02 -.258E+02 0.133E+02   0.622E+02 0.250E+02 -.148E+02   -.422E+01 0.449E+00 0.150E+01   -.455E-01 -.341E-01 0.404E-01
   0.766E+02 -.268E+02 0.167E+02   -.804E+02 0.301E+02 -.169E+02   0.295E+01 -.244E+01 -.102E+00   -.622E-03 0.688E-02 0.285E-02
   -.814E+00 0.115E+02 -.144E+02   0.367E+00 -.122E+02 0.140E+02   0.718E+00 0.849E+00 0.505E+00   -.484E-02 0.180E-01 -.256E-01
   -.125E+02 -.112E+02 -.507E+01   0.123E+02 0.149E+02 0.521E+01   -.362E-02 -.333E+01 0.158E+00   -.218E-01 0.556E-02 0.175E-01
   0.455E+02 0.858E+02 0.377E+02   -.473E+02 -.904E+02 -.397E+02   0.159E+01 0.333E+01 0.776E+00   0.206E-01 0.172E-01 -.279E-01
   -.372E+02 0.387E+02 -.358E+02   0.410E+02 -.415E+02 0.369E+02   -.302E+01 0.182E+01 -.475E+00   -.409E-01 0.331E-02 -.432E-01
   0.807E+02 -.467E+01 0.170E+02   -.860E+02 0.807E+01 -.180E+02   0.365E+01 -.152E+01 0.109E+00   0.578E-01 -.146E-01 0.463E-01
   0.412E+02 -.575E+02 0.175E+02   -.434E+02 0.615E+02 -.152E+02   0.622E+00 -.326E+01 -.372E+01   0.285E-01 -.288E-01 -.706E-01
   0.619E+02 0.237E+02 -.229E+02   -.634E+02 -.269E+02 0.244E+02   0.400E+00 0.217E+01 -.167E+01   -.425E-02 0.314E-01 0.302E-01
   0.400E+02 0.217E+02 -.157E+02   -.385E+02 -.216E+02 0.194E+02   -.122E+01 -.716E+00 -.348E+01   0.555E-01 0.287E-01 -.822E-02
   0.327E+02 0.277E+02 0.554E+02   -.371E+02 -.280E+02 -.596E+02   0.260E+01 0.123E+00 0.209E+01   -.766E-02 -.898E-03 -.209E-01
   0.640E+02 0.225E+02 -.426E+02   -.652E+02 -.238E+02 0.437E+02   0.926E+00 0.148E+01 -.139E+01   0.360E-01 0.428E-01 0.468E-01
   0.333E+02 0.370E+02 0.324E+02   -.318E+02 -.358E+02 -.337E+02   -.150E+01 -.102E+01 0.924E+00   0.501E-01 0.767E-01 0.157E-01
   0.690E+02 0.459E+02 0.641E+02   -.734E+02 -.463E+02 -.717E+02   0.242E+01 -.417E+00 0.590E+01   -.391E-01 0.250E-01 -.373E-01
   0.244E+02 0.729E+02 -.135E+03   -.217E+02 -.763E+02 0.148E+03   -.118E+01 0.112E+01 -.858E+01   0.438E-01 -.254E-01 0.364E-01
 -----------------------------------------------------------------------------------------------
   0.111E+02 0.271E+01 -.291E+02   -.160E-12 0.526E-12 -.284E-13   -.111E+02 -.270E+01 0.291E+02   -.882E-02 -.236E-01 -.302E-02
 
 
 POSITION                                       TOTAL-FORCE (eV/Angst)
 -----------------------------------------------------------------------------------
     -4.22853      7.33092      0.01212         2.654316      2.577785      1.406165
      1.36869      0.87696      2.29366         1.006507      1.233983      0.804181
      0.00026      1.67260      4.70052         1.250637      0.899805     -0.406746
      6.99916      2.57841      0.02509         3.021606     -1.020458      1.433956
      0.00694      3.38927      2.39677         0.409189     -0.350670     -0.553603
     -1.51148      4.08594      4.65678         1.604816      0.845510     -0.363636
      5.54701      5.00022      0.00177         1.795951     -0.126738      1.987114
     -1.48766      5.84663      2.36511         1.019211     -0.529061     -0.131856
     -2.84070      6.73046      4.72399         1.620895     -0.981316     -0.712468
     -1.29469      7.36242      0.00799        -0.862936      1.712085      1.494793
      4.32544      0.84183      2.36323         0.082584      0.661128      0.299137
      2.95462      1.69650      4.73670        -0.902130      0.369727     -1.305561
      1.52411      2.43354      0.07356        -0.757681      1.420924     -0.264502
      2.98935      3.33416      2.36033        -1.147457      0.107705      0.165706
      1.42509      4.16644      4.67390         0.328021     -0.039335      0.531977
     -0.01994      4.97296      6.89904         0.040458      0.300973      1.072417
      1.49390      5.88884      2.32194        -0.112072     -2.047318     -0.305591
      0.04355      6.64221      4.71405         0.032848     -0.809312     -0.237929
      1.71488      7.33369      0.07530        -4.909688      2.858273     -1.168433
      7.23933      0.90760      2.43200        -0.146275     -0.909722     -0.671767
      5.83752      1.64654      4.67199        -2.406091     -0.694781      1.529779
      4.33705      2.44227      6.89531         0.016379      0.476550      1.807739
      5.82744      3.27774      2.32142        -1.810987      0.663885      0.778268
      4.36735      4.28107      4.74976        -2.160318     -1.801186     -0.067753
      2.94086      5.03824      0.03330        -0.676180     -1.351813      0.509808
      4.43161      5.87778      2.32360        -2.786277     -2.138740      0.913056
      2.81553      6.71772      4.70517         1.539220     -1.572209      0.469762
     -4.10859      7.33510      3.57926        -1.266266      1.273143     -0.275648
      1.50852      0.77855      5.99315         0.024087      0.939056     -0.241952
     -0.00611      1.72924      1.13954        -0.204890      0.464858      0.295838
      6.96123      2.40699      3.52326         2.130938      1.444273     -0.736624
     -0.02642      3.35527      5.93678         0.361365     -0.324337     -1.228363
     -1.47298      4.18391      1.18890         0.701702      0.787592      0.142749
      5.56761      5.03017      3.66773         1.955803      0.322423     -0.729122
     -1.61114      5.90198      5.93766         1.355589     -1.699473     -1.230337
     -2.86411      6.65712      1.29095         1.578657      0.368797     -1.658073
      2.94133      0.02780      3.56677         0.000484      0.609277      0.008031
      4.28480      0.89077      5.86772         1.701609     -0.534539     -0.738780
      2.85697      1.67335      1.21084         0.539591     -0.207460      0.261899
      1.36924      2.50795      3.56852         0.134362     -0.438988      0.011190
      2.99897      3.30718      5.82145        -0.779622      0.790236     -0.271211
      1.46101      4.17329      1.20305         0.266277      0.188210      0.108655
      0.00985      4.96763      3.49591        -0.284179      0.388895      0.315075
      1.45456      5.87122      5.91349        -0.198696     -1.247464     -1.261637
     -0.02830      6.65940      1.14612         0.784963     -0.958070      0.617264
      1.61108      7.30079      3.49191        -1.555928      1.859379     -0.768346
      7.34484      0.91240      5.92792        -1.583390      0.654785     -1.414032
      5.80267      1.64540      1.20280        -1.060914     -0.977682     -0.083391
      4.36285      2.61458      3.50253         0.288010     -0.610627      0.168467
      5.77834      3.39936      5.97987        -1.786269     -0.165350     -2.133349
      4.38409      4.06564      1.22219        -0.265548      0.149500     -0.174548
      2.87939      4.97929      3.56935        -0.029997      0.216067     -0.387576
      4.39801      5.89694      5.87003        -2.065494     -0.804187     -1.737163
      2.95194      6.73026      1.06084         1.513209     -2.243990      4.126974
 -----------------------------------------------------------------------------------
    total drift:                                0.010261     -0.012819      0.007519


--------------------------------------------------------------------------------------------------------



  FREE ENERGIE OF THE ION-ELECTRON SYSTEM (eV)
  ---------------------------------------------------
  free  energy   TOTEN  =      -328.7761632311 eV

  energy  without entropy=     -328.7521939480  energy(sigma->0) =     -328.76417859
 


--------------------------------------------------------------------------------------------------------


    POTLOK:  cpu time    0.1396: real time    0.1399


--------------------------------------------------------------------------------------------------------


     LOOP+:  cpu time10144.4114: real time10169.7049
    4ORBIT:  cpu time    0.0000: real time    0.0000

volume of typ            1:    39.6 %

volume of typ            2:    10.1 %
 
total charge     
 
# of ion       s       p       d       tot
------------------------------------------
    1        0.271   0.363   8.038   8.673
    2        0.221   0.256   7.998   8.475
    3        0.218   0.248   8.045   8.512
    4        0.250   0.319   8.001   8.569
    5        0.211   0.236   7.978   8.425
    6        0.208   0.232   8.013   8.454
    7        0.253   0.323   8.019   8.596
    8        0.212   0.243   7.989   8.445
    9        0.254   0.328   8.006   8.588
   10        0.258   0.328   7.997   8.582
   11        0.206   0.230   7.982   8.418
   12        0.213   0.239   7.993   8.445
   13        0.217   0.251   7.980   8.447
   14        0.215   0.241   7.962   8.418
   15        0.205   0.227   7.965   8.397
   16        0.214   0.246   7.992   8.451
   17        0.213   0.242   7.996   8.451
   18        0.212   0.236   8.002   8.450
   19        0.255   0.319   8.045   8.619
   20        0.222   0.265   8.039   8.526
   21        0.214   0.246   8.045   8.505
   22        0.228   0.275   8.003   8.506
   23        0.238   0.286   8.009   8.533
   24        0.239   0.286   8.002   8.527
   25        0.206   0.233   8.016   8.455
   26        0.234   0.278   8.021   8.533
   27        0.227   0.271   8.017   8.516
   28        1.259   2.829   0.012   4.100
   29        1.267   2.814   0.011   4.091
   30        1.263   2.795   0.008   4.067
   31        1.259   2.833   0.014   4.107
   32        1.260   2.798   0.009   4.066
   33        1.261   2.806   0.009   4.076
   34        1.257   2.828   0.011   4.096
   35        1.266   2.818   0.011   4.095
   36        1.262   2.838   0.014   4.114
   37        1.249   2.821   0.008   4.078
   38        1.257   2.823   0.011   4.091
   39        1.261   2.800   0.009   4.070
   40        1.255   2.793   0.007   4.056
   41        1.251   2.815   0.009   4.074
   42        1.259   2.781   0.007   4.047
   43        1.259   2.790   0.008   4.056
   44        1.249   2.831   0.011   4.091
   45        1.260   2.803   0.009   4.073
   46        1.260   2.825   0.012   4.097
   47        1.259   2.837   0.013   4.109
   48        1.262   2.805   0.009   4.076
   49        1.263   2.786   0.008   4.056
   50        1.260   2.844   0.014   4.118
   51        1.259   2.806   0.009   4.074
   52        1.261   2.785   0.007   4.052
   53        1.261   2.853   0.016   4.130
   54        1.257   2.861   0.016   4.134
--------------------------------------------------
tot          40.11   83.26  216.44  339.81
 
magnetization (x)
 
# of ion       s       p       d       tot
------------------------------------------
    1        0.000  -0.002  -0.707  -0.709
    2        0.003   0.005   1.192   1.200
    3        0.001   0.000  -0.301  -0.300
    4        0.000   0.001  -0.943  -0.941
    5       -0.001  -0.001  -1.144  -1.146
    6        0.002   0.001   1.073   1.076
    7        0.002  -0.000  -0.993  -0.991
    8        0.005   0.003   1.142   1.151
    9        0.000   0.003  -0.905  -0.902
   10       -0.001  -0.002  -0.772  -0.775
   11       -0.002   0.000  -1.151  -1.153
   12        0.004   0.003   1.113   1.120
   13       -0.001  -0.000   1.157   1.156
   14        0.004   0.006   1.223   1.233
   15        0.002   0.002   1.252   1.256
   16        0.002   0.001   1.095   1.098
   17       -0.002   0.001  -1.037  -1.039
   18        0.004  -0.000   1.125   1.128
   19        0.001  -0.000  -0.831  -0.831
   20        0.004   0.003   0.033   0.040
   21       -0.000  -0.001   1.031   1.029
   22        0.003   0.005  -1.026  -1.017
   23        0.005   0.004   0.337   0.347
   24        0.005   0.000   0.944   0.949
   25        0.002   0.000   1.120   1.123
   26        0.000   0.005   1.085   1.090
   27        0.002   0.005   1.111   1.118
   28        0.009   0.082   0.000   0.092
   29       -0.002   0.003  -0.000   0.001
   30       -0.002   0.030  -0.000   0.028
   31        0.005   0.055   0.000   0.060
   32        0.008   0.050   0.000   0.058
   33       -0.005  -0.018  -0.000  -0.023
   34        0.016   0.110   0.001   0.127
   35       -0.004   0.016  -0.000   0.012
   36        0.003   0.072   0.000   0.076
   37        0.008   0.057   0.000   0.066
   38        0.001   0.000   0.000   0.002
   39        0.003   0.042   0.000   0.045
   40        0.012   0.044   0.001   0.057
   41        0.016   0.097   0.001   0.114
   42        0.008   0.051   0.000   0.059
   43        0.008   0.021   0.000   0.029
   44        0.018   0.122   0.001   0.141
   45       -0.005  -0.039  -0.000  -0.045
   46        0.003   0.041   0.000   0.045
   47       -0.011  -0.006  -0.000  -0.018
   48       -0.005  -0.034  -0.000  -0.040
   49        0.012   0.096   0.000   0.108
   50       -0.003  -0.030  -0.000  -0.033
   51        0.005   0.052   0.000   0.058
   52        0.017   0.115   0.001   0.132
   53       -0.002  -0.059  -0.000  -0.062
   54       -0.007  -0.015  -0.001  -0.022
--------------------------------------------------
tot           0.15    1.00    6.23    7.38
 

 total amount of memory used by VASP MPI-rank0   360471. kBytes
=======================================================================

   base      :      30000. kBytes
   nonlr-proj:      39898. kBytes
   fftplans  :       4688. kBytes
   grid      :      26804. kBytes
   one-center:       1679. kBytes
   wavefun   :     257402. kBytes
 
  
  
 General timing and accounting informations for this job:
 ========================================================
  
                  Total CPU time used (sec):    10203.085
                            User time (sec):    10193.005
                          System time (sec):       10.080
                         Elapsed time (sec):    10232.403
  
                   Maximum memory used (kb):      451812.
                   Average memory used (kb):           0.
  
                          Minor page faults:        41609
                          Major page faults:           95
                 Voluntary context switches:         1363
