 vasp.5.4.4.18Apr17-6-g9f103f2a35 (build May 12 2020 04:58:55) complex          
  
 MD_VERSION_INFO: Compiled 2020-05-12T11:58:55-UTC in devlin.sd.materialsdesign.
 com:/home/medea2/data/build/wwolf/vasp-gpu5.4.4/13047/x86_64/src/src/build/std 
 from svn 13047
 
 This VASP executable licensed from Materials Design, Inc.
 
 executed on                        Lin64 date 2023.04.26  18:52:32
 running on   16 total cores
 distrk:  each k-point on   16 cores,    1 groups
 distr:  one band on NCORES_PER_BAND=   1 cores,   16 groups


--------------------------------------------------------------------------------------------------------


 INCAR:
 POTCAR:    PAW_PBE Ni 02Aug2007                  
 POTCAR:    PAW_PBE O 08Apr2002                   

 ----------------------------------------------------------------------------- 
|                                                                             |
|           W    W    AA    RRRRR   N    N  II  N    N   GGGG   !!!           |
|           W    W   A  A   R    R  NN   N  II  NN   N  G    G  !!!           |
|           W    W  A    A  R    R  N N  N  II  N N  N  G       !!!           |
|           W WW W  AAAAAA  RRRRR   N  N N  II  N  N N  G  GGG   !            |
|           WW  WW  A    A  R   R   N   NN  II  N   NN  G    G                |
|           W    W  A    A  R    R  N    N  II  N    N   GGGG   !!!           |
|                                                                             |
|      For optimal performance we recommend to set                            |
|        NCORE= 4 - approx SQRT( number of cores)                             |
|      NCORE specifies how many cores store one orbital (NPAR=cpu/NCORE).     |
|      This setting can  greatly improve the performance of VASP for DFT.     |
|      The default,   NCORE=1            might be grossly inefficient         |
|      on modern multi-core architectures or massively parallel machines.     |
|      Do your own testing !!!!                                               |
|      Unfortunately you need to use the default for GW and RPA calculations. |
|      (for HF NCORE is supported but not extensively tested yet)             |
|                                                                             |
 ----------------------------------------------------------------------------- 

 POTCAR:    PAW_PBE Ni 02Aug2007                  
  local pseudopotential read in
  partial core-charges read in
  partial kinetic energy density read in
  atomic valenz-charges read in
  non local Contribution for L=           2  read in
    real space projection operators read in
  non local Contribution for L=           2  read in
    real space projection operators read in
  non local Contribution for L=           0  read in
    real space projection operators read in
  non local Contribution for L=           0  read in
    real space projection operators read in
  non local Contribution for L=           1  read in
    real space projection operators read in
  non local Contribution for L=           1  read in
    real space projection operators read in
    PAW grid and wavefunctions read in
 
   number of l-projection  operators is LMAX  =           6
   number of lm-projection operators is LMMAX =          18
 
 POTCAR:    PAW_PBE O 08Apr2002                   
  local pseudopotential read in
  partial core-charges read in
  partial kinetic energy density read in
  kinetic energy density of atom read in
  atomic valenz-charges read in
  non local Contribution for L=           0  read in
    real space projection operators read in
  non local Contribution for L=           0  read in
    real space projection operators read in
  non local Contribution for L=           1  read in
    real space projection operators read in
  non local Contribution for L=           1  read in
    real space projection operators read in
    PAW grid and wavefunctions read in
 
   number of l-projection  operators is LMAX  =           4
   number of lm-projection operators is LMMAX =           8
 
 Optimization of the real space projectors (new method)

 maximal supplied QI-value         = 16.25
 optimisation between [QCUT,QGAM] = [ 11.38, 22.75] = [ 36.24,144.96] Ry 
 Optimized for a Real-space Cutoff    1.47 Angstroem

   l    n(q)    QCUT    max X(q) W(low)/X(q) W(high)/X(q)  e(spline) 
   2      9    11.376    60.317    0.17E-03    0.16E-04    0.16E-06
   2      9    11.376    55.921    0.17E-03    0.16E-04    0.17E-06
   0     10    11.376    51.690    0.45E-04    0.60E-04    0.21E-06
   0     10    11.376    30.015    0.37E-04    0.55E-04    0.19E-06
   1     10    11.376    18.849    0.83E-04    0.11E-03    0.92E-07
   1     10    11.376    14.624    0.69E-04    0.92E-04    0.82E-07
 Optimization of the real space projectors (new method)

 maximal supplied QI-value         = 24.76
 optimisation between [QCUT,QGAM] = [ 11.39, 22.77] = [ 36.31,145.25] Ry 
 Optimized for a Real-space Cutoff    1.10 Angstroem

   l    n(q)    QCUT    max X(q) W(low)/X(q) W(high)/X(q)  e(spline) 
   0      7    11.387    20.381    0.22E-03    0.48E-03    0.18E-06
   0      7    11.387    15.268    0.22E-03    0.52E-03    0.19E-06
   1      7    11.387     5.964    0.22E-03    0.73E-03    0.24E-06
   1      7    11.387     5.382    0.19E-03    0.60E-03    0.21E-06

 ----------------------------------------------------------------------------- 
|                                                                             |
|  ADVICE TO THIS USER RUNNING 'VASP/VAMP'   (HEAR YOUR MASTER'S VOICE ...):  |
|                                                                             |
|      You enforced a specific xc-type in the INCAR file,                     |
|      a different type was found on the POTCAR file                          |
|          I HOPE YOU KNOW, WHAT YOU ARE  DOING                               |
|                                                                             |
 ----------------------------------------------------------------------------- 

  PAW_PBE Ni 02Aug2007                  :
 energy of atom  1       EATOM=-1077.6739
 kinetic energy error for atom=    0.0030 (will be added to EATOM!!)
  PAW_PBE O 08Apr2002                   :
 energy of atom  2       EATOM= -432.3788
 kinetic energy error for atom=    0.0224 (will be added to EATOM!!)
 
 
 POSCAR: NiO2_Fd-3m_scale_1_050_disp_0_12_round_1
  positions in direct lattice
  No initial velocities read in
 exchange correlation table for  LEXCH =       14
   RHO(1)=    0.500       N(1)  =     2000
   RHO(2)=  100.500       N(2)  =     4000
 


--------------------------------------------------------------------------------------------------------


 ion  position               nearest neighbor table
   1  0.122  0.612  0.089-  22 1.91  24 1.97  41 2.11  28 2.16  47 2.32  43 2.49   3 2.71   2 2.75
                             4 2.78   8 3.03
   2  0.348  0.848  0.154-  18 1.63  46 1.79  24 1.84  41 1.86  19 2.22   3 2.45  29 2.49   4 2.51
                             1 2.75  13 3.02
   3  0.349  0.606  0.326-  41 1.35  18 1.63  21 1.95  44 1.99  47 2.02  27 2.20   2 2.45   4 2.67
                             1 2.71   6 2.80  16 2.95   9 3.09
   4  0.115  0.827  0.348-  24 1.82  47 1.83  18 1.83  30 2.06  45 2.21  20 2.48   2 2.51   3 2.67
                             1 2.78  10 2.89
   5  0.117  0.111  0.608-  32 1.66  39 1.86  20 1.88  33 1.93  35 2.04  30 2.31   8 2.71   6 2.84
                             7 3.08
   6  0.327  0.382  0.580-  21 1.74  27 1.81  26 1.86  32 1.92  33 2.10  38 2.16   8 2.65   3 2.80
                             5 2.84   9 2.92  16 3.04
   7  0.383  0.146  0.868-  36 1.68  26 1.77  39 1.86  19 1.94  33 2.30  29 2.34   8 2.75  13 2.85
                             5 3.08
   8  0.127  0.354  0.829-  32 1.79  26 1.89  28 1.99  39 2.00  22 2.33  37 2.43   6 2.65   5 2.71
                             7 2.75   1 3.03
   9  0.611  0.593  0.592-  44 1.72  25 1.81  31 1.94  40 1.96  27 1.96  38 2.10  10 2.57  12 2.71
                            16 2.74  11 2.79   6 2.92   3 3.09
  10  0.838  0.804  0.561-  45 1.67  25 1.78  40 1.96  34 2.18  30 2.23   9 2.57  11 2.89   4 2.89
                            12 2.91
  11  0.840  0.594  0.841-  37 1.84  31 1.84  25 1.89  34 1.89  43 1.90  28 1.97  12 2.68   9 2.79
                            10 2.89  14 3.01
  12  0.608  0.821  0.827-  40 1.63  34 1.68  31 1.94  29 2.01  46 2.21  36 2.45  11 2.68   9 2.71
                            10 2.91
  13  0.607  0.105  0.128-  23 1.83  17 1.84  48 1.94  19 2.04  46 2.11  36 2.15  15 2.58  14 2.71
                            16 2.84   7 2.85   2 3.02
  14  0.827  0.346  0.109-  17 1.68  48 1.83  42 1.99  37 2.03  43 2.20  16 2.66  13 2.71  15 2.75
                            11 3.01
  15  0.833  0.112  0.345-  17 1.79  23 1.84  35 1.94  42 2.00  45 2.12  20 2.26  13 2.58  14 2.75
                            16 2.78
  16  0.614  0.368  0.349-  44 1.71  42 1.74  23 1.84  48 1.86  38 1.87  21 1.92  14 2.66   9 2.74
                            15 2.78  13 2.84   3 2.95   6 3.04
  17  0.826  0.144  0.130-  14 1.68  15 1.79  13 1.84
  18  0.335  0.802  0.346-   3 1.63   2 1.63   4 1.83
  19  0.361  0.111  0.100-   7 1.94  13 2.04   2 2.22
  20  0.104  0.126  0.382-   5 1.88  15 2.26   4 2.48
  21  0.383  0.378  0.376-   6 1.74  16 1.92   3 1.95
  22  0.132  0.382  0.110-   1 1.91   8 2.33
  23  0.613  0.146  0.346-  13 1.83  16 1.84  15 1.84
  24  0.127  0.847  0.130-   4 1.82   2 1.84   1 1.97
  25  0.830  0.594  0.613-  10 1.78   9 1.81  11 1.89
  26  0.354  0.346  0.800-   7 1.77   6 1.86   8 1.89
  27  0.374  0.597  0.591-   6 1.81   9 1.96   3 2.20
  28  0.078  0.589  0.832-  11 1.97   8 1.99   1 2.16
  29  0.370  0.863  0.854-  12 2.01   7 2.34   2 2.49
  30  0.104  0.833  0.597-   4 2.06  10 2.23   5 2.31
  31  0.618  0.586  0.827-  11 1.84  12 1.94   9 1.94
  32  0.109  0.312  0.618-   5 1.66   8 1.79   6 1.92
  33  0.350  0.129  0.593-   5 1.93   6 2.10   7 2.30
  34  0.812  0.820  0.824-  12 1.68  11 1.89  10 2.18
  35  0.873  0.126  0.576-  15 1.94   5 2.04
  36  0.584  0.114  0.869-   7 1.68  13 2.15  12 2.45
  37  0.835  0.373  0.865-  11 1.84  14 2.03   8 2.43
  38  0.586  0.340  0.572-  16 1.87   9 2.10   6 2.16
  39  0.164  0.114  0.829-   5 1.86   7 1.86   8 2.00
  40  0.612  0.827  0.630-  12 1.63   9 1.96  10 1.96
  41  0.366  0.624  0.165-   3 1.35   2 1.86   1 2.11
  42  0.824  0.354  0.350-  16 1.74  14 1.99  15 2.00
  43  0.822  0.610  0.070-  11 1.90  14 2.20   1 2.49
  44  0.579  0.567  0.388-  16 1.71   9 1.72   3 1.99
  45  0.849  0.857  0.367-  10 1.67  15 2.12   4 2.21
  46  0.554  0.859  0.087-   2 1.79  13 2.11  12 2.21
  47  0.109  0.607  0.370-   4 1.83   3 2.02   1 2.32
  48  0.607  0.340  0.126-  14 1.83  16 1.86  13 1.94
 
  LATTYP: Found a simple cubic cell.
 ALAT       =     8.2600144400
  
  Lattice vectors:
  
 A1 = (   8.2600144400,   0.0000000000,   0.0000000000)
 A2 = (   0.0000000000,   8.2600144400,   0.0000000000)
 A3 = (   0.0000000000,   0.0000000000,   8.2600144400)


Analysis of symmetry for initial positions (statically):
=====================================================================
 Subroutine PRICEL returns:
 Original cell was already a primitive cell.
 

 Routine SETGRP: Setting up the symmetry group for a 
 simple cubic supercell.


 Subroutine GETGRP returns: Found  1 space group operations
 (whereof  1 operations were pure point group operations)
 out of a pool of 48 trial point group operations.


The static configuration has the point symmetry C_1 .


Analysis of symmetry for dynamics (positions and initial velocities):
=====================================================================
 Subroutine PRICEL returns:
 Original cell was already a primitive cell.
 

 Routine SETGRP: Setting up the symmetry group for a 
 simple cubic supercell.


 Subroutine GETGRP returns: Found  1 space group operations
 (whereof  1 operations were pure point group operations)
 out of a pool of 48 trial point group operations.


The dynamic configuration has the point symmetry C_1 .


 Subroutine INISYM returns: Found  1 space group operations
 (whereof  1 operations are pure point group operations),
 and found     1 'primitive' translations

 
 
 KPOINTS: Automatic mesh                          

Automatic generation of k-mesh.
Space group operators:
 irot       det(A)        alpha          n_x          n_y          n_z        tau_x        tau_y        tau_z
    1     1.000000     0.000000     1.000000     0.000000     0.000000     0.000000     0.000000     0.000000
 
 Subroutine IBZKPT returns following result:
 ===========================================
 
 Found     36 irreducible k-points:
 
 Following reciprocal coordinates:
            Coordinates               Weight
  0.000000  0.000000  0.000000      1.000000
  0.250000  0.000000  0.000000      2.000000
  0.500000  0.000000  0.000000      1.000000
  0.000000  0.250000  0.000000      2.000000
  0.250000  0.250000  0.000000      2.000000
  0.500000  0.250000  0.000000      2.000000
 -0.250000  0.250000  0.000000      2.000000
  0.000000  0.500000  0.000000      1.000000
  0.250000  0.500000  0.000000      2.000000
  0.500000  0.500000  0.000000      1.000000
  0.000000  0.000000  0.250000      2.000000
  0.250000  0.000000  0.250000      2.000000
  0.500000  0.000000  0.250000      2.000000
 -0.250000  0.000000  0.250000      2.000000
  0.000000  0.250000  0.250000      2.000000
  0.250000  0.250000  0.250000      2.000000
  0.500000  0.250000  0.250000      2.000000
 -0.250000  0.250000  0.250000      2.000000
  0.000000  0.500000  0.250000      2.000000
  0.250000  0.500000  0.250000      2.000000
  0.500000  0.500000  0.250000      2.000000
 -0.250000  0.500000  0.250000      2.000000
  0.000000 -0.250000  0.250000      2.000000
  0.250000 -0.250000  0.250000      2.000000
  0.500000 -0.250000  0.250000      2.000000
 -0.250000 -0.250000  0.250000      2.000000
  0.000000  0.000000  0.500000      1.000000
  0.250000  0.000000  0.500000      2.000000
  0.500000  0.000000  0.500000      1.000000
  0.000000  0.250000  0.500000      2.000000
  0.250000  0.250000  0.500000      2.000000
  0.500000  0.250000  0.500000      2.000000
 -0.250000  0.250000  0.500000      2.000000
  0.000000  0.500000  0.500000      1.000000
  0.250000  0.500000  0.500000      2.000000
  0.500000  0.500000  0.500000      1.000000
 
 Following cartesian coordinates:
            Coordinates               Weight
  0.000000  0.000000  0.000000      1.000000
  0.030266  0.000000  0.000000      2.000000
  0.060533  0.000000  0.000000      1.000000
  0.000000  0.030266  0.000000      2.000000
  0.030266  0.030266  0.000000      2.000000
  0.060533  0.030266  0.000000      2.000000
 -0.030266  0.030266  0.000000      2.000000
  0.000000  0.060533  0.000000      1.000000
  0.030266  0.060533  0.000000      2.000000
  0.060533  0.060533  0.000000      1.000000
  0.000000  0.000000  0.030266      2.000000
  0.030266  0.000000  0.030266      2.000000
  0.060533  0.000000  0.030266      2.000000
 -0.030266  0.000000  0.030266      2.000000
  0.000000  0.030266  0.030266      2.000000
  0.030266  0.030266  0.030266      2.000000
  0.060533  0.030266  0.030266      2.000000
 -0.030266  0.030266  0.030266      2.000000
  0.000000  0.060533  0.030266      2.000000
  0.030266  0.060533  0.030266      2.000000
  0.060533  0.060533  0.030266      2.000000
 -0.030266  0.060533  0.030266      2.000000
  0.000000 -0.030266  0.030266      2.000000
  0.030266 -0.030266  0.030266      2.000000
  0.060533 -0.030266  0.030266      2.000000
 -0.030266 -0.030266  0.030266      2.000000
  0.000000  0.000000  0.060533      1.000000
  0.030266  0.000000  0.060533      2.000000
  0.060533  0.000000  0.060533      1.000000
  0.000000  0.030266  0.060533      2.000000
  0.030266  0.030266  0.060533      2.000000
  0.060533  0.030266  0.060533      2.000000
 -0.030266  0.030266  0.060533      2.000000
  0.000000  0.060533  0.060533      1.000000
  0.030266  0.060533  0.060533      2.000000
  0.060533  0.060533  0.060533      1.000000
 


--------------------------------------------------------------------------------------------------------




 Dimension of arrays:
   k-points           NKPTS =     36   k-points in BZ     NKDIM =     36   number of bands    NBANDS=    224
   number of dos      NEDOS =    301   number of ions     NIONS =     48
   non local maximal  LDIM  =      6   non local SUM 2l+1 LMDIM =     18
   total plane-waves  NPLWV = 216000
   max r-space proj   IRMAX =   5195   max aug-charges    IRDMAX=  12622
   dimension x,y,z NGX =    60 NGY =   60 NGZ =   60
   dimension x,y,z NGXF=   120 NGYF=  120 NGZF=  120
   support grid    NGXF=   120 NGYF=  120 NGZF=  120
   ions per type =              16  32
   NGX,Y,Z   is equivalent  to a cutoff of  12.08, 12.08, 12.08 a.u.
   NGXF,Y,Z  is equivalent  to a cutoff of  24.15, 24.15, 24.15 a.u.

 SYSTEM =  unknown system                          
 POSCAR =  NiO2_Fd-3m_scale_1_050_disp_0_12_round_1

 Startparameter for this run:
   NWRITE =      1    write-flag & timer
   PREC   = accura    normal or accurate (medium, high low for compatibility)
   ISTART =      0    job   : 0-new  1-cont  2-samecut
   ICHARG =      2    charge: 1-file 2-atom 10-const
   ISPIN  =      1    spin polarized calculation?
   LNONCOLLINEAR =      F non collinear calculations
   LSORBIT =      F    spin-orbit coupling
   INIWAV =      1    electr: 0-lowe 1-rand  2-diag
   LASPH  =      F    aspherical Exc in radial PAW
   METAGGA=      F    non-selfconsistent MetaGGA calc.

 Electronic Relaxation 1
   ENCUT  =  500.0 eV  36.75 Ry    6.06 a.u.  15.06 15.06 15.06*2*pi/ulx,y,z
   ENINI  =  500.0     initial cutoff
   ENAUG  =  605.4 eV  augmentation charge cutoff
   NELM   =    120;   NELMIN=  2; NELMDL= -5     # of ELM steps 
   EDIFF  = 0.1E-04   stopping-criterion for ELM
   LREAL  =      T    real-space projection
   NLSPLINE    = F    spline interpolate recip. space projectors
   LCOMPAT=      F    compatible to vasp.4.4
   GGA_COMPAT  = T    GGA compatible to vasp.4.4-vasp.4.6
   LMAXPAW     = -100 max onsite density
   LMAXMIX     =    2 max onsite mixed and CHGCAR
   VOSKOWN=      1    Vosko Wilk Nusair interpolation
   ROPT   =   -0.00025  -0.00025
 Ionic relaxation
   EDIFFG = 0.1E-03   stopping-criterion for IOM
   NSW    =      0    number of steps for IOM
   NBLOCK =      1;   KBLOCK =      1    inner block; outer block 
   IBRION =     -1    ionic relax: 0-MD 1-quasi-New 2-CG
   NFREE  =      0    steps in history (QN), initial steepest desc. (CG)
   ISIF   =      2    stress and relaxation
   IWAVPR =     10    prediction:  0-non 1-charg 2-wave 3-comb
   ISYM   =      2    0-nonsym 1-usesym 2-fastsym
   LCORR  =      T    Harris-Foulkes like correction to forces

   POTIM  = 0.5000    time-step for ionic-motion
   TEIN   =    0.0    initial temperature
   TEBEG  =    0.0;   TEEND  =   0.0 temperature during run
   SMASS  =  -3.00    Nose mass-parameter (am)
   estimated Nose-frequenzy (Omega)   =  0.10E-29 period in steps =****** mass=  -0.156E-26a.u.
   SCALEE = 1.0000    scale energy and forces
   NPACO  =    256;   APACO  = 16.0  distance and # of slots for P.C.
   PSTRESS=    0.0 pullay stress

  Mass of Ions in am
   POMASS =  58.69 16.00
  Ionic Valenz
   ZVAL   =  10.00  6.00
  Atomic Wigner-Seitz radii
   RWIGS  =   1.15  0.73
  virtual crystal weights 
   VCA    =   1.00  1.00
   NELECT =     352.0000    total number of electrons
   NUPDOWN=      -1.0000    fix difference up-down

 DOS related values:
   EMIN   =  10.00;   EMAX   =-10.00  energy-range for DOS
   EFERMI =   0.00
   ISMEAR =     0;   SIGMA  =   0.05  broadening in eV -4-tet -1-fermi 0-gaus

 Electronic relaxation 2 (details)
   IALGO  =     38    algorithm
   LDIAG  =      T    sub-space diagonalisation (order eigenvalues)
   LSUBROT=      F    optimize rotation matrix (better conditioning)
   TURBO    =      0    0=normal 1=particle mesh
   IRESTART =      0    0=no restart 2=restart with 2 vectors
   NREBOOT  =      0    no. of reboots
   NMIN     =      0    reboot dimension
   EREF     =   0.00    reference energy to select bands
   IMIX   =      4    mixing-type and parameters
     AMIX     =   0.40;   BMIX     =  1.00
     AMIX_MAG =   1.60;   BMIX_MAG =  1.00
     AMIN     =   0.10
     WC   =   100.;   INIMIX=   1;  MIXPRE=   1;  MAXMIX= -45

 Intra band minimization:
   WEIMIN = 0.0000     energy-eigenvalue tresh-hold
   EBREAK =  0.11E-07  absolut break condition
   DEPER  =   0.30     relativ break condition  

   TIME   =   0.40     timestep for ELM

  volume/ion in A,a.u.               =      11.74        79.23
  Fermi-wavevector in a.u.,A,eV,Ry     =   1.399399  2.644481 26.644530  1.958318
  Thomas-Fermi vector in A             =   2.522462
 
 Write flags
   LWAVE        =      F    write WAVECAR
   LDOWNSAMPLE  =      F    k-point downsampling of WAVECAR
   LCHARG       =      T    write CHGCAR
   LVTOT        =      F    write LOCPOT, total local potential
   LVHAR        =      F    write LOCPOT, Hartree potential only
   LELF         =      F    write electronic localiz. function (ELF)
   LORBIT       =      0    0 simple, 1 ext, 2 COOP (PROOUT), +10 PAW based schemes


 Dipole corrections
   LMONO  =      F    monopole corrections only (constant potential shift)
   LDIPOL =      F    correct potential (dipole corrections)
   IDIPOL =      0    1-x, 2-y, 3-z, 4-all directions 
   EPSILON=  1.0000000 bulk dielectric constant

 Exchange correlation treatment:
   GGA     =    PS    GGA type
   LEXCH   =    14    internal setting for exchange type
   VOSKOWN=      1    Vosko Wilk Nusair interpolation
   LHFCALC =     F    Hartree Fock is set to
   LHFONE  =     F    Hartree Fock one center treatment
   AEXX    =    0.0000 exact exchange contribution

 Linear response parameters
   LEPSILON=     F    determine dielectric tensor
   LRPA    =     F    only Hartree local field effects (RPA)
   LNABLA  =     F    use nabla operator in PAW spheres
   LVEL    =     F    velocity operator in full k-point grid
   LINTERFAST=   F  fast interpolation
   KINTER  =     0    interpolate to denser k-point grid
   CSHIFT  =0.1000    complex shift for real part using Kramers Kronig
   OMEGAMAX=  -1.0    maximum frequency
   DEG_THRESHOLD= 0.2000000E-02 threshold for treating states as degnerate
   RTIME   =   -0.100 relaxation time in fs
  (WPLASMAI=    0.000 imaginary part of plasma frequency in eV, 0.658/RTIME)
   DFIELD  = 0.0000000 0.0000000 0.0000000 field for delta impulse in time
 
 Orbital magnetization related:
   ORBITALMAG=     F  switch on orbital magnetization
   LCHIMAG   =     F  perturbation theory with respect to B field
   DQ        =  0.001000  dq finite difference perturbation B field
   LLRAUG    =     F  two centre corrections for induced B field



--------------------------------------------------------------------------------------------------------


 Static calculation
 charge density and potential will be updated during run
 non-spin polarized calculation
 Variant of blocked Davidson
 Davidson routine will perform the subspace rotation
 perform sub-space diagonalisation
    after iterative eigenvector-optimisation
 modified Broyden-mixing scheme, WC =      100.0
 initial mixing is a Kerker type mixing with AMIX =  0.4000 and BMIX =      1.0000
 Hartree-type preconditioning will be used
 using additional bands           48
 real space projection scheme for non local part
 use partial core corrections
 calculate Harris-corrections to forces 
   (improved forces if not selfconsistent)
 use gradient corrections 
 use of overlap-Matrix (Vanderbilt PP)
 Gauss-broadening in eV      SIGMA  =   0.05


--------------------------------------------------------------------------------------------------------


  energy-cutoff  :      500.00
  volume of cell :      563.56
      direct lattice vectors                 reciprocal lattice vectors
     8.260014440  0.000000000  0.000000000     0.121065164  0.000000000  0.000000000
     0.000000000  8.260014440  0.000000000     0.000000000  0.121065164  0.000000000
     0.000000000  0.000000000  8.260014440     0.000000000  0.000000000  0.121065164

  length of vectors
     8.260014440  8.260014440  8.260014440     0.121065164  0.121065164  0.121065164


 
 k-points in units of 2pi/SCALE and weight: Automatic mesh                          
   0.00000000  0.00000000  0.00000000       0.016
   0.03026629  0.00000000  0.00000000       0.031
   0.06053258  0.00000000  0.00000000       0.016
   0.00000000  0.03026629  0.00000000       0.031
   0.03026629  0.03026629  0.00000000       0.031
   0.06053258  0.03026629  0.00000000       0.031
  -0.03026629  0.03026629  0.00000000       0.031
   0.00000000  0.06053258  0.00000000       0.016
   0.03026629  0.06053258  0.00000000       0.031
   0.06053258  0.06053258  0.00000000       0.016
   0.00000000  0.00000000  0.03026629       0.031
   0.03026629  0.00000000  0.03026629       0.031
   0.06053258  0.00000000  0.03026629       0.031
  -0.03026629  0.00000000  0.03026629       0.031
   0.00000000  0.03026629  0.03026629       0.031
   0.03026629  0.03026629  0.03026629       0.031
   0.06053258  0.03026629  0.03026629       0.031
  -0.03026629  0.03026629  0.03026629       0.031
   0.00000000  0.06053258  0.03026629       0.031
   0.03026629  0.06053258  0.03026629       0.031
   0.06053258  0.06053258  0.03026629       0.031
  -0.03026629  0.06053258  0.03026629       0.031
   0.00000000 -0.03026629  0.03026629       0.031
   0.03026629 -0.03026629  0.03026629       0.031
   0.06053258 -0.03026629  0.03026629       0.031
  -0.03026629 -0.03026629  0.03026629       0.031
   0.00000000  0.00000000  0.06053258       0.016
   0.03026629  0.00000000  0.06053258       0.031
   0.06053258  0.00000000  0.06053258       0.016
   0.00000000  0.03026629  0.06053258       0.031
   0.03026629  0.03026629  0.06053258       0.031
   0.06053258  0.03026629  0.06053258       0.031
  -0.03026629  0.03026629  0.06053258       0.031
   0.00000000  0.06053258  0.06053258       0.016
   0.03026629  0.06053258  0.06053258       0.031
   0.06053258  0.06053258  0.06053258       0.016
 
 k-points in reciprocal lattice and weights: Automatic mesh                          
   0.00000000  0.00000000  0.00000000       0.016
   0.25000000  0.00000000  0.00000000       0.031
   0.50000000  0.00000000  0.00000000       0.016
   0.00000000  0.25000000  0.00000000       0.031
   0.25000000  0.25000000  0.00000000       0.031
   0.50000000  0.25000000  0.00000000       0.031
  -0.25000000  0.25000000  0.00000000       0.031
   0.00000000  0.50000000  0.00000000       0.016
   0.25000000  0.50000000  0.00000000       0.031
   0.50000000  0.50000000  0.00000000       0.016
   0.00000000  0.00000000  0.25000000       0.031
   0.25000000  0.00000000  0.25000000       0.031
   0.50000000  0.00000000  0.25000000       0.031
  -0.25000000  0.00000000  0.25000000       0.031
   0.00000000  0.25000000  0.25000000       0.031
   0.25000000  0.25000000  0.25000000       0.031
   0.50000000  0.25000000  0.25000000       0.031
  -0.25000000  0.25000000  0.25000000       0.031
   0.00000000  0.50000000  0.25000000       0.031
   0.25000000  0.50000000  0.25000000       0.031
   0.50000000  0.50000000  0.25000000       0.031
  -0.25000000  0.50000000  0.25000000       0.031
   0.00000000 -0.25000000  0.25000000       0.031
   0.25000000 -0.25000000  0.25000000       0.031
   0.50000000 -0.25000000  0.25000000       0.031
  -0.25000000 -0.25000000  0.25000000       0.031
   0.00000000  0.00000000  0.50000000       0.016
   0.25000000  0.00000000  0.50000000       0.031
   0.50000000  0.00000000  0.50000000       0.016
   0.00000000  0.25000000  0.50000000       0.031
   0.25000000  0.25000000  0.50000000       0.031
   0.50000000  0.25000000  0.50000000       0.031
  -0.25000000  0.25000000  0.50000000       0.031
   0.00000000  0.50000000  0.50000000       0.016
   0.25000000  0.50000000  0.50000000       0.031
   0.50000000  0.50000000  0.50000000       0.016
 
 position of ions in fractional coordinates (direct lattice) 
   0.12203839  0.61218860  0.08893668
   0.34795129  0.84781941  0.15383526
   0.34927991  0.60617326  0.32590293
   0.11461023  0.82749466  0.34825136
   0.11725476  0.11137518  0.60847513
   0.32718811  0.38233544  0.57989409
   0.38338045  0.14577046  0.86817220
   0.12693481  0.35383578  0.82937588
   0.61120229  0.59264471  0.59198764
   0.83809365  0.80364794  0.56123634
   0.83972092  0.59422879  0.84124159
   0.60781532  0.82146735  0.82671473
   0.60718008  0.10466140  0.12827555
   0.82748710  0.34648825  0.10884906
   0.83327211  0.11202969  0.34452108
   0.61409644  0.36780535  0.34890229
   0.82644305  0.14404144  0.13026955
   0.33480155  0.80210525  0.34557629
   0.36146736  0.11132903  0.09977679
   0.10387435  0.12570220  0.38227778
   0.38335117  0.37783688  0.37639393
   0.13184939  0.38217836  0.10962352
   0.61344455  0.14557519  0.34624906
   0.12652618  0.84671195  0.12959163
   0.82980947  0.59449208  0.61302383
   0.35353670  0.34640888  0.80001606
   0.37355812  0.59657389  0.59123636
   0.07785877  0.58946242  0.83233216
   0.36966512  0.86271834  0.85357325
   0.10352715  0.83263087  0.59743925
   0.61760501  0.58622810  0.82725693
   0.10935146  0.31176015  0.61800906
   0.34984036  0.12889709  0.59260592
   0.81174418  0.82028451  0.82355361
   0.87307494  0.12621320  0.57590840
   0.58398330  0.11376289  0.86935373
   0.83532364  0.37298811  0.86522614
   0.58553119  0.34024452  0.57191152
   0.16357246  0.11419179  0.82898771
   0.61166392  0.82650335  0.62971912
   0.36612112  0.62354045  0.16468842
   0.82374817  0.35373342  0.35006013
   0.82167481  0.61018509  0.07025744
   0.57939574  0.56746132  0.38817337
   0.84884032  0.85680872  0.36704618
   0.55418441  0.85870553  0.08671424
   0.10897794  0.60706187  0.36958727
   0.60695813  0.33962771  0.12587961
 
 position of ions in cartesian coordinates  (Angst):
   1.00803886  5.05668668  0.73461826
   2.87408268  7.00300057  1.27068147
   2.88505710  5.00699988  2.69196291
   0.94668215  6.83511784  2.87656126
   0.96852601  0.91996060  5.02601336
   2.70257851  3.15809626  4.78993356
   3.16672805  1.20406610  7.17111491
   1.04848336  2.92268865  6.85065674
   5.04853974  4.89525386  4.88982645
   6.92266565  6.63814359  4.63582027
   6.93610692  4.90833839  6.94866768
   5.02056332  6.78533217  6.82867561
   5.01531623  0.86450468  1.05955790
   6.83505539  2.86199795  0.89909481
   6.88283966  0.92536686  2.84574910
   5.07244546  3.03807750  2.88193795
   6.82643153  1.18978437  1.07602836
   2.76546564  6.62540095  2.85446515
   2.98572561  0.91957940  0.82415773
   0.85800363  1.03830199  3.15761998
   3.16648620  3.12093808  3.10901930
   1.08907787  3.15679877  0.90549186
   5.06706084  1.20245317  2.86002224
   1.04510807  6.99385293  1.07042874
   6.85423820  4.91051317  5.06358569
   2.92021825  2.86134235  6.60814421
   3.08559547  4.92770895  4.88362087
   0.64311456  4.86896810  6.87507566
   3.05343923  7.12606595  7.05052737
   0.85513575  6.87754301  4.93485683
   5.10142630  4.84225257  6.83315419
   0.90324464  2.57514334  5.10476376
   2.88968643  1.06469182  4.89493346
   6.70501865  6.77556190  6.80256471
   7.21161161  1.04252285  4.75701170
   4.82371049  0.93968311  7.18087436
   6.89978533  3.08088717  7.14678041
   4.83649608  2.81042465  4.72399741
   1.35111088  0.94322583  6.84745046
   5.05235281  6.82692961  5.20148902
   3.02416574  5.15045312  1.36032873
   6.80417178  2.92184316  2.89150173
   6.78704580  5.04013765  0.58032747
   4.78581718  4.68723870  3.20631764
   7.01143330  7.07725240  3.03180675
   4.57757123  7.09292008  0.71626087
   0.90015936  5.01433981  3.05279619
   5.01348292  2.80532979  1.03976740
 


--------------------------------------------------------------------------------------------------------


 k-point  1 :   0.0000 0.0000 0.0000  plane waves:   14243
 k-point  2 :   0.2500 0.0000 0.0000  plane waves:   14306
 k-point  3 :   0.5000 0.0000 0.0000  plane waves:   14286
 k-point  4 :   0.0000 0.2500 0.0000  plane waves:   14306
 k-point  5 :   0.2500 0.2500 0.0000  plane waves:   14335
 k-point  6 :   0.5000 0.2500 0.0000  plane waves:   14260
 k-point  7 :  -0.2500 0.2500 0.0000  plane waves:   14335
 k-point  8 :   0.0000 0.5000 0.0000  plane waves:   14286
 k-point  9 :   0.2500 0.5000 0.0000  plane waves:   14260
 k-point 10 :   0.5000 0.5000 0.0000  plane waves:   14332
 k-point 11 :   0.0000 0.0000 0.2500  plane waves:   14306
 k-point 12 :   0.2500 0.0000 0.2500  plane waves:   14335
 k-point 13 :   0.5000 0.0000 0.2500  plane waves:   14260
 k-point 14 :  -0.2500 0.0000 0.2500  plane waves:   14335
 k-point 15 :   0.0000 0.2500 0.2500  plane waves:   14335
 k-point 16 :   0.2500 0.2500 0.2500  plane waves:   14330
 k-point 17 :   0.5000 0.2500 0.2500  plane waves:   14288
 k-point 18 :  -0.2500 0.2500 0.2500  plane waves:   14330
 k-point 19 :   0.0000 0.5000 0.2500  plane waves:   14260
 k-point 20 :   0.2500 0.5000 0.2500  plane waves:   14288
 k-point 21 :   0.5000 0.5000 0.2500  plane waves:   14336
 k-point 22 :  -0.2500 0.5000 0.2500  plane waves:   14288
 k-point 23 :   0.0000-0.2500 0.2500  plane waves:   14335
 k-point 24 :   0.2500-0.2500 0.2500  plane waves:   14330
 k-point 25 :   0.5000-0.2500 0.2500  plane waves:   14288
 k-point 26 :  -0.2500-0.2500 0.2500  plane waves:   14330
 k-point 27 :   0.0000 0.0000 0.5000  plane waves:   14286
 k-point 28 :   0.2500 0.0000 0.5000  plane waves:   14260
 k-point 29 :   0.5000 0.0000 0.5000  plane waves:   14332
 k-point 30 :   0.0000 0.2500 0.5000  plane waves:   14260
 k-point 31 :   0.2500 0.2500 0.5000  plane waves:   14288
 k-point 32 :   0.5000 0.2500 0.5000  plane waves:   14336
 k-point 33 :  -0.2500 0.2500 0.5000  plane waves:   14288
 k-point 34 :   0.0000 0.5000 0.5000  plane waves:   14332
 k-point 35 :   0.2500 0.5000 0.5000  plane waves:   14336
 k-point 36 :   0.5000 0.5000 0.5000  plane waves:   14400

 maximum and minimum number of plane-waves per node :     14400    14243

 maximum number of plane-waves:     14400
 maximum index in each direction: 
   IXMAX=   15   IYMAX=   15   IZMAX=   15
   IXMIN=  -15   IYMIN=  -15   IZMIN=  -15

 The following grids will avoid any aliasing or wrap around errors in the Hartre
 e energy
  - symmetry arguments have not been applied
  - exchange correlation energies might require even more grid points
  - we recommend to set PREC=Normal or Accurate and rely on VASP defaults
 WARNING: aliasing errors must be expected set NGX to    64 to avoid them
 WARNING: aliasing errors must be expected set NGY to    64 to avoid them
 WARNING: aliasing errors must be expected set NGZ to    64 to avoid them

 serial   3D FFT for wavefunctions
 parallel 3D FFT for charge:
    minimum data exchange during FFTs selected (reduces bandwidth)


 total amount of memory used by VASP MPI-rank0   192732. kBytes
=======================================================================

   base      :      30000. kBytes
   nonlr-proj:      21502. kBytes
   fftplans  :       4751. kBytes
   grid      :      15225. kBytes
   one-center:        746. kBytes
   wavefun   :     120508. kBytes
 
     INWAV:  cpu time    0.0000: real time    0.0000
 Broyden mixing: mesh for mixing (old mesh)
   NGX = 31   NGY = 31   NGZ = 31
  (NGX  =120   NGY  =120   NGZ  =120)
  gives a total of  29791 points

 initial charge density was supplied:
 charge density of overlapping atoms calculated
 number of electron     352.0000000 magnetization 
 keeping initial charge density in first step


--------------------------------------------------------------------------------------------------------


 Maximum index for non-local projection operator         5006
 Maximum index for augmentation-charges          867 (set IRDMAX)


--------------------------------------------------------------------------------------------------------


 First call to EWALD:  gamma=   0.215
 Maximum number of real-space cells 3x 3x 3
 Maximum number of reciprocal cells 3x 3x 3

    FEWALD:  cpu time    0.0025: real time    0.0025


--------------------------------------- Iteration      1(   1)  ---------------------------------------


    POTLOK:  cpu time    0.0887: real time    0.1320
    SETDIJ:  cpu time    0.0070: real time    0.0071
     EDDAV:  cpu time   38.3545: real time   38.4455
    --------------------------------------------
      LOOP:  cpu time   38.4524: real time   38.5868

 eigenvalue-minimisations  : 16128
 total energy-change (2. order) : 0.4452092E+04  (-0.1554272E+05)
 number of electron     352.0000000 magnetization 
 augmentation part      352.0000000 magnetization 

 Free energy of the ion-electron system (eV)
  ---------------------------------------------------
  alpha Z        PSCENC =       972.54880997
  Ewald energy   TEWEN  =    -18838.90984339
  -Hartree energ DENC   =    -12609.72339196
  -exchange      EXHF   =         0.00000000
  -V(xc)+E(xc)   XCENC  =      1401.32331508
  PAW double counting   =     26475.20327555   -27591.76617206
  entropy T*S    EENTRO =        -0.00879068
  eigenvalues    EBANDS =      3629.75248342
  atomic energy  EATOM  =     31013.67235384
  Solvation  Ediel_sol  =         0.00000000
  ---------------------------------------------------
  free energy    TOTEN  =      4452.09203976 eV

  energy without entropy =     4452.10083045  energy(sigma->0) =     4452.09643510


--------------------------------------------------------------------------------------------------------




--------------------------------------- Iteration      1(   2)  ---------------------------------------


     EDDAV:  cpu time   39.4122: real time   39.5057
    --------------------------------------------
      LOOP:  cpu time   39.4119: real time   39.5054

 eigenvalue-minimisations  : 16784
 total energy-change (2. order) :-0.3897281E+04  (-0.3564001E+04)
 number of electron     352.0000000 magnetization 
 augmentation part      352.0000000 magnetization 

 Free energy of the ion-electron system (eV)
  ---------------------------------------------------
  alpha Z        PSCENC =       972.54880997
  Ewald energy   TEWEN  =    -18838.90984339
  -Hartree energ DENC   =    -12609.72339196
  -exchange      EXHF   =         0.00000000
  -V(xc)+E(xc)   XCENC  =      1401.32331508
  PAW double counting   =     26475.20327555   -27591.76617206
  entropy T*S    EENTRO =        -0.02730628
  eigenvalues    EBANDS =      -267.51036696
  atomic energy  EATOM  =     31013.67235384
  Solvation  Ediel_sol  =         0.00000000
  ---------------------------------------------------
  free energy    TOTEN  =       554.81067378 eV

  energy without entropy =      554.83798006  energy(sigma->0) =      554.82432692


--------------------------------------------------------------------------------------------------------




--------------------------------------- Iteration      1(   3)  ---------------------------------------


     EDDAV:  cpu time   40.3020: real time   40.4002
    --------------------------------------------
      LOOP:  cpu time   40.3021: real time   40.4003

 eigenvalue-minimisations  : 17472
 total energy-change (2. order) :-0.8704768E+03  (-0.7731382E+03)
 number of electron     352.0000000 magnetization 
 augmentation part      352.0000000 magnetization 

 Free energy of the ion-electron system (eV)
  ---------------------------------------------------
  alpha Z        PSCENC =       972.54880997
  Ewald energy   TEWEN  =    -18838.90984339
  -Hartree energ DENC   =    -12609.72339196
  -exchange      EXHF   =         0.00000000
  -V(xc)+E(xc)   XCENC  =      1401.32331508
  PAW double counting   =     26475.20327555   -27591.76617206
  entropy T*S    EENTRO =        -0.00569394
  eigenvalues    EBANDS =     -1138.00881989
  atomic energy  EATOM  =     31013.67235384
  Solvation  Ediel_sol  =         0.00000000
  ---------------------------------------------------
  free energy    TOTEN  =      -315.66616680 eV

  energy without entropy =     -315.66047286  energy(sigma->0) =     -315.66331983


--------------------------------------------------------------------------------------------------------




--------------------------------------- Iteration      1(   4)  ---------------------------------------


     EDDAV:  cpu time   40.4329: real time   40.5287
    --------------------------------------------
      LOOP:  cpu time   40.4329: real time   40.5287

 eigenvalue-minimisations  : 17280
 total energy-change (2. order) :-0.8154412E+02  (-0.7975160E+02)
 number of electron     352.0000000 magnetization 
 augmentation part      352.0000000 magnetization 

 Free energy of the ion-electron system (eV)
  ---------------------------------------------------
  alpha Z        PSCENC =       972.54880997
  Ewald energy   TEWEN  =    -18838.90984339
  -Hartree energ DENC   =    -12609.72339196
  -exchange      EXHF   =         0.00000000
  -V(xc)+E(xc)   XCENC  =      1401.32331508
  PAW double counting   =     26475.20327555   -27591.76617206
  entropy T*S    EENTRO =        -0.00266619
  eigenvalues    EBANDS =     -1219.55596756
  atomic energy  EATOM  =     31013.67235384
  Solvation  Ediel_sol  =         0.00000000
  ---------------------------------------------------
  free energy    TOTEN  =      -397.21028672 eV

  energy without entropy =     -397.20762053  energy(sigma->0) =     -397.20895363


--------------------------------------------------------------------------------------------------------




--------------------------------------- Iteration      1(   5)  ---------------------------------------


     EDDAV:  cpu time   41.4037: real time   41.5017
    CHARGE:  cpu time    1.8255: real time    1.8298
    MIXING:  cpu time    0.0023: real time    0.0023
    --------------------------------------------
      LOOP:  cpu time   43.2295: real time   43.3319

 eigenvalue-minimisations  : 17824
 total energy-change (2. order) :-0.2424679E+01  (-0.2413124E+01)
 number of electron     352.0000001 magnetization 
 augmentation part       99.4521317 magnetization 

 Broyden mixing:
  rms(total) = 0.11700E+02    rms(broyden)= 0.11695E+02
  rms(prec ) = 0.15366E+02
  weight for this iteration     100.00

 Free energy of the ion-electron system (eV)
  ---------------------------------------------------
  alpha Z        PSCENC =       972.54880997
  Ewald energy   TEWEN  =    -18838.90984339
  -Hartree energ DENC   =    -12609.72339196
  -exchange      EXHF   =         0.00000000
  -V(xc)+E(xc)   XCENC  =      1401.32331508
  PAW double counting   =     26475.20327555   -27591.76617206
  entropy T*S    EENTRO =        -0.00280540
  eigenvalues    EBANDS =     -1221.98050743
  atomic energy  EATOM  =     31013.67235384
  Solvation  Ediel_sol  =         0.00000000
  ---------------------------------------------------
  free energy    TOTEN  =      -399.63496581 eV

  energy without entropy =     -399.63216041  energy(sigma->0) =     -399.63356311


--------------------------------------------------------------------------------------------------------




--------------------------------------- Iteration      1(   6)  ---------------------------------------


    POTLOK:  cpu time    0.0629: real time    0.0631
    SETDIJ:  cpu time    0.0068: real time    0.0068
     EDDAV:  cpu time   54.9875: real time   55.1179
    CHARGE:  cpu time    1.8300: real time    1.8344
    MIXING:  cpu time    0.0022: real time    0.0023
    --------------------------------------------
      LOOP:  cpu time   56.8895: real time   57.0244

 eigenvalue-minimisations  : 25264
 total energy-change (2. order) :-0.1775230E+03  (-0.1056434E+03)
 number of electron     351.9999971 magnetization 
 augmentation part      140.1980319 magnetization 

 Broyden mixing:
  rms(total) = 0.23278E+02    rms(broyden)= 0.23276E+02
  rms(prec ) = 0.27387E+02
  weight for this iteration     100.00

 eigenvalues of (default mixing * dielectric matrix)
  average eigenvalue GAMMA=   0.1436
  0.1436

 Free energy of the ion-electron system (eV)
  ---------------------------------------------------
  alpha Z        PSCENC =       972.54880997
  Ewald energy   TEWEN  =    -18838.90984339
  -Hartree energ DENC   =    -11935.06330728
  -exchange      EXHF   =         0.00000000
  -V(xc)+E(xc)   XCENC  =      1396.88513527
  PAW double counting   =     28804.40248390   -29720.01379627
  entropy T*S    EENTRO =        -0.03820539
  eigenvalues    EBANDS =     -2270.64164532
  atomic energy  EATOM  =     31013.67235384
  Solvation  Ediel_sol  =         0.00000000
  ---------------------------------------------------
  free energy    TOTEN  =      -577.15801468 eV

  energy without entropy =     -577.11980929  energy(sigma->0) =     -577.13891198


--------------------------------------------------------------------------------------------------------




--------------------------------------- Iteration      1(   7)  ---------------------------------------


    POTLOK:  cpu time    0.0635: real time    0.0636
    SETDIJ:  cpu time    0.0066: real time    0.0066
     EDDAV:  cpu time   47.2973: real time   47.4093
    CHARGE:  cpu time    1.7927: real time    1.7970
    MIXING:  cpu time    0.0021: real time    0.0021
    --------------------------------------------
      LOOP:  cpu time   49.1622: real time   49.2786

 eigenvalue-minimisations  : 21312
 total energy-change (2. order) : 0.2386904E+03  (-0.2863581E+02)
 number of electron     351.9999973 magnetization 
 augmentation part      128.7405319 magnetization 

 Broyden mixing:
  rms(total) = 0.94822E+01    rms(broyden)= 0.94808E+01
  rms(prec ) = 0.12765E+02
  weight for this iteration     100.00

 eigenvalues of (default mixing * dielectric matrix)
  average eigenvalue GAMMA=   0.4804
  0.4804  0.4804

 Free energy of the ion-electron system (eV)
  ---------------------------------------------------
  alpha Z        PSCENC =       972.54880997
  Ewald energy   TEWEN  =    -18838.90984339
  -Hartree energ DENC   =    -12210.77973105
  -exchange      EXHF   =         0.00000000
  -V(xc)+E(xc)   XCENC  =      1400.82526916
  PAW double counting   =     30063.17845876   -31104.94455434
  entropy T*S    EENTRO =        -0.04123291
  eigenvalues    EBANDS =     -1634.01709687
  atomic energy  EATOM  =     31013.67235384
  Solvation  Ediel_sol  =         0.00000000
  ---------------------------------------------------
  free energy    TOTEN  =      -338.46756685 eV

  energy without entropy =     -338.42633394  energy(sigma->0) =     -338.44695039


--------------------------------------------------------------------------------------------------------




--------------------------------------- Iteration      1(   8)  ---------------------------------------


    POTLOK:  cpu time    0.0633: real time    0.0634
    SETDIJ:  cpu time    0.0067: real time    0.0068
     EDDAV:  cpu time   56.5570: real time   56.6941
    CHARGE:  cpu time    1.7975: real time    1.8018
    MIXING:  cpu time    0.0022: real time    0.0022
    --------------------------------------------
      LOOP:  cpu time   58.4269: real time   58.5683

 eigenvalue-minimisations  : 26112
 total energy-change (2. order) : 0.3997870E+01  (-0.1734469E+02)
 number of electron     351.9999983 magnetization 
 augmentation part      124.0731178 magnetization 

 Broyden mixing:
  rms(total) = 0.11956E+02    rms(broyden)= 0.11954E+02
  rms(prec ) = 0.17135E+02
  weight for this iteration     100.00

 eigenvalues of (default mixing * dielectric matrix)
  average eigenvalue GAMMA=   0.4648
  0.6030  0.6030  0.1883

 Free energy of the ion-electron system (eV)
  ---------------------------------------------------
  alpha Z        PSCENC =       972.54880997
  Ewald energy   TEWEN  =    -18838.90984339
  -Hartree energ DENC   =    -12259.46423271
  -exchange      EXHF   =         0.00000000
  -V(xc)+E(xc)   XCENC  =      1398.54376851
  PAW double counting   =     30874.58749711   -31998.40444513
  entropy T*S    EENTRO =        -0.03653740
  eigenvalues    EBANDS =     -1497.00706792
  atomic energy  EATOM  =     31013.67235384
  Solvation  Ediel_sol  =         0.00000000
  ---------------------------------------------------
  free energy    TOTEN  =      -334.46969712 eV

  energy without entropy =     -334.43315972  energy(sigma->0) =     -334.45142842


--------------------------------------------------------------------------------------------------------




--------------------------------------- Iteration      1(   9)  ---------------------------------------


    POTLOK:  cpu time    0.0633: real time    0.0634
    SETDIJ:  cpu time    0.0071: real time    0.0071
     EDDAV:  cpu time   46.5559: real time   46.6663
    CHARGE:  cpu time    1.8335: real time    1.8379
    MIXING:  cpu time    0.0026: real time    0.0026
    --------------------------------------------
      LOOP:  cpu time   48.4623: real time   48.5773

 eigenvalue-minimisations  : 20800
 total energy-change (2. order) : 0.5598262E+01  (-0.1563434E+02)
 number of electron     351.9999987 magnetization 
 augmentation part      106.7718440 magnetization 

 Broyden mixing:
  rms(total) = 0.10788E+02    rms(broyden)= 0.10786E+02
  rms(prec ) = 0.16426E+02
  weight for this iteration     100.00

 eigenvalues of (default mixing * dielectric matrix)
  average eigenvalue GAMMA=   0.4215
  0.7888  0.5102  0.1985  0.1885

 Free energy of the ion-electron system (eV)
  ---------------------------------------------------
  alpha Z        PSCENC =       972.54880997
  Ewald energy   TEWEN  =    -18838.90984339
  -Hartree energ DENC   =    -12335.05440901
  -exchange      EXHF   =         0.00000000
  -V(xc)+E(xc)   XCENC  =      1397.00474496
  PAW double counting   =     31817.31863379   -32976.55923569
  entropy T*S    EENTRO =        -0.07518857
  eigenvalues    EBANDS =     -1378.81730091
  atomic energy  EATOM  =     31013.67235384
  Solvation  Ediel_sol  =         0.00000000
  ---------------------------------------------------
  free energy    TOTEN  =      -328.87143502 eV

  energy without entropy =     -328.79624645  energy(sigma->0) =     -328.83384073


--------------------------------------------------------------------------------------------------------




--------------------------------------- Iteration      1(  10)  ---------------------------------------


    POTLOK:  cpu time    0.0632: real time    0.0634
    SETDIJ:  cpu time    0.0068: real time    0.0068
     EDDAV:  cpu time   49.7613: real time   49.8792
    CHARGE:  cpu time    1.8233: real time    1.8276
    MIXING:  cpu time    0.0023: real time    0.0023
    --------------------------------------------
      LOOP:  cpu time   51.6569: real time   51.7794

 eigenvalue-minimisations  : 22432
 total energy-change (2. order) : 0.1134083E+02  (-0.8669237E+01)
 number of electron     351.9999968 magnetization 
 augmentation part      107.2571062 magnetization 

 Broyden mixing:
  rms(total) = 0.95561E+01    rms(broyden)= 0.95552E+01
  rms(prec ) = 0.15257E+02
  weight for this iteration     100.00

 eigenvalues of (default mixing * dielectric matrix)
  average eigenvalue GAMMA=   0.4250
  1.1456  0.3297  0.3297  0.2298  0.0904

 Free energy of the ion-electron system (eV)
  ---------------------------------------------------
  alpha Z        PSCENC =       972.54880997
  Ewald energy   TEWEN  =    -18838.90984339
  -Hartree energ DENC   =    -12317.05112876
  -exchange      EXHF   =         0.00000000
  -V(xc)+E(xc)   XCENC  =      1396.01279542
  PAW double counting   =     32423.06093987   -33592.68972811
  entropy T*S    EENTRO =        -0.06403192
  eigenvalues    EBANDS =     -1374.11076809
  atomic energy  EATOM  =     31013.67235384
  Solvation  Ediel_sol  =         0.00000000
  ---------------------------------------------------
  free energy    TOTEN  =      -317.53060117 eV

  energy without entropy =     -317.46656926  energy(sigma->0) =     -317.49858522


--------------------------------------------------------------------------------------------------------




--------------------------------------- Iteration      1(  11)  ---------------------------------------


    POTLOK:  cpu time    0.0639: real time    0.0641
    SETDIJ:  cpu time    0.0065: real time    0.0066
     EDDAV:  cpu time   49.1622: real time   49.2788
    CHARGE:  cpu time    1.8088: real time    1.8131
    MIXING:  cpu time    0.0026: real time    0.0026
    --------------------------------------------
      LOOP:  cpu time   51.0441: real time   51.1651

 eigenvalue-minimisations  : 22288
 total energy-change (2. order) : 0.2359574E+02  (-0.4439073E+01)
 number of electron     351.9999963 magnetization 
 augmentation part      109.5631456 magnetization 

 Broyden mixing:
  rms(total) = 0.72298E+01    rms(broyden)= 0.72287E+01
  rms(prec ) = 0.11182E+02
  weight for this iteration     100.00

 eigenvalues of (default mixing * dielectric matrix)
  average eigenvalue GAMMA=   0.4397
  1.4360  0.3775  0.3775  0.2533  0.1077  0.0859

 Free energy of the ion-electron system (eV)
  ---------------------------------------------------
  alpha Z        PSCENC =       972.54880997
  Ewald energy   TEWEN  =    -18838.90984339
  -Hartree energ DENC   =    -12286.29258686
  -exchange      EXHF   =         0.00000000
  -V(xc)+E(xc)   XCENC  =      1395.36773641
  PAW double counting   =     32949.71625655   -34123.32053536
  entropy T*S    EENTRO =        -0.06384394
  eigenvalues    EBANDS =     -1376.65321006
  atomic energy  EATOM  =     31013.67235384
  Solvation  Ediel_sol  =         0.00000000
  ---------------------------------------------------
  free energy    TOTEN  =      -293.93486284 eV

  energy without entropy =     -293.87101890  energy(sigma->0) =     -293.90294087


--------------------------------------------------------------------------------------------------------




--------------------------------------- Iteration      1(  12)  ---------------------------------------


    POTLOK:  cpu time    0.0627: real time    0.0629
    SETDIJ:  cpu time    0.0068: real time    0.0068
     EDDAV:  cpu time   50.1117: real time   50.2304
    CHARGE:  cpu time    1.7902: real time    1.7944
    MIXING:  cpu time    0.0025: real time    0.0025
    --------------------------------------------
      LOOP:  cpu time   51.9738: real time   52.0970

 eigenvalue-minimisations  : 22576
 total energy-change (2. order) : 0.1186923E+02  (-0.3295306E+01)
 number of electron     351.9999998 magnetization 
 augmentation part      112.4508080 magnetization 

 Broyden mixing:
  rms(total) = 0.50333E+01    rms(broyden)= 0.50321E+01
  rms(prec ) = 0.78523E+01
  weight for this iteration     100.00

 eigenvalues of (default mixing * dielectric matrix)
  average eigenvalue GAMMA=   0.4291
  1.5402  0.4085  0.4085  0.3158  0.1609  0.0850  0.0850

 Free energy of the ion-electron system (eV)
  ---------------------------------------------------
  alpha Z        PSCENC =       972.54880997
  Ewald energy   TEWEN  =    -18838.90984339
  -Hartree energ DENC   =    -12248.41642297
  -exchange      EXHF   =         0.00000000
  -V(xc)+E(xc)   XCENC  =      1394.91141220
  PAW double counting   =     33434.31689442   -34608.12029578
  entropy T*S    EENTRO =        -0.06313458
  eigenvalues    EBANDS =     -1402.00540974
  atomic energy  EATOM  =     31013.67235384
  Solvation  Ediel_sol  =         0.00000000
  ---------------------------------------------------
  free energy    TOTEN  =      -282.06563604 eV

  energy without entropy =     -282.00250146  energy(sigma->0) =     -282.03406875


--------------------------------------------------------------------------------------------------------




--------------------------------------- Iteration      1(  13)  ---------------------------------------


    POTLOK:  cpu time    0.0637: real time    0.0638
    SETDIJ:  cpu time    0.0066: real time    0.0066
     EDDAV:  cpu time   50.6946: real time   50.8149
    CHARGE:  cpu time    1.7943: real time    1.7986
    MIXING:  cpu time    0.0028: real time    0.0028
    --------------------------------------------
      LOOP:  cpu time   52.5620: real time   52.6868

 eigenvalue-minimisations  : 23168
 total energy-change (2. order) : 0.3464614E+01  (-0.2221788E+01)
 number of electron     351.9999983 magnetization 
 augmentation part      114.3867595 magnetization 

 Broyden mixing:
  rms(total) = 0.34573E+01    rms(broyden)= 0.34564E+01
  rms(prec ) = 0.52218E+01
  weight for this iteration     100.00

 eigenvalues of (default mixing * dielectric matrix)
  average eigenvalue GAMMA=   0.4125
  1.5082  0.4403  0.4403  0.4450  0.1942  0.0906  0.0906  0.0910

 Free energy of the ion-electron system (eV)
  ---------------------------------------------------
  alpha Z        PSCENC =       972.54880997
  Ewald energy   TEWEN  =    -18838.90984339
  -Hartree energ DENC   =    -12237.63852186
  -exchange      EXHF   =         0.00000000
  -V(xc)+E(xc)   XCENC  =      1394.88959319
  PAW double counting   =     33641.85947021   -34814.69446323
  entropy T*S    EENTRO =        -0.04185077
  eigenvalues    EBANDS =     -1410.28657007
  atomic energy  EATOM  =     31013.67235384
  Solvation  Ediel_sol  =         0.00000000
  ---------------------------------------------------
  free energy    TOTEN  =      -278.60102211 eV

  energy without entropy =     -278.55917134  energy(sigma->0) =     -278.58009673


--------------------------------------------------------------------------------------------------------




--------------------------------------- Iteration      1(  14)  ---------------------------------------


    POTLOK:  cpu time    0.0631: real time    0.0632
    SETDIJ:  cpu time    0.0067: real time    0.0067
     EDDAV:  cpu time   51.7024: real time   51.8249
    CHARGE:  cpu time    1.7858: real time    1.7900
    MIXING:  cpu time    0.0030: real time    0.0030
    --------------------------------------------
      LOOP:  cpu time   53.5609: real time   53.6878

 eigenvalue-minimisations  : 23520
 total energy-change (2. order) : 0.6625911E+01  (-0.6363922E+00)
 number of electron     351.9999986 magnetization 
 augmentation part      114.8740760 magnetization 

 Broyden mixing:
  rms(total) = 0.20428E+01    rms(broyden)= 0.20417E+01
  rms(prec ) = 0.30769E+01
  weight for this iteration     100.00

 eigenvalues of (default mixing * dielectric matrix)
  average eigenvalue GAMMA=   0.3909
  1.4570  0.4576  0.4576  0.4364  0.2102  0.2102  0.1222  0.0836  0.0836

 Free energy of the ion-electron system (eV)
  ---------------------------------------------------
  alpha Z        PSCENC =       972.54880997
  Ewald energy   TEWEN  =    -18838.90984339
  -Hartree energ DENC   =    -12239.11384826
  -exchange      EXHF   =         0.00000000
  -V(xc)+E(xc)   XCENC  =      1395.25699505
  PAW double counting   =     33729.84888769   -34901.04657001
  entropy T*S    EENTRO =        -0.02558563
  eigenvalues    EBANDS =     -1404.20630997
  atomic energy  EATOM  =     31013.67235384
  Solvation  Ediel_sol  =         0.00000000
  ---------------------------------------------------
  free energy    TOTEN  =      -271.97511071 eV

  energy without entropy =     -271.94952508  energy(sigma->0) =     -271.96231790


--------------------------------------------------------------------------------------------------------




--------------------------------------- Iteration      1(  15)  ---------------------------------------


    POTLOK:  cpu time    0.0629: real time    0.0630
    SETDIJ:  cpu time    0.0070: real time    0.0070
     EDDAV:  cpu time   51.9416: real time   52.0647
    CHARGE:  cpu time    1.8256: real time    1.8299
    MIXING:  cpu time    0.0029: real time    0.0029
    --------------------------------------------
      LOOP:  cpu time   53.8399: real time   53.9675

 eigenvalue-minimisations  : 23664
 total energy-change (2. order) : 0.1897832E+01  (-0.3373748E+00)
 number of electron     351.9999991 magnetization 
 augmentation part      114.4680748 magnetization 

 Broyden mixing:
  rms(total) = 0.14414E+01    rms(broyden)= 0.14409E+01
  rms(prec ) = 0.20796E+01
  weight for this iteration     100.00

 eigenvalues of (default mixing * dielectric matrix)
  average eigenvalue GAMMA=   0.3960
  1.5028  0.5285  0.5285  0.3649  0.3649  0.2403  0.1476  0.1135  0.0844  0.0844

 Free energy of the ion-electron system (eV)
  ---------------------------------------------------
  alpha Z        PSCENC =       972.54880997
  Ewald energy   TEWEN  =    -18838.90984339
  -Hartree energ DENC   =    -12243.36269920
  -exchange      EXHF   =         0.00000000
  -V(xc)+E(xc)   XCENC  =      1395.50224377
  PAW double counting   =     33737.50318682   -34907.55205447
  entropy T*S    EENTRO =        -0.02415424
  eigenvalues    EBANDS =     -1399.45512158
  atomic energy  EATOM  =     31013.67235384
  Solvation  Ediel_sol  =         0.00000000
  ---------------------------------------------------
  free energy    TOTEN  =      -270.07727849 eV

  energy without entropy =     -270.05312425  energy(sigma->0) =     -270.06520137


--------------------------------------------------------------------------------------------------------




--------------------------------------- Iteration      1(  16)  ---------------------------------------


    POTLOK:  cpu time    0.0629: real time    0.0630
    SETDIJ:  cpu time    0.0069: real time    0.0069
     EDDAV:  cpu time   52.8080: real time   52.9331
    CHARGE:  cpu time    1.8149: real time    1.8192
    MIXING:  cpu time    0.0032: real time    0.0032
    --------------------------------------------
      LOOP:  cpu time   54.6959: real time   54.8255

 eigenvalue-minimisations  : 24256
 total energy-change (2. order) : 0.5971549E+00  (-0.1504099E+00)
 number of electron     351.9999987 magnetization 
 augmentation part      114.8282746 magnetization 

 Broyden mixing:
  rms(total) = 0.13042E+01    rms(broyden)= 0.13039E+01
  rms(prec ) = 0.19060E+01
  weight for this iteration     100.00

 eigenvalues of (default mixing * dielectric matrix)
  average eigenvalue GAMMA=   0.4176
  1.6484  0.6434  0.6434  0.4074  0.4074  0.2515  0.1544  0.1544  0.1154  0.0841
  0.0841

 Free energy of the ion-electron system (eV)
  ---------------------------------------------------
  alpha Z        PSCENC =       972.54880997
  Ewald energy   TEWEN  =    -18838.90984339
  -Hartree energ DENC   =    -12242.16073858
  -exchange      EXHF   =         0.00000000
  -V(xc)+E(xc)   XCENC  =      1395.56336209
  PAW double counting   =     33816.13519775   -34985.63930387
  entropy T*S    EENTRO =        -0.05382234
  eigenvalues    EBANDS =     -1400.63613903
  atomic energy  EATOM  =     31013.67235384
  Solvation  Ediel_sol  =         0.00000000
  ---------------------------------------------------
  free energy    TOTEN  =      -269.48012357 eV

  energy without entropy =     -269.42630123  energy(sigma->0) =     -269.45321240


--------------------------------------------------------------------------------------------------------




--------------------------------------- Iteration      1(  17)  ---------------------------------------


    POTLOK:  cpu time    0.0636: real time    0.0638
    SETDIJ:  cpu time    0.0068: real time    0.0068
     EDDAV:  cpu time   50.0701: real time   50.1888
    CHARGE:  cpu time    1.8214: real time    1.8257
    MIXING:  cpu time    0.0032: real time    0.0032
    --------------------------------------------
      LOOP:  cpu time   51.9651: real time   52.0883

 eigenvalue-minimisations  : 22656
 total energy-change (2. order) : 0.3083318E+00  (-0.1465136E+00)
 number of electron     351.9999989 magnetization 
 augmentation part      115.2867513 magnetization 

 Broyden mixing:
  rms(total) = 0.97073E+00    rms(broyden)= 0.97025E+00
  rms(prec ) = 0.14249E+01
  weight for this iteration     100.00

 eigenvalues of (default mixing * dielectric matrix)
  average eigenvalue GAMMA=   0.4333
  1.7189  0.7720  0.7720  0.4220  0.4220  0.3280  0.2010  0.1717  0.0841  0.0841
  0.1118  0.1118

 Free energy of the ion-electron system (eV)
  ---------------------------------------------------
  alpha Z        PSCENC =       972.54880997
  Ewald energy   TEWEN  =    -18838.90984339
  -Hartree energ DENC   =    -12235.76134851
  -exchange      EXHF   =         0.00000000
  -V(xc)+E(xc)   XCENC  =      1395.51746466
  PAW double counting   =     33949.60359775   -35118.81976708
  entropy T*S    EENTRO =        -0.01548789
  eigenvalues    EBANDS =     -1407.00757110
  atomic energy  EATOM  =     31013.67235384
  Solvation  Ediel_sol  =         0.00000000
  ---------------------------------------------------
  free energy    TOTEN  =      -269.17179176 eV

  energy without entropy =     -269.15630387  energy(sigma->0) =     -269.16404781


--------------------------------------------------------------------------------------------------------




--------------------------------------- Iteration      1(  18)  ---------------------------------------


    POTLOK:  cpu time    0.0629: real time    0.0630
    SETDIJ:  cpu time    0.0069: real time    0.0069
     EDDAV:  cpu time   53.9783: real time   54.1063
    CHARGE:  cpu time    1.8244: real time    1.8287
    MIXING:  cpu time    0.0034: real time    0.0034
    --------------------------------------------
      LOOP:  cpu time   55.8759: real time   56.0084

 eigenvalue-minimisations  : 24960
 total energy-change (2. order) : 0.2469242E+00  (-0.4707351E-01)
 number of electron     351.9999990 magnetization 
 augmentation part      115.6157862 magnetization 

 Broyden mixing:
  rms(total) = 0.84944E+00    rms(broyden)= 0.84913E+00
  rms(prec ) = 0.12404E+01
  weight for this iteration     100.00

 eigenvalues of (default mixing * dielectric matrix)
  average eigenvalue GAMMA=   0.4565
  1.7814  0.9255  0.9255  0.4913  0.4283  0.4283  0.2012  0.2012  0.1526  0.0841
  0.0841  0.1158  0.1158

 Free energy of the ion-electron system (eV)
  ---------------------------------------------------
  alpha Z        PSCENC =       972.54880997
  Ewald energy   TEWEN  =    -18838.90984339
  -Hartree energ DENC   =    -12233.05362584
  -exchange      EXHF   =         0.00000000
  -V(xc)+E(xc)   XCENC  =      1395.52213318
  PAW double counting   =     34074.91729593   -35244.31071154
  entropy T*S    EENTRO =        -0.02249109
  eigenvalues    EBANDS =     -1409.28878862
  atomic energy  EATOM  =     31013.67235384
  Solvation  Ediel_sol  =         0.00000000
  ---------------------------------------------------
  free energy    TOTEN  =      -268.92486757 eV

  energy without entropy =     -268.90237648  energy(sigma->0) =     -268.91362203


--------------------------------------------------------------------------------------------------------




--------------------------------------- Iteration      1(  19)  ---------------------------------------


    POTLOK:  cpu time    0.0624: real time    0.0626
    SETDIJ:  cpu time    0.0069: real time    0.0069
     EDDAV:  cpu time   55.0655: real time   55.1960
    CHARGE:  cpu time    1.7851: real time    1.7893
    MIXING:  cpu time    0.0033: real time    0.0034
    --------------------------------------------
      LOOP:  cpu time   56.9233: real time   57.0582

 eigenvalue-minimisations  : 25600
 total energy-change (2. order) : 0.1661487E+00  (-0.3639029E-01)
 number of electron     351.9999989 magnetization 
 augmentation part      115.5396597 magnetization 

 Broyden mixing:
  rms(total) = 0.66028E+00    rms(broyden)= 0.66002E+00
  rms(prec ) = 0.96930E+00
  weight for this iteration     100.00

 eigenvalues of (default mixing * dielectric matrix)
  average eigenvalue GAMMA=   0.4839
  1.9038  1.0721  1.0721  0.6395  0.4257  0.4257  0.2862  0.2246  0.1694  0.1616
  0.0841  0.0841  0.1130  0.1130

 Free energy of the ion-electron system (eV)
  ---------------------------------------------------
  alpha Z        PSCENC =       972.54880997
  Ewald energy   TEWEN  =    -18838.90984339
  -Hartree energ DENC   =    -12233.93167922
  -exchange      EXHF   =         0.00000000
  -V(xc)+E(xc)   XCENC  =      1395.57819506
  PAW double counting   =     34186.48612225   -35356.11717747
  entropy T*S    EENTRO =        -0.01330960
  eigenvalues    EBANDS =     -1408.07219028
  atomic energy  EATOM  =     31013.67235384
  Solvation  Ediel_sol  =         0.00000000
  ---------------------------------------------------
  free energy    TOTEN  =      -268.75871884 eV

  energy without entropy =     -268.74540924  energy(sigma->0) =     -268.75206404


--------------------------------------------------------------------------------------------------------




--------------------------------------- Iteration      1(  20)  ---------------------------------------


    POTLOK:  cpu time    0.0634: real time    0.0635
    SETDIJ:  cpu time    0.0068: real time    0.0068
     EDDAV:  cpu time   52.8707: real time   52.9961
    CHARGE:  cpu time    1.8298: real time    1.8341
    MIXING:  cpu time    0.0035: real time    0.0035
    --------------------------------------------
      LOOP:  cpu time   54.7742: real time   54.9041

 eigenvalue-minimisations  : 24192
 total energy-change (2. order) : 0.1356850E+00  (-0.2020150E-01)
 number of electron     351.9999988 magnetization 
 augmentation part      115.6700450 magnetization 

 Broyden mixing:
  rms(total) = 0.52260E+00    rms(broyden)= 0.52242E+00
  rms(prec ) = 0.78343E+00
  weight for this iteration     100.00

 eigenvalues of (default mixing * dielectric matrix)
  average eigenvalue GAMMA=   0.4880
  2.0201  1.1026  1.1026  0.6668  0.4209  0.4209  0.4345  0.2403  0.1952  0.1735
  0.0841  0.0841  0.1473  0.1134  0.1134

 Free energy of the ion-electron system (eV)
  ---------------------------------------------------
  alpha Z        PSCENC =       972.54880997
  Ewald energy   TEWEN  =    -18838.90984339
  -Hartree energ DENC   =    -12234.99329529
  -exchange      EXHF   =         0.00000000
  -V(xc)+E(xc)   XCENC  =      1395.66201773
  PAW double counting   =     34327.73221282   -35497.94346051
  entropy T*S    EENTRO =        -0.01998131
  eigenvalues    EBANDS =     -1406.37184775
  atomic energy  EATOM  =     31013.67235384
  Solvation  Ediel_sol  =         0.00000000
  ---------------------------------------------------
  free energy    TOTEN  =      -268.62303389 eV

  energy without entropy =     -268.60305258  energy(sigma->0) =     -268.61304323


--------------------------------------------------------------------------------------------------------




--------------------------------------- Iteration      1(  21)  ---------------------------------------


    POTLOK:  cpu time    0.0634: real time    0.0636
    SETDIJ:  cpu time    0.0073: real time    0.0073
     EDDAV:  cpu time   51.9966: real time   52.1199
    CHARGE:  cpu time    1.8289: real time    1.8333
    MIXING:  cpu time    0.0039: real time    0.0039
    --------------------------------------------
      LOOP:  cpu time   53.9003: real time   54.0280

 eigenvalue-minimisations  : 23744
 total energy-change (2. order) : 0.5391645E-01  (-0.1942220E-01)
 number of electron     351.9999988 magnetization 
 augmentation part      115.6296077 magnetization 

 Broyden mixing:
  rms(total) = 0.38867E+00    rms(broyden)= 0.38852E+00
  rms(prec ) = 0.58030E+00
  weight for this iteration     100.00

 eigenvalues of (default mixing * dielectric matrix)
  average eigenvalue GAMMA=   0.4985
  2.1475  1.1439  1.1439  0.6739  0.6739  0.4189  0.4189  0.2632  0.2008  0.2008
  0.0841  0.0841  0.1481  0.1481  0.1130  0.1130

 Free energy of the ion-electron system (eV)
  ---------------------------------------------------
  alpha Z        PSCENC =       972.54880997
  Ewald energy   TEWEN  =    -18838.90984339
  -Hartree energ DENC   =    -12236.67125051
  -exchange      EXHF   =         0.00000000
  -V(xc)+E(xc)   XCENC  =      1395.72503593
  PAW double counting   =     34387.29722272   -35557.52696791
  entropy T*S    EENTRO =        -0.02105236
  eigenvalues    EBANDS =     -1404.68342572
  atomic energy  EATOM  =     31013.67235384
  Solvation  Ediel_sol  =         0.00000000
  ---------------------------------------------------
  free energy    TOTEN  =      -268.56911744 eV

  energy without entropy =     -268.54806508  energy(sigma->0) =     -268.55859126


--------------------------------------------------------------------------------------------------------




--------------------------------------- Iteration      1(  22)  ---------------------------------------


    POTLOK:  cpu time    0.0629: real time    0.0631
    SETDIJ:  cpu time    0.0068: real time    0.0068
     EDDAV:  cpu time   52.3724: real time   52.4966
    CHARGE:  cpu time    1.8094: real time    1.8137
    MIXING:  cpu time    0.0038: real time    0.0038
    --------------------------------------------
      LOOP:  cpu time   54.2553: real time   54.3840

 eigenvalue-minimisations  : 24064
 total energy-change (2. order) : 0.4133810E-01  (-0.9692479E-02)
 number of electron     351.9999988 magnetization 
 augmentation part      115.6800172 magnetization 

 Broyden mixing:
  rms(total) = 0.26480E+00    rms(broyden)= 0.26470E+00
  rms(prec ) = 0.38423E+00
  weight for this iteration     100.00

 eigenvalues of (default mixing * dielectric matrix)
  average eigenvalue GAMMA=   0.5083
  2.1951  1.2579  1.2579  0.7128  0.7128  0.4225  0.4225  0.3281  0.2348  0.2348
  0.1732  0.0841  0.0841  0.1568  0.1132  0.1132  0.1372

 Free energy of the ion-electron system (eV)
  ---------------------------------------------------
  alpha Z        PSCENC =       972.54880997
  Ewald energy   TEWEN  =    -18838.90984339
  -Hartree energ DENC   =    -12237.43878921
  -exchange      EXHF   =         0.00000000
  -V(xc)+E(xc)   XCENC  =      1395.77816153
  PAW double counting   =     34429.30848611   -35599.42667197
  entropy T*S    EENTRO =        -0.02096877
  eigenvalues    EBANDS =     -1404.03931744
  atomic energy  EATOM  =     31013.67235384
  Solvation  Ediel_sol  =         0.00000000
  ---------------------------------------------------
  free energy    TOTEN  =      -268.52777934 eV

  energy without entropy =     -268.50681057  energy(sigma->0) =     -268.51729495


--------------------------------------------------------------------------------------------------------




--------------------------------------- Iteration      1(  23)  ---------------------------------------


    POTLOK:  cpu time    0.0630: real time    0.0632
    SETDIJ:  cpu time    0.0069: real time    0.0069
     EDDAV:  cpu time   51.8927: real time   52.0157
    CHARGE:  cpu time    1.8266: real time    1.8309
    MIXING:  cpu time    0.0038: real time    0.0038
    --------------------------------------------
      LOOP:  cpu time   53.7930: real time   53.9205

 eigenvalue-minimisations  : 23616
 total energy-change (2. order) : 0.3961692E-02  (-0.4261569E-02)
 number of electron     351.9999989 magnetization 
 augmentation part      115.7047967 magnetization 

 Broyden mixing:
  rms(total) = 0.23518E+00    rms(broyden)= 0.23515E+00
  rms(prec ) = 0.35220E+00
  weight for this iteration     100.00

 eigenvalues of (default mixing * dielectric matrix)
  average eigenvalue GAMMA=   0.5165
  2.3101  1.3177  1.3177  0.7657  0.7657  0.4256  0.4256  0.4194  0.2498  0.2498
  0.1845  0.1845  0.0841  0.0841  0.1131  0.1131  0.1435  0.1435

 Free energy of the ion-electron system (eV)
  ---------------------------------------------------
  alpha Z        PSCENC =       972.54880997
  Ewald energy   TEWEN  =    -18838.90984339
  -Hartree energ DENC   =    -12237.71287465
  -exchange      EXHF   =         0.00000000
  -V(xc)+E(xc)   XCENC  =      1395.80431775
  PAW double counting   =     34446.32919653   -35616.21621212
  entropy T*S    EENTRO =        -0.02175428
  eigenvalues    EBANDS =     -1404.01781129
  atomic energy  EATOM  =     31013.67235384
  Solvation  Ediel_sol  =         0.00000000
  ---------------------------------------------------
  free energy    TOTEN  =      -268.52381765 eV

  energy without entropy =     -268.50206337  energy(sigma->0) =     -268.51294051


--------------------------------------------------------------------------------------------------------




--------------------------------------- Iteration      1(  24)  ---------------------------------------


    POTLOK:  cpu time    0.0627: real time    0.0629
    SETDIJ:  cpu time    0.0069: real time    0.0069
     EDDAV:  cpu time   50.5267: real time   50.6466
    CHARGE:  cpu time    1.8203: real time    1.8247
    MIXING:  cpu time    0.0043: real time    0.0043
    --------------------------------------------
      LOOP:  cpu time   52.4209: real time   52.5453

 eigenvalue-minimisations  : 22928
 total energy-change (2. order) : 0.8118721E-02  (-0.2541175E-02)
 number of electron     351.9999988 magnetization 
 augmentation part      115.7280631 magnetization 

 Broyden mixing:
  rms(total) = 0.19126E+00    rms(broyden)= 0.19124E+00
  rms(prec ) = 0.28822E+00
  weight for this iteration     100.00

 eigenvalues of (default mixing * dielectric matrix)
  average eigenvalue GAMMA=   0.5302
  2.3825  1.3754  1.3754  0.8453  0.8453  0.5538  0.4232  0.4232  0.3536  0.2538
  0.2112  0.1927  0.0841  0.0841  0.1131  0.1131  0.1547  0.1547  0.1342

 Free energy of the ion-electron system (eV)
  ---------------------------------------------------
  alpha Z        PSCENC =       972.54880997
  Ewald energy   TEWEN  =    -18838.90984339
  -Hartree energ DENC   =    -12238.09779469
  -exchange      EXHF   =         0.00000000
  -V(xc)+E(xc)   XCENC  =      1395.82906841
  PAW double counting   =     34458.34208269   -35628.06449305
  entropy T*S    EENTRO =        -0.02058323
  eigenvalues    EBANDS =     -1403.81529947
  atomic energy  EATOM  =     31013.67235384
  Solvation  Ediel_sol  =         0.00000000
  ---------------------------------------------------
  free energy    TOTEN  =      -268.51569892 eV

  energy without entropy =     -268.49511570  energy(sigma->0) =     -268.50540731


--------------------------------------------------------------------------------------------------------




--------------------------------------- Iteration      1(  25)  ---------------------------------------


    POTLOK:  cpu time    0.0639: real time    0.0640
    SETDIJ:  cpu time    0.0068: real time    0.0068
     EDDAV:  cpu time   52.1482: real time   52.2718
    CHARGE:  cpu time    1.7208: real time    1.7249
    MIXING:  cpu time    0.0044: real time    0.0044
    --------------------------------------------
      LOOP:  cpu time   53.9441: real time   54.0719

 eigenvalue-minimisations  : 24160
 total energy-change (2. order) : 0.5241587E-02  (-0.9656478E-03)
 number of electron     351.9999988 magnetization 
 augmentation part      115.7256434 magnetization 

 Broyden mixing:
  rms(total) = 0.16180E+00    rms(broyden)= 0.16178E+00
  rms(prec ) = 0.24711E+00
  weight for this iteration     100.00

 eigenvalues of (default mixing * dielectric matrix)
  average eigenvalue GAMMA=   0.5364
  2.3803  1.4432  1.4432  0.8995  0.8995  0.6878  0.4216  0.4216  0.4101  0.2589
  0.2249  0.2249  0.0841  0.0841  0.1764  0.1612  0.1131  0.1131  0.1435  0.1373

 Free energy of the ion-electron system (eV)
  ---------------------------------------------------
  alpha Z        PSCENC =       972.54880997
  Ewald energy   TEWEN  =    -18838.90984339
  -Hartree energ DENC   =    -12238.74804056
  -exchange      EXHF   =         0.00000000
  -V(xc)+E(xc)   XCENC  =      1395.85608388
[...]
 total augmentation occupancy for first ion, spin component:           1
  5.451   0.100  -0.184   0.031   0.052  -2.728  -0.123   0.139  -0.061  -0.086  -0.086   0.034  -0.141  -0.007  -0.027   0.037
  0.100   6.059   0.261  -0.094  -0.210  -0.125  -3.228  -0.204   0.045   0.221  -0.270   0.066  -0.365   0.055  -0.000   0.057
 -0.184   0.261   2.620  -0.166  -0.400   0.140  -0.208  -1.636   0.113  -0.133   0.270  -0.093   0.049   0.036   0.112   0.001
  0.031  -0.094  -0.166   4.902   0.266  -0.061   0.049   0.092  -2.150  -0.414  -0.554   0.102   0.005   0.023  -0.197   0.001
  0.052  -0.210  -0.400   0.266   3.174  -0.087   0.228  -0.137  -0.383  -2.398   0.896  -0.129   0.013   0.007  -0.148   0.008
 -2.728  -0.125   0.140  -0.061  -0.087   1.960   0.147  -0.115   0.090   0.114   0.081  -0.028   0.132   0.005   0.013  -0.028
 -0.123  -3.228  -0.208   0.049   0.228   0.147   2.380   0.179  -0.009  -0.240   0.266  -0.066   0.347  -0.054   0.001  -0.055
  0.139  -0.204  -1.636   0.092  -0.137  -0.115   0.179   1.964  -0.041   0.566  -0.369   0.112  -0.009  -0.085  -0.130  -0.007
 -0.061   0.045   0.113  -2.150  -0.383   0.090  -0.009  -0.041   1.392   0.480   0.506  -0.105  -0.003  -0.016   0.181  -0.001
 -0.086   0.221  -0.133  -0.414  -2.398   0.114  -0.240   0.566   0.480   2.950  -1.020   0.189   0.042  -0.024   0.156  -0.019
 -0.086  -0.270   0.270  -0.554   0.896   0.081   0.266  -0.369   0.506  -1.020   1.793  -0.311  -0.040   0.057   0.095   0.009
  0.034   0.066  -0.093   0.102  -0.129  -0.028  -0.066   0.112  -0.105   0.189  -0.311   0.087   0.003  -0.021  -0.030  -0.002
 -0.141  -0.365   0.049   0.005   0.013   0.132   0.347  -0.009  -0.003   0.042  -0.040   0.003   0.445   0.027   0.006  -0.071
 -0.007   0.055   0.036   0.023   0.007   0.005  -0.054  -0.085  -0.016  -0.024   0.057  -0.021   0.027   0.221   0.041  -0.005
 -0.027  -0.000   0.112  -0.197  -0.148   0.013   0.001  -0.130   0.181   0.156   0.095  -0.030   0.006   0.041   0.189  -0.002
  0.037   0.057   0.001   0.001   0.008  -0.028  -0.055  -0.007  -0.001  -0.019   0.009  -0.002  -0.071  -0.005  -0.002   0.016
  0.001   0.021  -0.009   0.025  -0.007  -0.001  -0.006   0.024  -0.010   0.008  -0.016   0.005  -0.005  -0.033  -0.009   0.001
  0.028   0.000  -0.029   0.045   0.040  -0.014  -0.000   0.029  -0.038  -0.037  -0.022   0.008  -0.002  -0.009  -0.030   0.001


------------------------ aborting loop because EDIFF is reached ----------------------------------------


    CHARGE:  cpu time    1.8337: real time    1.8381
    FORLOC:  cpu time    0.0241: real time    0.0256
    FORNL :  cpu time   11.2536: real time   11.2803
    STRESS:  cpu time   33.7744: real time   33.8548
    FORCOR:  cpu time    0.0822: real time    0.0824
    FORHAR:  cpu time    0.0372: real time    0.0373
    MIXING:  cpu time    0.0056: real time    0.0056
    OFIELD:  cpu time    0.0001: real time    0.0001

  FORCE on cell =-STRESS in cart. coord.  units (eV):
  Direction    XX          YY          ZZ          XY          YZ          ZX
  --------------------------------------------------------------------------------------
  Alpha Z   972.54881   972.54881   972.54881
  Ewald   -6434.50890 -6638.28722 -5766.22599  -493.50146  -467.47868   172.46272
  Hartree  4062.52757  3858.89581  4321.19803  -336.86354  -278.63558   175.41361
  E(xc)   -1785.55478 -1785.64841 -1786.28591    -0.15110    -0.11703     0.14416
  Local   -4428.82922 -4007.23157 -5279.48157   814.64100   717.40847  -359.17085
  n-local  -785.78748  -783.91852  -759.94021    -1.50697    -3.31165    -1.91902
  augment  3011.06879  3004.51888  2976.69883     6.66290    14.08253     4.67012
  Kinetic  5363.25919  5360.43338  5342.96211    13.06264    13.70879     2.33109
  Fock        0.00000     0.00000     0.00000     0.00000     0.00000     0.00000
  -------------------------------------------------------------------------------------
  Total      -25.2760091    -18.6888374     21.4740991      2.3434708     -4.3431580     -6.0681648
  in kB      -71.8582550    -53.1313007     61.0496411      6.6623542    -12.3473508    -17.2514470
  external PRESSURE =     -21.3133049 kB  Pullay stress =       0.0000000 kB


 VOLUME and BASIS-vectors are now :
 -----------------------------------------------------------------------------
  energy-cutoff  :      500.00
  volume of cell :      563.56
      direct lattice vectors                 reciprocal lattice vectors
     8.260014440  0.000000000  0.000000000     0.121065164  0.000000000  0.000000000
     0.000000000  8.260014440  0.000000000     0.000000000  0.121065164  0.000000000
     0.000000000  0.000000000  8.260014440     0.000000000  0.000000000  0.121065164

  length of vectors
     8.260014440  8.260014440  8.260014440     0.121065164  0.121065164  0.121065164


 FORCES acting on ions
    electron-ion (+dipol)            ewald-force                    non-local-force                 convergence-correction
 -----------------------------------------------------------------------------------------------
   0.149E+03 -.322E+01 0.195E+03   -.152E+03 0.150E+00 -.197E+03   0.187E+01 0.171E+01 0.276E+01   -.125E-01 -.367E-01 -.104E-01
   -.483E+02 -.307E+03 0.254E+03   0.518E+02 0.314E+03 -.265E+03   -.180E+01 -.378E+01 0.104E+01   -.565E-02 0.140E-01 -.949E-02
   0.343E+02 0.157E+03 -.156E+03   -.362E+02 -.170E+03 0.191E+03   -.282E+00 0.303E+01 -.377E+01   -.415E-01 0.115E-02 -.280E-01
   0.243E+03 -.251E+03 -.774E+02   -.248E+03 0.251E+03 0.820E+02   0.203E+01 0.204E+01 -.104E+01   0.106E-01 0.995E-02 -.403E-02
   0.135E+03 0.344E+03 -.350E+02   -.136E+03 -.351E+03 0.321E+02   0.516E+00 0.151E+01 0.891E+00   -.352E-02 0.357E-01 -.971E-03
   0.147E+03 0.109E+02 -.240E+02   -.145E+03 -.123E+02 0.241E+02   0.982E+00 -.210E+01 0.115E+01   -.444E-01 -.392E-01 0.236E-01
   -.223E+01 0.104E+03 -.658E+02   0.576E+00 -.107E+03 0.661E+02   -.701E+00 -.947E+00 -.200E+01   -.302E-01 0.112E-01 -.794E-02
   0.193E+03 -.405E+02 -.277E+03   -.194E+03 0.427E+02 0.280E+03   -.411E+00 -.195E+01 -.174E+00   -.149E-01 -.338E-02 0.193E-03
   0.135E+02 -.231E+02 -.646E+02   -.165E+02 0.207E+02 0.674E+02   0.325E-01 0.357E+00 0.376E+00   -.207E-01 -.307E-01 0.235E-01
   -.143E+03 -.214E+03 0.166E+02   0.146E+03 0.216E+03 -.144E+02   -.994E+00 0.137E+01 0.243E+01   0.373E-01 0.410E-01 -.486E-02
   -.196E+03 -.116E+02 -.137E+03   0.198E+03 0.101E+02 0.140E+03   -.140E+01 0.796E+00 -.204E+01   0.396E-01 -.280E-01 0.564E-01
   0.146E+03 -.233E+03 -.248E+03   -.153E+03 0.234E+03 0.254E+03   0.175E+01 0.258E+00 -.382E+00   -.155E-01 0.202E-01 0.351E-01
   0.383E+02 0.273E+03 0.145E+03   -.429E+02 -.274E+03 -.149E+03   0.120E+01 0.144E+01 -.196E+00   0.353E-03 -.426E-02 0.991E-02
   -.310E+03 -.135E+03 0.175E+03   0.311E+03 0.142E+03 -.178E+03   0.106E+01 -.370E+00 0.213E+01   0.322E-01 0.486E-02 -.923E-02
   -.216E+03 0.242E+03 -.655E+02   0.220E+03 -.241E+03 0.717E+02   0.754E-01 0.194E+00 -.199E+01   0.208E-01 0.149E-01 0.166E-01
   -.247E+02 0.270E+01 0.607E+02   0.224E+02 -.499E+01 -.592E+02   -.143E+01 -.858E+00 0.485E+00   0.158E-01 -.524E-01 -.606E-02
   -.301E+03 0.287E+03 0.276E+03   0.319E+03 -.307E+03 -.294E+03   -.178E+02 0.160E+02 0.170E+02   0.930E-02 -.446E-02 0.117E-01
   -.169E+03 -.324E+03 -.307E+03   0.183E+03 0.345E+03 0.339E+03   -.146E+02 -.152E+02 -.269E+02   -.725E-02 0.112E-01 -.121E-01
   0.225E+03 -.792E+02 -.131E+03   -.239E+03 0.869E+02 0.143E+03   0.153E+02 -.861E+01 -.127E+02   -.139E-01 0.184E-03 0.147E-01
   -.867E+02 -.498E+02 0.241E+03   0.942E+02 0.581E+02 -.256E+03   -.922E+01 -.105E+02 0.153E+02   -.565E-02 0.112E-01 0.748E-02
   0.209E+03 0.237E+03 0.228E+03   -.218E+03 -.252E+03 -.245E+03   0.740E+01 0.157E+02 0.142E+02   -.232E-01 -.194E-01 -.210E-03
   -.359E+02 0.210E+03 -.737E+02   0.419E+02 -.224E+03 0.831E+02   -.772E+01 0.160E+02 -.119E+02   -.433E-02 -.103E-01 -.942E-02
   0.203E+03 0.284E+03 -.217E+03   -.221E+03 -.295E+03 0.236E+03   0.179E+02 0.102E+02 -.192E+02   0.114E-01 -.453E-02 0.180E-02
   0.274E+03 -.243E+03 0.290E+03   -.290E+03 0.259E+03 -.308E+03   0.164E+02 -.180E+02 0.182E+02   0.266E-02 0.103E-01 -.605E-02
   -.268E+03 0.194E+03 0.140E+03   0.286E+03 -.215E+03 -.151E+03   -.175E+02 0.201E+02 0.101E+02   0.411E-01 -.449E-01 0.932E-02
   -.165E+03 -.189E+03 -.211E+03   0.181E+03 0.207E+03 0.220E+03   -.174E+02 -.168E+02 -.743E+01   -.375E-01 0.550E-02 -.343E-02
   0.189E+03 -.257E+03 -.219E+03   -.199E+03 0.276E+03 0.229E+03   0.103E+02 -.194E+02 -.109E+02   -.403E-01 -.724E-02 0.105E-01
   -.151E+03 -.191E+03 0.647E+02   0.162E+03 0.206E+03 -.762E+02   -.108E+02 -.155E+02 0.136E+02   0.147E-01 -.256E-01 0.822E-02
   0.208E+03 0.839E+02 0.866E+02   -.221E+03 -.867E+02 -.906E+02   0.148E+02 0.358E+01 0.510E+01   -.126E-01 -.160E-02 0.519E-02
   -.942E+02 0.247E+02 -.220E+03   0.102E+03 -.322E+02 0.233E+03   -.935E+01 0.898E+01 -.157E+02   0.238E-01 0.127E-01 0.815E-02
   0.234E+03 0.169E+03 -.238E+03   -.251E+03 -.184E+03 0.251E+03   0.168E+02 0.166E+02 -.142E+02   -.977E-02 -.506E-02 0.359E-01
   0.250E+03 -.177E+03 0.154E+03   -.269E+03 0.196E+03 -.171E+03   0.192E+02 -.149E+02 0.165E+02   -.354E-03 -.133E-01 0.176E-01
   -.187E+03 0.256E+03 0.124E+03   0.202E+03 -.265E+03 -.131E+03   -.160E+02 0.103E+02 0.791E+01   -.163E-01 0.471E-02 -.683E-02
   -.303E+03 -.320E+03 -.191E+03   0.325E+03 0.337E+03 0.198E+03   -.190E+02 -.174E+02 -.825E+01   0.657E-02 0.160E-01 0.330E-01
   0.129E+03 -.116E+02 -.234E+03   -.139E+03 0.175E+02 0.248E+03   0.112E+02 -.750E+01 -.146E+02   0.140E-01 0.206E-01 -.638E-02
   -.284E+03 -.149E+02 0.150E+03   0.308E+03 0.175E+02 -.159E+03   -.217E+02 -.357E+01 0.113E+02   0.142E-01 -.112E-02 -.187E-02
   0.309E+02 0.269E+03 0.103E+03   -.382E+02 -.286E+03 -.114E+03   0.893E+01 0.169E+02 0.130E+02   0.268E-01 -.158E-01 0.158E-02
   -.153E+03 0.245E+03 -.264E+03   0.157E+03 -.259E+03 0.279E+03   -.457E+01 0.163E+02 -.152E+02   0.417E-03 -.396E-01 0.768E-02
   0.237E+03 0.262E+03 -.238E+03   -.248E+03 -.278E+03 0.253E+03   0.106E+02 0.176E+02 -.144E+02   -.189E-01 0.226E-01 -.119E-01
   0.174E+03 -.305E+03 0.214E+03   -.189E+03 0.322E+03 -.236E+03   0.148E+02 -.177E+02 0.177E+02   -.292E-01 0.373E-01 0.194E-01
   -.168E+03 0.163E+03 0.488E+03   0.186E+03 -.174E+03 -.546E+03   -.163E+02 0.129E+02 0.291E+02   -.124E-01 0.218E-02 -.119E-01
   -.335E+03 -.166E+03 -.139E+03   0.358E+03 0.177E+03 0.154E+03   -.205E+02 -.121E+02 -.159E+02   0.211E-01 -.257E-01 0.206E-02
   0.358E+02 -.180E+03 -.201E+03   -.420E+02 0.191E+03 0.214E+03   0.815E+01 -.129E+02 -.143E+02   0.113E-01 -.151E-02 0.608E-02
   -.172E+03 -.268E+03 0.215E+03   0.179E+03 0.288E+03 -.231E+03   -.583E+01 -.163E+02 0.141E+02   -.102E-01 -.831E-02 -.355E-01
   0.893E+02 0.400E+02 0.269E+03   -.964E+02 -.448E+02 -.293E+03   0.869E+01 0.602E+01 0.221E+02   0.124E-01 0.351E-01 -.429E-01
   -.230E+03 0.919E+02 -.352E+02   0.245E+03 -.101E+03 0.348E+02   -.138E+02 0.104E+02 0.600E+00   -.276E-02 0.220E-02 0.199E-03
   0.251E+03 0.214E+03 -.110E+03   -.264E+03 -.232E+03 0.121E+03   0.137E+02 0.180E+02 -.130E+02   0.282E-02 -.183E-01 -.646E-02
   0.211E+03 -.169E+03 0.263E+03   -.230E+03 0.180E+03 -.280E+03   0.193E+02 -.119E+02 0.168E+02   0.264E-03 -.760E-02 -.393E-02
 -----------------------------------------------------------------------------------------------
   0.610E+01 0.144E+00 -.279E+02   -.284E-12 -.114E-12 0.284E-12   -.605E+01 -.185E-01 0.278E+02   -.642E-01 -.104E+00 0.126E+00
 
 
 POSITION                                       TOTAL-FORCE (eV/Angst)
 -----------------------------------------------------------------------------------
      1.00804      5.05669      0.73462        -1.461536     -1.400061      0.362893
      2.87408      7.00300      1.27068         1.700489      3.739279     -9.273523
      2.88506      5.00700      2.69196        -2.271712    -10.496873     31.224449
      0.94668      6.83512      2.87656        -2.774329      2.125320      3.620088
      0.96853      0.91996      5.02601         0.014365     -4.568602     -2.041278
      2.70258      3.15810      4.78993         3.641650     -3.533287      1.218818
      3.16673      1.20407      7.17111        -2.388822     -3.774608     -1.697947
      1.04848      2.92269      6.85066        -1.717485      0.261644      2.911173
      5.04854      4.89525      4.88983        -2.995121     -2.098030      3.196138
      6.92267      6.63814      4.63582         1.902011      2.718466      4.594500
      6.93611      4.90834      6.94867         0.736269     -0.775351      1.267385
      5.02056      6.78533      6.82868        -4.816305      1.821028      5.844603
      5.01532      0.86450      1.05956        -3.325418      0.052314     -3.248432
      6.83506      2.86200      0.89909         1.962578      5.827138     -1.407228
      6.88284      0.92537      2.84575         3.721024      0.618747      4.174204
      5.07245      3.03808      2.88194        -3.678980     -3.194014      1.991537
      6.82643      1.18978      1.07603         0.144687     -3.572416     -0.559626
      2.76547      6.62540      2.85447        -0.601347      5.579997      5.310378
      2.98573      0.91958      0.82416         1.842518     -0.814988     -0.403468
      0.85800      1.03830      3.15762        -1.647663     -2.147927      0.108596
      3.16649      3.12094      3.10902        -1.223989      0.327937     -2.748275
      1.08908      3.15680      0.90549        -1.734112      1.656090     -2.543210
      5.06706      1.20245      2.86002         0.083535     -1.312657     -0.282911
      1.04511      6.99385      1.07043        -0.092877     -1.731731     -0.076251
      6.85424      4.91051      5.06359         0.465852     -0.385070     -0.373951
      2.92022      2.86134      6.60814        -1.020501      1.834976      1.047130
      3.08560      4.92771      4.88362         0.341903     -0.014588     -0.952098
      0.64311      4.86897      6.87508        -0.283918     -1.157385      2.081404
      3.05344      7.12607      7.05053         1.311661      0.718132      1.053198
      0.85514      6.87754      4.93486        -1.769030      1.501396     -2.402003
      5.10143      4.84225      6.83315         0.026271      1.271030     -0.852093
      0.90324      2.57514      5.10476        -0.247013      4.396665     -0.493743
      2.88969      1.06469      4.89493        -1.155372      1.093941      0.963733
      6.70502      6.77556      6.80256         2.846307     -0.563702     -0.852518
      7.21161      1.04252      4.75701         0.598144     -1.556274     -0.694125
      4.82371      0.93968      7.18087         1.990209     -0.897971      1.834063
      6.89979      3.08089      7.14678         1.642143     -0.254558      1.253265
      4.83650      2.81042      4.72400        -0.116427      2.424987      0.243917
      1.35111      0.94323      6.84745        -0.904545      1.499401      0.661986
      5.05235      6.82693      5.20149         0.112215     -0.799528     -4.942581
      3.02417      5.15045      1.36033         1.709554      2.121130    -29.233133
      6.80417      2.92184      2.89150         1.892201     -1.098246     -1.755150
      6.78705      5.04014      0.58033         1.881581     -2.109533     -0.769434
      4.78582      4.68724      3.20632         1.111104      3.689133     -2.643683
      7.01143      7.07725      3.03181         1.580950      1.217601     -2.377047
      4.57757      7.09292      0.71626         1.674567      1.444209      0.207112
      0.90016      5.01434      3.05280         1.032140      0.446103     -2.352744
      5.01348      2.80533      1.03977         0.260571     -0.129267     -0.194121
 -----------------------------------------------------------------------------------
    total drift:                               -0.012254      0.021047      0.018464


--------------------------------------------------------------------------------------------------------



  FREE ENERGIE OF THE ION-ELECTRON SYSTEM (eV)
  ---------------------------------------------------
  free  energy   TOTEN  =      -268.4941671361 eV

  energy  without entropy=     -268.4709188906  energy(sigma->0) =     -268.48254301
 


--------------------------------------------------------------------------------------------------------


    POTLOK:  cpu time    0.0707: real time    0.0709


--------------------------------------------------------------------------------------------------------


     LOOP+:  cpu time 1834.0008: real time 1838.5846
    4ORBIT:  cpu time    0.0000: real time    0.0000

volume of typ            1:    18.1 %

volume of typ            2:     9.3 %
 
total charge     
 
# of ion       s       p       d       tot
------------------------------------------
    1        0.214   0.211   7.838   8.264
    2        0.320   0.407   7.875   8.601
    3        0.430   0.629   8.049   9.108
    4        0.265   0.314   7.842   8.420
    5        0.293   0.381   7.808   8.482
    6        0.290   0.374   7.819   8.483
    7        0.300   0.384   7.798   8.482
    8        0.249   0.279   7.826   8.354
    9        0.293   0.390   7.837   8.520
   10        0.288   0.327   7.846   8.461
   11        0.292   0.398   7.793   8.483
   12        0.310   0.391   7.854   8.555
   13        0.259   0.312   7.816   8.388
   14        0.273   0.324   7.836   8.433
   15        0.259   0.320   7.818   8.397
   16        0.334   0.492   7.846   8.672
   17        1.277   2.781   0.013   4.071
   18        1.287   2.826   0.020   4.132
   19        1.298   2.625   0.004   3.927
   20        1.302   2.611   0.003   3.916
   21        1.287   2.729   0.009   4.024
   22        1.301   2.600   0.003   3.903
   23        1.288   2.728   0.010   4.025
   24        1.282   2.722   0.009   4.012
   25        1.283   2.738   0.010   4.031
   26        1.284   2.729   0.010   4.022
   27        1.293   2.676   0.006   3.975
   28        1.294   2.634   0.004   3.932
   29        1.306   2.583   0.002   3.891
   30        1.305   2.585   0.002   3.893
   31        1.296   2.679   0.007   3.982
   32        1.290   2.746   0.014   4.049
   33        1.306   2.611   0.004   3.921
   34        1.289   2.721   0.009   4.020
   35        1.300   2.616   0.003   3.919
   36        1.297   2.666   0.007   3.970
   37        1.297   2.638   0.005   3.940
   38        1.310   2.620   0.005   3.935
   39        1.285   2.703   0.007   3.996
   40        1.290   2.731   0.012   4.033
   41        1.312   2.846   0.033   4.191
   42        1.296   2.690   0.008   3.994
   43        1.301   2.612   0.003   3.916
   44        1.280   2.783   0.012   4.075
   45        1.287   2.694   0.008   3.989
   46        1.284   2.678   0.005   3.967
   47        1.302   2.638   0.006   3.946
   48        1.290   2.703   0.008   4.002
--------------------------------------------------
tot          46.07   91.88  125.76  263.70
 

 total amount of memory used by VASP MPI-rank0   192732. kBytes
=======================================================================

   base      :      30000. kBytes
   nonlr-proj:      21502. kBytes
   fftplans  :       4751. kBytes
   grid      :      15225. kBytes
   one-center:        746. kBytes
   wavefun   :     120508. kBytes
 
  
  
 General timing and accounting informations for this job:
 ========================================================
  
                  Total CPU time used (sec):     1868.670
                            User time (sec):     1865.938
                          System time (sec):        2.733
                         Elapsed time (sec):     1876.789
  
                   Maximum memory used (kb):      253412.
                   Average memory used (kb):           0.
  
                          Minor page faults:        37127
                          Major page faults:           18
                 Voluntary context switches:         1200
