 vasp.5.4.4.18Apr17-6-g9f103f2a35 (build May 12 2020 04:58:55) complex          
  
 MD_VERSION_INFO: Compiled 2020-05-12T11:58:55-UTC in devlin.sd.materialsdesign.
 com:/home/medea2/data/build/wwolf/vasp-gpu5.4.4/13047/x86_64/src/src/build/std 
 from svn 13047
 
 This VASP executable licensed from Materials Design, Inc.
 
 executed on                        Lin64 date 2023.04.26  20:36:08
 running on   16 total cores
 distrk:  each k-point on   16 cores,    1 groups
 distr:  one band on NCORES_PER_BAND=   1 cores,   16 groups


--------------------------------------------------------------------------------------------------------


 INCAR:
 POTCAR:    PAW_PBE Ni 02Aug2007                  
 POTCAR:    PAW_PBE O 08Apr2002                   

 ----------------------------------------------------------------------------- 
|                                                                             |
|           W    W    AA    RRRRR   N    N  II  N    N   GGGG   !!!           |
|           W    W   A  A   R    R  NN   N  II  NN   N  G    G  !!!           |
|           W    W  A    A  R    R  N N  N  II  N N  N  G       !!!           |
|           W WW W  AAAAAA  RRRRR   N  N N  II  N  N N  G  GGG   !            |
|           WW  WW  A    A  R   R   N   NN  II  N   NN  G    G                |
|           W    W  A    A  R    R  N    N  II  N    N   GGGG   !!!           |
|                                                                             |
|      For optimal performance we recommend to set                            |
|        NCORE= 4 - approx SQRT( number of cores)                             |
|      NCORE specifies how many cores store one orbital (NPAR=cpu/NCORE).     |
|      This setting can  greatly improve the performance of VASP for DFT.     |
|      The default,   NCORE=1            might be grossly inefficient         |
|      on modern multi-core architectures or massively parallel machines.     |
|      Do your own testing !!!!                                               |
|      Unfortunately you need to use the default for GW and RPA calculations. |
|      (for HF NCORE is supported but not extensively tested yet)             |
|                                                                             |
 ----------------------------------------------------------------------------- 

 POTCAR:    PAW_PBE Ni 02Aug2007                  
  local pseudopotential read in
  partial core-charges read in
  partial kinetic energy density read in
  atomic valenz-charges read in
  non local Contribution for L=           2  read in
    real space projection operators read in
  non local Contribution for L=           2  read in
    real space projection operators read in
  non local Contribution for L=           0  read in
    real space projection operators read in
  non local Contribution for L=           0  read in
    real space projection operators read in
  non local Contribution for L=           1  read in
    real space projection operators read in
  non local Contribution for L=           1  read in
    real space projection operators read in
    PAW grid and wavefunctions read in
 
   number of l-projection  operators is LMAX  =           6
   number of lm-projection operators is LMMAX =          18
 
 POTCAR:    PAW_PBE O 08Apr2002                   
  local pseudopotential read in
  partial core-charges read in
  partial kinetic energy density read in
  kinetic energy density of atom read in
  atomic valenz-charges read in
  non local Contribution for L=           0  read in
    real space projection operators read in
  non local Contribution for L=           0  read in
    real space projection operators read in
  non local Contribution for L=           1  read in
    real space projection operators read in
  non local Contribution for L=           1  read in
    real space projection operators read in
    PAW grid and wavefunctions read in
 
   number of l-projection  operators is LMAX  =           4
   number of lm-projection operators is LMMAX =           8
 
 Optimization of the real space projectors (new method)

 maximal supplied QI-value         = 16.25
 optimisation between [QCUT,QGAM] = [ 11.38, 22.75] = [ 36.24,144.96] Ry 
 Optimized for a Real-space Cutoff    1.47 Angstroem

   l    n(q)    QCUT    max X(q) W(low)/X(q) W(high)/X(q)  e(spline) 
   2      9    11.376    60.317    0.17E-03    0.16E-04    0.16E-06
   2      9    11.376    55.921    0.17E-03    0.16E-04    0.17E-06
   0     10    11.376    51.690    0.45E-04    0.60E-04    0.21E-06
   0     10    11.376    30.015    0.37E-04    0.55E-04    0.19E-06
   1     10    11.376    18.849    0.83E-04    0.11E-03    0.92E-07
   1     10    11.376    14.624    0.69E-04    0.92E-04    0.82E-07
 Optimization of the real space projectors (new method)

 maximal supplied QI-value         = 24.76
 optimisation between [QCUT,QGAM] = [ 11.39, 22.77] = [ 36.31,145.25] Ry 
 Optimized for a Real-space Cutoff    1.10 Angstroem

   l    n(q)    QCUT    max X(q) W(low)/X(q) W(high)/X(q)  e(spline) 
   0      7    11.387    20.381    0.22E-03    0.48E-03    0.18E-06
   0      7    11.387    15.268    0.22E-03    0.52E-03    0.19E-06
   1      7    11.387     5.964    0.22E-03    0.73E-03    0.24E-06
   1      7    11.387     5.382    0.19E-03    0.60E-03    0.21E-06

 ----------------------------------------------------------------------------- 
|                                                                             |
|  ADVICE TO THIS USER RUNNING 'VASP/VAMP'   (HEAR YOUR MASTER'S VOICE ...):  |
|                                                                             |
|      You enforced a specific xc-type in the INCAR file,                     |
|      a different type was found on the POTCAR file                          |
|          I HOPE YOU KNOW, WHAT YOU ARE  DOING                               |
|                                                                             |
 ----------------------------------------------------------------------------- 

  PAW_PBE Ni 02Aug2007                  :
 energy of atom  1       EATOM=-1077.6739
 kinetic energy error for atom=    0.0030 (will be added to EATOM!!)
  PAW_PBE O 08Apr2002                   :
 energy of atom  2       EATOM= -432.3788
 kinetic energy error for atom=    0.0224 (will be added to EATOM!!)
 
 
 POSCAR: NiO2_Fd-3m_scale_1_050_disp_0_04_round_1
  positions in direct lattice
  No initial velocities read in
 exchange correlation table for  LEXCH =       14
   RHO(1)=    0.500       N(1)  =     2000
   RHO(2)=  100.500       N(2)  =     4000
 


--------------------------------------------------------------------------------------------------------


 ion  position               nearest neighbor table
   1  0.114  0.591  0.122-  22 1.82  47 1.87  41 1.91  24 1.93  28 2.23  43 2.23   3 2.80   4 2.82
                             2 2.85  14 2.99   8 3.07
   2  0.366  0.826  0.120-  46 1.81  41 1.84  18 1.87  24 1.93  29 2.33  19 2.34   3 2.73   4 2.77
                             1 2.85  12 3.07
   3  0.359  0.596  0.357-  21 1.82  27 1.84  18 1.85  44 1.86  41 1.87  47 1.87   2 2.73   9 2.77
                            16 2.77   4 2.77   6 2.79   1 2.80
   4  0.128  0.840  0.356-  24 1.85  18 1.86  47 1.88  30 1.91  20 2.20  45 2.26   2 2.77   3 2.77
                             1 2.82   5 3.03
   5  0.117  0.122  0.590-  20 1.82  39 1.85  32 1.88  33 1.90  35 2.28  30 2.35   6 2.78   7 2.80
                             8 2.80  15 3.01   4 3.03
   6  0.352  0.362  0.600-  27 1.77  32 1.83  26 1.85  21 1.88  33 1.88  38 1.89   7 2.74   9 2.76
                             5 2.78   8 2.78   3 2.79  16 2.90
   7  0.358  0.122  0.828-  39 1.86  33 1.86  26 1.88  36 1.90  29 2.25  19 2.32   6 2.74   5 2.80
                             8 2.82
   8  0.110  0.356  0.835-  32 1.83  28 1.88  26 1.88  39 1.90  37 2.18  22 2.22   6 2.78   5 2.80
                             7 2.82   1 3.07
   9  0.593  0.594  0.597-  38 1.74  40 1.79  31 1.80  25 1.88  27 1.91  44 1.91  11 2.70  12 2.71
                             6 2.76   3 2.77  10 2.81  16 2.81
  10  0.832  0.835  0.600-  25 1.79  34 1.79  40 1.84  45 1.89  35 2.22  30 2.23  11 2.67  12 2.70
                             9 2.81  15 3.05
  11  0.828  0.603  0.824-  34 1.80  31 1.81  25 1.85  37 1.91  43 2.30  28 2.36  12 2.61  10 2.67
                             9 2.70
  12  0.601  0.823  0.832-  34 1.82  31 1.85  40 1.88  29 1.93  46 2.27  36 2.36  11 2.61  10 2.70
                             9 2.71   2 3.07
  13  0.602  0.120  0.118-  48 1.84  19 1.87  17 1.88  23 1.89  46 2.21  36 2.29  16 2.75  15 2.77
                            14 2.78
  14  0.833  0.363  0.122-  43 1.80  42 1.82  17 1.91  48 1.93  22 2.22  37 2.33  16 2.71  13 2.78
                            15 2.84   1 2.99
  15  0.832  0.117  0.363-  35 1.81  42 1.82  17 1.85  23 1.86  20 2.27  45 2.28  13 2.77  16 2.79
                            14 2.84   5 3.01  10 3.05
  16  0.597  0.360  0.350-  48 1.74  44 1.80  42 1.86  21 1.88  38 1.95  23 1.95  14 2.71  13 2.75
                             3 2.77  15 2.79   9 2.81   6 2.90
  17  0.828  0.133  0.139-  15 1.85  13 1.88  14 1.91
  18  0.352  0.820  0.346-   3 1.85   4 1.86   2 1.87
  19  0.376  0.109  0.108-  13 1.87   7 2.32   2 2.34
  20  0.107  0.105  0.371-   5 1.82   4 2.20  15 2.27
  21  0.372  0.377  0.375-   3 1.82   6 1.88  16 1.88
  22  0.101  0.372  0.103-   1 1.82   8 2.22  14 2.22
  23  0.607  0.124  0.347-  15 1.86  13 1.89  16 1.95
  24  0.132  0.824  0.133-   4 1.85   2 1.93   1 1.93
  25  0.819  0.619  0.601-  10 1.79  11 1.85   9 1.88
  26  0.338  0.348  0.823-   6 1.85   7 1.88   8 1.88
  27  0.363  0.575  0.579-   6 1.77   3 1.84   9 1.91
  28  0.111  0.583  0.852-   8 1.88   1 2.23  11 2.36
  29  0.370  0.850  0.839-  12 1.93   7 2.25   2 2.33
  30  0.102  0.837  0.586-   4 1.91  10 2.23   5 2.35
  31  0.610  0.599  0.814-   9 1.80  11 1.81  12 1.85
  32  0.131  0.348  0.615-   8 1.83   6 1.83   5 1.88
  33  0.346  0.135  0.604-   7 1.86   6 1.88   5 1.90
  34  0.822  0.821  0.817-  10 1.79  11 1.80  12 1.82
  35  0.842  0.103  0.581-  15 1.81  10 2.22   5 2.28
  36  0.587  0.108  0.842-   7 1.90  13 2.29  12 2.36
  37  0.847  0.374  0.841-  11 1.91   8 2.18  14 2.33
  38  0.578  0.384  0.583-   9 1.74   6 1.89  16 1.95
  39  0.134  0.128  0.814-   5 1.85   7 1.86   8 1.90
  40  0.611  0.810  0.605-   9 1.79  10 1.84  12 1.88
  41  0.345  0.605  0.132-   2 1.84   3 1.87   1 1.91
  42  0.821  0.336  0.340-  14 1.82  15 1.82  16 1.86
  43  0.845  0.581  0.101-  14 1.80   1 2.23  11 2.30
  44  0.583  0.576  0.367-  16 1.80   3 1.86   9 1.91
  45  0.854  0.842  0.373-  10 1.89   4 2.26  15 2.28
  46  0.583  0.853  0.104-   2 1.81  13 2.21  12 2.27
  47  0.134  0.613  0.346-   1 1.87   3 1.87   4 1.88
  48  0.601  0.342  0.140-  16 1.74  13 1.84  14 1.93
 
  LATTYP: Found a simple cubic cell.
 ALAT       =     8.2600144400
  
  Lattice vectors:
  
 A1 = (   8.2600144400,   0.0000000000,   0.0000000000)
 A2 = (   0.0000000000,   8.2600144400,   0.0000000000)
 A3 = (   0.0000000000,   0.0000000000,   8.2600144400)


Analysis of symmetry for initial positions (statically):
=====================================================================
 Subroutine PRICEL returns:
 Original cell was already a primitive cell.
 

 Routine SETGRP: Setting up the symmetry group for a 
 simple cubic supercell.


 Subroutine GETGRP returns: Found  1 space group operations
 (whereof  1 operations were pure point group operations)
 out of a pool of 48 trial point group operations.


The static configuration has the point symmetry C_1 .


Analysis of symmetry for dynamics (positions and initial velocities):
=====================================================================
 Subroutine PRICEL returns:
 Original cell was already a primitive cell.
 

 Routine SETGRP: Setting up the symmetry group for a 
 simple cubic supercell.


 Subroutine GETGRP returns: Found  1 space group operations
 (whereof  1 operations were pure point group operations)
 out of a pool of 48 trial point group operations.


The dynamic configuration has the point symmetry C_1 .


 Subroutine INISYM returns: Found  1 space group operations
 (whereof  1 operations are pure point group operations),
 and found     1 'primitive' translations

 
 
 KPOINTS: Automatic mesh                          

Automatic generation of k-mesh.
Space group operators:
 irot       det(A)        alpha          n_x          n_y          n_z        tau_x        tau_y        tau_z
    1     1.000000     0.000000     1.000000     0.000000     0.000000     0.000000     0.000000     0.000000
 
 Subroutine IBZKPT returns following result:
 ===========================================
 
 Found     36 irreducible k-points:
 
 Following reciprocal coordinates:
            Coordinates               Weight
  0.000000  0.000000  0.000000      1.000000
  0.250000  0.000000  0.000000      2.000000
  0.500000  0.000000  0.000000      1.000000
  0.000000  0.250000  0.000000      2.000000
  0.250000  0.250000  0.000000      2.000000
  0.500000  0.250000  0.000000      2.000000
 -0.250000  0.250000  0.000000      2.000000
  0.000000  0.500000  0.000000      1.000000
  0.250000  0.500000  0.000000      2.000000
  0.500000  0.500000  0.000000      1.000000
  0.000000  0.000000  0.250000      2.000000
  0.250000  0.000000  0.250000      2.000000
  0.500000  0.000000  0.250000      2.000000
 -0.250000  0.000000  0.250000      2.000000
  0.000000  0.250000  0.250000      2.000000
  0.250000  0.250000  0.250000      2.000000
  0.500000  0.250000  0.250000      2.000000
 -0.250000  0.250000  0.250000      2.000000
  0.000000  0.500000  0.250000      2.000000
  0.250000  0.500000  0.250000      2.000000
  0.500000  0.500000  0.250000      2.000000
 -0.250000  0.500000  0.250000      2.000000
  0.000000 -0.250000  0.250000      2.000000
  0.250000 -0.250000  0.250000      2.000000
  0.500000 -0.250000  0.250000      2.000000
 -0.250000 -0.250000  0.250000      2.000000
  0.000000  0.000000  0.500000      1.000000
  0.250000  0.000000  0.500000      2.000000
  0.500000  0.000000  0.500000      1.000000
  0.000000  0.250000  0.500000      2.000000
  0.250000  0.250000  0.500000      2.000000
  0.500000  0.250000  0.500000      2.000000
 -0.250000  0.250000  0.500000      2.000000
  0.000000  0.500000  0.500000      1.000000
  0.250000  0.500000  0.500000      2.000000
  0.500000  0.500000  0.500000      1.000000
 
 Following cartesian coordinates:
            Coordinates               Weight
  0.000000  0.000000  0.000000      1.000000
  0.030266  0.000000  0.000000      2.000000
  0.060533  0.000000  0.000000      1.000000
  0.000000  0.030266  0.000000      2.000000
  0.030266  0.030266  0.000000      2.000000
  0.060533  0.030266  0.000000      2.000000
 -0.030266  0.030266  0.000000      2.000000
  0.000000  0.060533  0.000000      1.000000
  0.030266  0.060533  0.000000      2.000000
  0.060533  0.060533  0.000000      1.000000
  0.000000  0.000000  0.030266      2.000000
  0.030266  0.000000  0.030266      2.000000
  0.060533  0.000000  0.030266      2.000000
 -0.030266  0.000000  0.030266      2.000000
  0.000000  0.030266  0.030266      2.000000
  0.030266  0.030266  0.030266      2.000000
  0.060533  0.030266  0.030266      2.000000
 -0.030266  0.030266  0.030266      2.000000
  0.000000  0.060533  0.030266      2.000000
  0.030266  0.060533  0.030266      2.000000
  0.060533  0.060533  0.030266      2.000000
 -0.030266  0.060533  0.030266      2.000000
  0.000000 -0.030266  0.030266      2.000000
  0.030266 -0.030266  0.030266      2.000000
  0.060533 -0.030266  0.030266      2.000000
 -0.030266 -0.030266  0.030266      2.000000
  0.000000  0.000000  0.060533      1.000000
  0.030266  0.000000  0.060533      2.000000
  0.060533  0.000000  0.060533      1.000000
  0.000000  0.030266  0.060533      2.000000
  0.030266  0.030266  0.060533      2.000000
  0.060533  0.030266  0.060533      2.000000
 -0.030266  0.030266  0.060533      2.000000
  0.000000  0.060533  0.060533      1.000000
  0.030266  0.060533  0.060533      2.000000
  0.060533  0.060533  0.060533      1.000000
 


--------------------------------------------------------------------------------------------------------




 Dimension of arrays:
   k-points           NKPTS =     36   k-points in BZ     NKDIM =     36   number of bands    NBANDS=    224
   number of dos      NEDOS =    301   number of ions     NIONS =     48
   non local maximal  LDIM  =      6   non local SUM 2l+1 LMDIM =     18
   total plane-waves  NPLWV = 216000
   max r-space proj   IRMAX =   5195   max aug-charges    IRDMAX=  12622
   dimension x,y,z NGX =    60 NGY =   60 NGZ =   60
   dimension x,y,z NGXF=   120 NGYF=  120 NGZF=  120
   support grid    NGXF=   120 NGYF=  120 NGZF=  120
   ions per type =              16  32
   NGX,Y,Z   is equivalent  to a cutoff of  12.08, 12.08, 12.08 a.u.
   NGXF,Y,Z  is equivalent  to a cutoff of  24.15, 24.15, 24.15 a.u.

 SYSTEM =  unknown system                          
 POSCAR =  NiO2_Fd-3m_scale_1_050_disp_0_04_round_1

 Startparameter for this run:
   NWRITE =      1    write-flag & timer
   PREC   = accura    normal or accurate (medium, high low for compatibility)
   ISTART =      0    job   : 0-new  1-cont  2-samecut
   ICHARG =      2    charge: 1-file 2-atom 10-const
   ISPIN  =      1    spin polarized calculation?
   LNONCOLLINEAR =      F non collinear calculations
   LSORBIT =      F    spin-orbit coupling
   INIWAV =      1    electr: 0-lowe 1-rand  2-diag
   LASPH  =      F    aspherical Exc in radial PAW
   METAGGA=      F    non-selfconsistent MetaGGA calc.

 Electronic Relaxation 1
   ENCUT  =  500.0 eV  36.75 Ry    6.06 a.u.  15.06 15.06 15.06*2*pi/ulx,y,z
   ENINI  =  500.0     initial cutoff
   ENAUG  =  605.4 eV  augmentation charge cutoff
   NELM   =    120;   NELMIN=  2; NELMDL= -5     # of ELM steps 
   EDIFF  = 0.1E-04   stopping-criterion for ELM
   LREAL  =      T    real-space projection
   NLSPLINE    = F    spline interpolate recip. space projectors
   LCOMPAT=      F    compatible to vasp.4.4
   GGA_COMPAT  = T    GGA compatible to vasp.4.4-vasp.4.6
   LMAXPAW     = -100 max onsite density
   LMAXMIX     =    2 max onsite mixed and CHGCAR
   VOSKOWN=      1    Vosko Wilk Nusair interpolation
   ROPT   =   -0.00025  -0.00025
 Ionic relaxation
   EDIFFG = 0.1E-03   stopping-criterion for IOM
   NSW    =      0    number of steps for IOM
   NBLOCK =      1;   KBLOCK =      1    inner block; outer block 
   IBRION =     -1    ionic relax: 0-MD 1-quasi-New 2-CG
   NFREE  =      0    steps in history (QN), initial steepest desc. (CG)
   ISIF   =      2    stress and relaxation
   IWAVPR =     10    prediction:  0-non 1-charg 2-wave 3-comb
   ISYM   =      2    0-nonsym 1-usesym 2-fastsym
   LCORR  =      T    Harris-Foulkes like correction to forces

   POTIM  = 0.5000    time-step for ionic-motion
   TEIN   =    0.0    initial temperature
   TEBEG  =    0.0;   TEEND  =   0.0 temperature during run
   SMASS  =  -3.00    Nose mass-parameter (am)
   estimated Nose-frequenzy (Omega)   =  0.10E-29 period in steps =****** mass=  -0.156E-26a.u.
   SCALEE = 1.0000    scale energy and forces
   NPACO  =    256;   APACO  = 16.0  distance and # of slots for P.C.
   PSTRESS=    0.0 pullay stress

  Mass of Ions in am
   POMASS =  58.69 16.00
  Ionic Valenz
   ZVAL   =  10.00  6.00
  Atomic Wigner-Seitz radii
   RWIGS  =   1.15  0.73
  virtual crystal weights 
   VCA    =   1.00  1.00
   NELECT =     352.0000    total number of electrons
   NUPDOWN=      -1.0000    fix difference up-down

 DOS related values:
   EMIN   =  10.00;   EMAX   =-10.00  energy-range for DOS
   EFERMI =   0.00
   ISMEAR =     0;   SIGMA  =   0.05  broadening in eV -4-tet -1-fermi 0-gaus

 Electronic relaxation 2 (details)
   IALGO  =     38    algorithm
   LDIAG  =      T    sub-space diagonalisation (order eigenvalues)
   LSUBROT=      F    optimize rotation matrix (better conditioning)
   TURBO    =      0    0=normal 1=particle mesh
   IRESTART =      0    0=no restart 2=restart with 2 vectors
   NREBOOT  =      0    no. of reboots
   NMIN     =      0    reboot dimension
   EREF     =   0.00    reference energy to select bands
   IMIX   =      4    mixing-type and parameters
     AMIX     =   0.40;   BMIX     =  1.00
     AMIX_MAG =   1.60;   BMIX_MAG =  1.00
     AMIN     =   0.10
     WC   =   100.;   INIMIX=   1;  MIXPRE=   1;  MAXMIX= -45

 Intra band minimization:
   WEIMIN = 0.0000     energy-eigenvalue tresh-hold
   EBREAK =  0.11E-07  absolut break condition
   DEPER  =   0.30     relativ break condition  

   TIME   =   0.40     timestep for ELM

  volume/ion in A,a.u.               =      11.74        79.23
  Fermi-wavevector in a.u.,A,eV,Ry     =   1.399399  2.644481 26.644530  1.958318
  Thomas-Fermi vector in A             =   2.522462
 
 Write flags
   LWAVE        =      F    write WAVECAR
   LDOWNSAMPLE  =      F    k-point downsampling of WAVECAR
   LCHARG       =      T    write CHGCAR
   LVTOT        =      F    write LOCPOT, total local potential
   LVHAR        =      F    write LOCPOT, Hartree potential only
   LELF         =      F    write electronic localiz. function (ELF)
   LORBIT       =      0    0 simple, 1 ext, 2 COOP (PROOUT), +10 PAW based schemes


 Dipole corrections
   LMONO  =      F    monopole corrections only (constant potential shift)
   LDIPOL =      F    correct potential (dipole corrections)
   IDIPOL =      0    1-x, 2-y, 3-z, 4-all directions 
   EPSILON=  1.0000000 bulk dielectric constant

 Exchange correlation treatment:
   GGA     =    PS    GGA type
   LEXCH   =    14    internal setting for exchange type
   VOSKOWN=      1    Vosko Wilk Nusair interpolation
   LHFCALC =     F    Hartree Fock is set to
   LHFONE  =     F    Hartree Fock one center treatment
   AEXX    =    0.0000 exact exchange contribution

 Linear response parameters
   LEPSILON=     F    determine dielectric tensor
   LRPA    =     F    only Hartree local field effects (RPA)
   LNABLA  =     F    use nabla operator in PAW spheres
   LVEL    =     F    velocity operator in full k-point grid
   LINTERFAST=   F  fast interpolation
   KINTER  =     0    interpolate to denser k-point grid
   CSHIFT  =0.1000    complex shift for real part using Kramers Kronig
   OMEGAMAX=  -1.0    maximum frequency
   DEG_THRESHOLD= 0.2000000E-02 threshold for treating states as degnerate
   RTIME   =   -0.100 relaxation time in fs
  (WPLASMAI=    0.000 imaginary part of plasma frequency in eV, 0.658/RTIME)
   DFIELD  = 0.0000000 0.0000000 0.0000000 field for delta impulse in time
 
 Orbital magnetization related:
   ORBITALMAG=     F  switch on orbital magnetization
   LCHIMAG   =     F  perturbation theory with respect to B field
   DQ        =  0.001000  dq finite difference perturbation B field
   LLRAUG    =     F  two centre corrections for induced B field



--------------------------------------------------------------------------------------------------------


 Static calculation
 charge density and potential will be updated during run
 non-spin polarized calculation
 Variant of blocked Davidson
 Davidson routine will perform the subspace rotation
 perform sub-space diagonalisation
    after iterative eigenvector-optimisation
 modified Broyden-mixing scheme, WC =      100.0
 initial mixing is a Kerker type mixing with AMIX =  0.4000 and BMIX =      1.0000
 Hartree-type preconditioning will be used
 using additional bands           48
 real space projection scheme for non local part
 use partial core corrections
 calculate Harris-corrections to forces 
   (improved forces if not selfconsistent)
 use gradient corrections 
 use of overlap-Matrix (Vanderbilt PP)
 Gauss-broadening in eV      SIGMA  =   0.05


--------------------------------------------------------------------------------------------------------


  energy-cutoff  :      500.00
  volume of cell :      563.56
      direct lattice vectors                 reciprocal lattice vectors
     8.260014440  0.000000000  0.000000000     0.121065164  0.000000000  0.000000000
     0.000000000  8.260014440  0.000000000     0.000000000  0.121065164  0.000000000
     0.000000000  0.000000000  8.260014440     0.000000000  0.000000000  0.121065164

  length of vectors
     8.260014440  8.260014440  8.260014440     0.121065164  0.121065164  0.121065164


 
 k-points in units of 2pi/SCALE and weight: Automatic mesh                          
   0.00000000  0.00000000  0.00000000       0.016
   0.03026629  0.00000000  0.00000000       0.031
   0.06053258  0.00000000  0.00000000       0.016
   0.00000000  0.03026629  0.00000000       0.031
   0.03026629  0.03026629  0.00000000       0.031
   0.06053258  0.03026629  0.00000000       0.031
  -0.03026629  0.03026629  0.00000000       0.031
   0.00000000  0.06053258  0.00000000       0.016
   0.03026629  0.06053258  0.00000000       0.031
   0.06053258  0.06053258  0.00000000       0.016
   0.00000000  0.00000000  0.03026629       0.031
   0.03026629  0.00000000  0.03026629       0.031
   0.06053258  0.00000000  0.03026629       0.031
  -0.03026629  0.00000000  0.03026629       0.031
   0.00000000  0.03026629  0.03026629       0.031
   0.03026629  0.03026629  0.03026629       0.031
   0.06053258  0.03026629  0.03026629       0.031
  -0.03026629  0.03026629  0.03026629       0.031
   0.00000000  0.06053258  0.03026629       0.031
   0.03026629  0.06053258  0.03026629       0.031
   0.06053258  0.06053258  0.03026629       0.031
  -0.03026629  0.06053258  0.03026629       0.031
   0.00000000 -0.03026629  0.03026629       0.031
   0.03026629 -0.03026629  0.03026629       0.031
   0.06053258 -0.03026629  0.03026629       0.031
  -0.03026629 -0.03026629  0.03026629       0.031
   0.00000000  0.00000000  0.06053258       0.016
   0.03026629  0.00000000  0.06053258       0.031
   0.06053258  0.00000000  0.06053258       0.016
   0.00000000  0.03026629  0.06053258       0.031
   0.03026629  0.03026629  0.06053258       0.031
   0.06053258  0.03026629  0.06053258       0.031
  -0.03026629  0.03026629  0.06053258       0.031
   0.00000000  0.06053258  0.06053258       0.016
   0.03026629  0.06053258  0.06053258       0.031
   0.06053258  0.06053258  0.06053258       0.016
 
 k-points in reciprocal lattice and weights: Automatic mesh                          
   0.00000000  0.00000000  0.00000000       0.016
   0.25000000  0.00000000  0.00000000       0.031
   0.50000000  0.00000000  0.00000000       0.016
   0.00000000  0.25000000  0.00000000       0.031
   0.25000000  0.25000000  0.00000000       0.031
   0.50000000  0.25000000  0.00000000       0.031
  -0.25000000  0.25000000  0.00000000       0.031
   0.00000000  0.50000000  0.00000000       0.016
   0.25000000  0.50000000  0.00000000       0.031
   0.50000000  0.50000000  0.00000000       0.016
   0.00000000  0.00000000  0.25000000       0.031
   0.25000000  0.00000000  0.25000000       0.031
   0.50000000  0.00000000  0.25000000       0.031
  -0.25000000  0.00000000  0.25000000       0.031
   0.00000000  0.25000000  0.25000000       0.031
   0.25000000  0.25000000  0.25000000       0.031
   0.50000000  0.25000000  0.25000000       0.031
  -0.25000000  0.25000000  0.25000000       0.031
   0.00000000  0.50000000  0.25000000       0.031
   0.25000000  0.50000000  0.25000000       0.031
   0.50000000  0.50000000  0.25000000       0.031
  -0.25000000  0.50000000  0.25000000       0.031
   0.00000000 -0.25000000  0.25000000       0.031
   0.25000000 -0.25000000  0.25000000       0.031
   0.50000000 -0.25000000  0.25000000       0.031
  -0.25000000 -0.25000000  0.25000000       0.031
   0.00000000  0.00000000  0.50000000       0.016
   0.25000000  0.00000000  0.50000000       0.031
   0.50000000  0.00000000  0.50000000       0.016
   0.00000000  0.25000000  0.50000000       0.031
   0.25000000  0.25000000  0.50000000       0.031
   0.50000000  0.25000000  0.50000000       0.031
  -0.25000000  0.25000000  0.50000000       0.031
   0.00000000  0.50000000  0.50000000       0.016
   0.25000000  0.50000000  0.50000000       0.031
   0.50000000  0.50000000  0.50000000       0.016
 
 position of ions in fractional coordinates (direct lattice) 
   0.11399601  0.59126301  0.12226866
   0.36596912  0.82635231  0.12017986
   0.35878750  0.59635777  0.35709479
   0.12778294  0.83995726  0.35587718
   0.11688004  0.12180714  0.59035181
   0.35167578  0.36227381  0.60022812
   0.35783228  0.12191870  0.82843921
   0.11010156  0.35602904  0.83515848
   0.59296199  0.59418002  0.59691325
   0.83231957  0.83530370  0.60017346
   0.82826946  0.60308674  0.82447492
   0.60121949  0.82251258  0.83179894
   0.60151319  0.11988350  0.11843572
   0.83341747  0.36344494  0.12204649
   0.83224522  0.11722413  0.36256657
   0.59715682  0.36024081  0.34963127
   0.82832212  0.13323763  0.13877943
   0.35182578  0.82037111  0.34554248
   0.37618505  0.10926037  0.10838281
   0.10710375  0.10476434  0.37057581
   0.37193986  0.37703060  0.37460987
   0.10147017  0.37154303  0.10303308
   0.60713678  0.12449973  0.34713154
   0.13249448  0.82447127  0.13305286
   0.81934352  0.61881089  0.60122397
   0.33751410  0.34830287  0.82283837
   0.36331906  0.57465024  0.57863258
   0.11143727  0.58273653  0.85220369
   0.36989894  0.85021061  0.83859938
   0.10212423  0.83740433  0.58563433
   0.60974847  0.59900403  0.81396629
   0.13073884  0.34752538  0.61510194
   0.34590632  0.13465557  0.60411178
   0.82155979  0.82052152  0.81660963
   0.84190995  0.10316310  0.58112921
   0.58688098  0.10755118  0.84233138
   0.84708558  0.37359210  0.84055806
   0.57822906  0.38407581  0.58328460
   0.13350931  0.12826397  0.81383558
   0.61139462  0.81022797  0.60497008
   0.34457023  0.60534522  0.13162171
   0.82143937  0.33645389  0.34032207
   0.84478745  0.58063788  0.10101077
   0.58333514  0.57648734  0.36655248
   0.85433509  0.84232202  0.37270137
   0.58335031  0.85290080  0.10422697
   0.13354366  0.61288242  0.34633735
   0.60122221  0.34152914  0.13965070
 
 position of ions in cartesian coordinates  (Angst):
   0.94160869  4.88384100  1.00994090
   3.02291022  6.82568201  0.99268738
   2.96358993  4.92592379  2.94960812
   1.05548893  6.93805910  2.93955065
   0.96543082  1.00612874  4.87631448
   2.90484702  2.99238690  4.95789294
   2.95569980  1.00705022  6.84291984
   0.90944048  2.94080501  6.89842110
   4.89787460  4.90793555  4.93051206
   6.87497167  6.89962062  4.95744145
   6.84151770  4.98150518  6.81017474
   4.96608167  6.79396579  6.87067126
   4.96850764  0.99023944  0.97828076
   6.88404034  3.00206045  1.00810577
   6.87435753  0.96827301  2.99480510
   4.93252396  2.97559429  2.88795934
   6.84195267  1.10054475  1.14632010
   2.90608602  6.77627721  2.85418587
   3.10729395  0.90249223  0.89524358
   0.88467852  0.86535496  3.06096154
   3.07222861  3.11427820  3.09428294
   0.83814507  3.06895079  0.85105473
   5.01495857  1.02836957  2.86731153
   1.09440632  6.81014460  1.09901854
   6.76778931  5.11138689  4.96611867
   2.78787134  2.87698674  6.79665682
   3.00102068  4.74661928  4.77951347
   0.92047346  4.81341215  7.03921479
   3.05537059  7.02275192  6.92684299
   0.84354761  6.91697186  4.83734802
   5.03653117  4.94778194  6.72337331
   1.07990471  2.87056466  5.08075091
   2.85719120  1.11225695  4.98997203
   6.78609573  6.77751960  6.74520734
   6.95418834  0.85212870  4.80013567
   4.84764537  0.88837430  6.95766936
   6.99693912  3.08587614  6.94302171
   4.77618039  3.17247174  4.81793922
   1.10278883  1.05946224  6.72229364
   5.05012839  6.69249473  4.99706160
   2.84615508  5.00016026  1.08719723
   6.78510106  2.77911399  2.81106521
   6.97795654  4.79607727  0.83435042
   4.81835668  4.76179375  3.02772878
   7.05682018  6.95759205  3.07851870
   4.81848198  7.04497292  0.86091628
   1.10307256  5.06241764  2.86075151
   4.96610414  2.82103563  1.15351680
 


--------------------------------------------------------------------------------------------------------


 k-point  1 :   0.0000 0.0000 0.0000  plane waves:   14243
 k-point  2 :   0.2500 0.0000 0.0000  plane waves:   14306
 k-point  3 :   0.5000 0.0000 0.0000  plane waves:   14286
 k-point  4 :   0.0000 0.2500 0.0000  plane waves:   14306
 k-point  5 :   0.2500 0.2500 0.0000  plane waves:   14335
 k-point  6 :   0.5000 0.2500 0.0000  plane waves:   14260
 k-point  7 :  -0.2500 0.2500 0.0000  plane waves:   14335
 k-point  8 :   0.0000 0.5000 0.0000  plane waves:   14286
 k-point  9 :   0.2500 0.5000 0.0000  plane waves:   14260
 k-point 10 :   0.5000 0.5000 0.0000  plane waves:   14332
 k-point 11 :   0.0000 0.0000 0.2500  plane waves:   14306
 k-point 12 :   0.2500 0.0000 0.2500  plane waves:   14335
 k-point 13 :   0.5000 0.0000 0.2500  plane waves:   14260
 k-point 14 :  -0.2500 0.0000 0.2500  plane waves:   14335
 k-point 15 :   0.0000 0.2500 0.2500  plane waves:   14335
 k-point 16 :   0.2500 0.2500 0.2500  plane waves:   14330
 k-point 17 :   0.5000 0.2500 0.2500  plane waves:   14288
 k-point 18 :  -0.2500 0.2500 0.2500  plane waves:   14330
 k-point 19 :   0.0000 0.5000 0.2500  plane waves:   14260
 k-point 20 :   0.2500 0.5000 0.2500  plane waves:   14288
 k-point 21 :   0.5000 0.5000 0.2500  plane waves:   14336
 k-point 22 :  -0.2500 0.5000 0.2500  plane waves:   14288
 k-point 23 :   0.0000-0.2500 0.2500  plane waves:   14335
 k-point 24 :   0.2500-0.2500 0.2500  plane waves:   14330
 k-point 25 :   0.5000-0.2500 0.2500  plane waves:   14288
 k-point 26 :  -0.2500-0.2500 0.2500  plane waves:   14330
 k-point 27 :   0.0000 0.0000 0.5000  plane waves:   14286
 k-point 28 :   0.2500 0.0000 0.5000  plane waves:   14260
 k-point 29 :   0.5000 0.0000 0.5000  plane waves:   14332
 k-point 30 :   0.0000 0.2500 0.5000  plane waves:   14260
 k-point 31 :   0.2500 0.2500 0.5000  plane waves:   14288
 k-point 32 :   0.5000 0.2500 0.5000  plane waves:   14336
 k-point 33 :  -0.2500 0.2500 0.5000  plane waves:   14288
 k-point 34 :   0.0000 0.5000 0.5000  plane waves:   14332
 k-point 35 :   0.2500 0.5000 0.5000  plane waves:   14336
 k-point 36 :   0.5000 0.5000 0.5000  plane waves:   14400

 maximum and minimum number of plane-waves per node :     14400    14243

 maximum number of plane-waves:     14400
 maximum index in each direction: 
   IXMAX=   15   IYMAX=   15   IZMAX=   15
   IXMIN=  -15   IYMIN=  -15   IZMIN=  -15

 The following grids will avoid any aliasing or wrap around errors in the Hartre
 e energy
  - symmetry arguments have not been applied
  - exchange correlation energies might require even more grid points
  - we recommend to set PREC=Normal or Accurate and rely on VASP defaults
 WARNING: aliasing errors must be expected set NGX to    64 to avoid them
 WARNING: aliasing errors must be expected set NGY to    64 to avoid them
 WARNING: aliasing errors must be expected set NGZ to    64 to avoid them

 serial   3D FFT for wavefunctions
 parallel 3D FFT for charge:
    minimum data exchange during FFTs selected (reduces bandwidth)


 total amount of memory used by VASP MPI-rank0   192751. kBytes
=======================================================================

   base      :      30000. kBytes
   nonlr-proj:      21521. kBytes
   fftplans  :       4751. kBytes
   grid      :      15225. kBytes
   one-center:        746. kBytes
   wavefun   :     120508. kBytes
 
     INWAV:  cpu time    0.0000: real time    0.0000
 Broyden mixing: mesh for mixing (old mesh)
   NGX = 31   NGY = 31   NGZ = 31
  (NGX  =120   NGY  =120   NGZ  =120)
  gives a total of  29791 points

 initial charge density was supplied:
 charge density of overlapping atoms calculated
 number of electron     352.0000000 magnetization 
 keeping initial charge density in first step


--------------------------------------------------------------------------------------------------------


 Maximum index for non-local projection operator         5007
 Maximum index for augmentation-charges          872 (set IRDMAX)


--------------------------------------------------------------------------------------------------------


 First call to EWALD:  gamma=   0.215
 Maximum number of real-space cells 3x 3x 3
 Maximum number of reciprocal cells 3x 3x 3

    FEWALD:  cpu time    0.0025: real time    0.0025


--------------------------------------- Iteration      1(   1)  ---------------------------------------


    POTLOK:  cpu time    0.0804: real time    0.1140
    SETDIJ:  cpu time    0.0065: real time    0.0065
     EDDAV:  cpu time   36.3357: real time   36.4387
    --------------------------------------------
      LOOP:  cpu time   36.4248: real time   36.5613

 eigenvalue-minimisations  : 16128
 total energy-change (2. order) : 0.4437998E+04  (-0.1552467E+05)
 number of electron     352.0000000 magnetization 
 augmentation part      352.0000000 magnetization 

 Free energy of the ion-electron system (eV)
  ---------------------------------------------------
  alpha Z        PSCENC =       972.54880997
  Ewald energy   TEWEN  =    -18811.66362552
  -Hartree energ DENC   =    -12664.37200742
  -exchange      EXHF   =         0.00000000
  -V(xc)+E(xc)   XCENC  =      1400.42561096
  PAW double counting   =     26475.20327555   -27591.76617206
  entropy T*S    EENTRO =        -0.00704616
  eigenvalues    EBANDS =      3643.95695170
  atomic energy  EATOM  =     31013.67235384
  Solvation  Ediel_sol  =         0.00000000
  ---------------------------------------------------
  free energy    TOTEN  =      4437.99815087 eV

  energy without entropy =     4438.00519702  energy(sigma->0) =     4438.00167395


--------------------------------------------------------------------------------------------------------




--------------------------------------- Iteration      1(   2)  ---------------------------------------


     EDDAV:  cpu time   37.8015: real time   37.8913
    --------------------------------------------
      LOOP:  cpu time   37.8016: real time   37.8914

 eigenvalue-minimisations  : 16816
 total energy-change (2. order) :-0.3900973E+04  (-0.3563292E+04)
 number of electron     352.0000000 magnetization 
 augmentation part      352.0000000 magnetization 

 Free energy of the ion-electron system (eV)
  ---------------------------------------------------
  alpha Z        PSCENC =       972.54880997
  Ewald energy   TEWEN  =    -18811.66362552
  -Hartree energ DENC   =    -12664.37200742
  -exchange      EXHF   =         0.00000000
  -V(xc)+E(xc)   XCENC  =      1400.42561096
  PAW double counting   =     26475.20327555   -27591.76617206
  entropy T*S    EENTRO =        -0.02778388
  eigenvalues    EBANDS =      -256.99483552
  atomic energy  EATOM  =     31013.67235384
  Solvation  Ediel_sol  =         0.00000000
  ---------------------------------------------------
  free energy    TOTEN  =       537.02562592 eV

  energy without entropy =      537.05340981  energy(sigma->0) =      537.03951787


--------------------------------------------------------------------------------------------------------




--------------------------------------- Iteration      1(   3)  ---------------------------------------


     EDDAV:  cpu time   38.1637: real time   38.2542
    --------------------------------------------
      LOOP:  cpu time   38.1625: real time   38.2530

 eigenvalue-minimisations  : 17360
 total energy-change (2. order) :-0.8679370E+03  (-0.7702485E+03)
 number of electron     352.0000000 magnetization 
 augmentation part      352.0000000 magnetization 

 Free energy of the ion-electron system (eV)
  ---------------------------------------------------
  alpha Z        PSCENC =       972.54880997
  Ewald energy   TEWEN  =    -18811.66362552
  -Hartree energ DENC   =    -12664.37200742
  -exchange      EXHF   =         0.00000000
  -V(xc)+E(xc)   XCENC  =      1400.42561096
  PAW double counting   =     26475.20327555   -27591.76617206
  entropy T*S    EENTRO =        -0.00000000
  eigenvalues    EBANDS =     -1124.95963665
  atomic energy  EATOM  =     31013.67235384
  Solvation  Ediel_sol  =         0.00000000
  ---------------------------------------------------
  free energy    TOTEN  =      -330.91139133 eV

  energy without entropy =     -330.91139133  energy(sigma->0) =     -330.91139133


--------------------------------------------------------------------------------------------------------




--------------------------------------- Iteration      1(   4)  ---------------------------------------


     EDDAV:  cpu time   38.3649: real time   38.4557
    --------------------------------------------
      LOOP:  cpu time   38.3647: real time   38.4556

 eigenvalue-minimisations  : 17280
 total energy-change (2. order) :-0.8023239E+02  (-0.7871190E+02)
 number of electron     352.0000000 magnetization 
 augmentation part      352.0000000 magnetization 

 Free energy of the ion-electron system (eV)
  ---------------------------------------------------
  alpha Z        PSCENC =       972.54880997
  Ewald energy   TEWEN  =    -18811.66362552
  -Hartree energ DENC   =    -12664.37200742
  -exchange      EXHF   =         0.00000000
  -V(xc)+E(xc)   XCENC  =      1400.42561096
  PAW double counting   =     26475.20327555   -27591.76617206
  entropy T*S    EENTRO =        -0.00000000
  eigenvalues    EBANDS =     -1205.19202892
  atomic energy  EATOM  =     31013.67235384
  Solvation  Ediel_sol  =         0.00000000
  ---------------------------------------------------
  free energy    TOTEN  =      -411.14378360 eV

  energy without entropy =     -411.14378360  energy(sigma->0) =     -411.14378360


--------------------------------------------------------------------------------------------------------




--------------------------------------- Iteration      1(   5)  ---------------------------------------


     EDDAV:  cpu time   38.9470: real time   39.0395
    CHARGE:  cpu time    1.6859: real time    1.6899
    MIXING:  cpu time    0.0022: real time    0.0022
    --------------------------------------------
      LOOP:  cpu time   40.6342: real time   40.7307

 eigenvalue-minimisations  : 17648
 total energy-change (2. order) :-0.2372337E+01  (-0.2361883E+01)
 number of electron     351.9999998 magnetization 
 augmentation part       99.5634284 magnetization 

 Broyden mixing:
  rms(total) = 0.10726E+02    rms(broyden)= 0.10720E+02
  rms(prec ) = 0.14504E+02
  weight for this iteration     100.00

 Free energy of the ion-electron system (eV)
  ---------------------------------------------------
  alpha Z        PSCENC =       972.54880997
  Ewald energy   TEWEN  =    -18811.66362552
  -Hartree energ DENC   =    -12664.37200742
  -exchange      EXHF   =         0.00000000
  -V(xc)+E(xc)   XCENC  =      1400.42561096
  PAW double counting   =     26475.20327555   -27591.76617206
  entropy T*S    EENTRO =        -0.00000000
  eigenvalues    EBANDS =     -1207.56436588
  atomic energy  EATOM  =     31013.67235384
  Solvation  Ediel_sol  =         0.00000000
  ---------------------------------------------------
  free energy    TOTEN  =      -413.51612055 eV

  energy without entropy =     -413.51612055  energy(sigma->0) =     -413.51612055


--------------------------------------------------------------------------------------------------------




--------------------------------------- Iteration      1(   6)  ---------------------------------------


    POTLOK:  cpu time    0.0598: real time    0.0600
    SETDIJ:  cpu time    0.0064: real time    0.0064
     EDDAV:  cpu time   51.3244: real time   51.4461
    CHARGE:  cpu time    1.8173: real time    1.8216
    MIXING:  cpu time    0.0020: real time    0.0020
    --------------------------------------------
      LOOP:  cpu time   53.2099: real time   53.3361

 eigenvalue-minimisations  : 25104
 total energy-change (2. order) :-0.1518212E+03  (-0.1072743E+03)
 number of electron     352.0000030 magnetization 
 augmentation part      139.4448106 magnetization 

 Broyden mixing:
  rms(total) = 0.21254E+02    rms(broyden)= 0.21252E+02
  rms(prec ) = 0.25084E+02
  weight for this iteration     100.00

 eigenvalues of (default mixing * dielectric matrix)
  average eigenvalue GAMMA=   0.1799
  0.1799

 Free energy of the ion-electron system (eV)
  ---------------------------------------------------
  alpha Z        PSCENC =       972.54880997
  Ewald energy   TEWEN  =    -18811.66362552
  -Hartree energ DENC   =    -11995.64261349
  -exchange      EXHF   =         0.00000000
  -V(xc)+E(xc)   XCENC  =      1395.68989307
  PAW double counting   =     28528.14668059   -29443.79161267
  entropy T*S    EENTRO =        -0.06351172
  eigenvalues    EBANDS =     -2224.23364743
  atomic energy  EATOM  =     31013.67235384
  Solvation  Ediel_sol  =         0.00000000
  ---------------------------------------------------
  free energy    TOTEN  =      -565.33727336 eV

  energy without entropy =     -565.27376164  energy(sigma->0) =     -565.30551750


--------------------------------------------------------------------------------------------------------




--------------------------------------- Iteration      1(   7)  ---------------------------------------


    POTLOK:  cpu time    0.0578: real time    0.0579
    SETDIJ:  cpu time    0.0063: real time    0.0063
     EDDAV:  cpu time   46.8155: real time   46.9267
    CHARGE:  cpu time    1.5325: real time    1.5361
    MIXING:  cpu time    0.0021: real time    0.0021
    --------------------------------------------
      LOOP:  cpu time   48.4143: real time   48.5292

 eigenvalue-minimisations  : 22512
 total energy-change (2. order) : 0.2274872E+03  (-0.2856377E+02)
 number of electron     352.0000026 magnetization 
 augmentation part      127.1472836 magnetization 

 Broyden mixing:
  rms(total) = 0.81812E+01    rms(broyden)= 0.81797E+01
  rms(prec ) = 0.11568E+02
  weight for this iteration     100.00

 eigenvalues of (default mixing * dielectric matrix)
  average eigenvalue GAMMA=   0.4945
  0.4945  0.4945

 Free energy of the ion-electron system (eV)
  ---------------------------------------------------
  alpha Z        PSCENC =       972.54880997
  Ewald energy   TEWEN  =    -18811.66362552
  -Hartree energ DENC   =    -12283.42319324
  -exchange      EXHF   =         0.00000000
  -V(xc)+E(xc)   XCENC  =      1399.42191424
  PAW double counting   =     29767.27817834   -30817.04494367
  entropy T*S    EENTRO =        -0.00137570
  eigenvalues    EBANDS =     -1578.63816682
  atomic energy  EATOM  =     31013.67235384
  Solvation  Ediel_sol  =         0.00000000
  ---------------------------------------------------
  free energy    TOTEN  =      -337.85004857 eV

  energy without entropy =     -337.84867287  energy(sigma->0) =     -337.84936072


--------------------------------------------------------------------------------------------------------




--------------------------------------- Iteration      1(   8)  ---------------------------------------


    POTLOK:  cpu time    0.0572: real time    0.0574
    SETDIJ:  cpu time    0.0062: real time    0.0063
     EDDAV:  cpu time   52.3845: real time   52.5087
    CHARGE:  cpu time    1.7627: real time    1.7669
    MIXING:  cpu time    0.0021: real time    0.0021
    --------------------------------------------
      LOOP:  cpu time   54.2128: real time   54.3413

 eigenvalue-minimisations  : 25232
 total energy-change (2. order) : 0.8428860E+01  (-0.1052592E+02)
 number of electron     352.0000023 magnetization 
 augmentation part      124.0638521 magnetization 

 Broyden mixing:
  rms(total) = 0.10026E+02    rms(broyden)= 0.10024E+02
  rms(prec ) = 0.15006E+02
  weight for this iteration     100.00

 eigenvalues of (default mixing * dielectric matrix)
  average eigenvalue GAMMA=   0.4690
  0.6082  0.6082  0.1908

 Free energy of the ion-electron system (eV)
  ---------------------------------------------------
  alpha Z        PSCENC =       972.54880997
  Ewald energy   TEWEN  =    -18811.66362552
  -Hartree energ DENC   =    -12311.33342431
  -exchange      EXHF   =         0.00000000
  -V(xc)+E(xc)   XCENC  =      1397.98675072
  PAW double counting   =     30464.37310018   -31580.76857109
  entropy T*S    EENTRO =        -0.07707838
  eigenvalues    EBANDS =     -1474.15950439
  atomic energy  EATOM  =     31013.67235384
  Solvation  Ediel_sol  =         0.00000000
  ---------------------------------------------------
  free energy    TOTEN  =      -329.42118898 eV

  energy without entropy =     -329.34411060  energy(sigma->0) =     -329.38264979


--------------------------------------------------------------------------------------------------------




--------------------------------------- Iteration      1(   9)  ---------------------------------------


    POTLOK:  cpu time    0.0570: real time    0.0571
    SETDIJ:  cpu time    0.0065: real time    0.0065
     EDDAV:  cpu time   45.8112: real time   45.9197
    CHARGE:  cpu time    1.6643: real time    1.6683
    MIXING:  cpu time    0.0022: real time    0.0022
    --------------------------------------------
      LOOP:  cpu time   47.5412: real time   47.6538

 eigenvalue-minimisations  : 21872
 total energy-change (2. order) : 0.5655181E+01  (-0.1442296E+02)
 number of electron     352.0000011 magnetization 
 augmentation part      108.0372154 magnetization 

 Broyden mixing:
  rms(total) = 0.10082E+02    rms(broyden)= 0.10081E+02
  rms(prec ) = 0.16639E+02
  weight for this iteration     100.00

 eigenvalues of (default mixing * dielectric matrix)
  average eigenvalue GAMMA=   0.4072
  0.6349  0.6349  0.1795  0.1795

 Free energy of the ion-electron system (eV)
  ---------------------------------------------------
  alpha Z        PSCENC =       972.54880997
  Ewald energy   TEWEN  =    -18811.66362552
  -Hartree energ DENC   =    -12405.16581741
  -exchange      EXHF   =         0.00000000
  -V(xc)+E(xc)   XCENC  =      1396.75745359
  PAW double counting   =     31332.74602648   -32483.10970046
  entropy T*S    EENTRO =        -0.06538649
  eigenvalues    EBANDS =     -1339.48612242
  atomic energy  EATOM  =     31013.67235384
  Solvation  Ediel_sol  =         0.00000000
  ---------------------------------------------------
  free energy    TOTEN  =      -323.76600842 eV

  energy without entropy =     -323.70062193  energy(sigma->0) =     -323.73331517


--------------------------------------------------------------------------------------------------------




--------------------------------------- Iteration      1(  10)  ---------------------------------------


    POTLOK:  cpu time    0.0579: real time    0.0580
    SETDIJ:  cpu time    0.0063: real time    0.0063
     EDDAV:  cpu time   47.4635: real time   47.5760
    CHARGE:  cpu time    1.8049: real time    1.8091
    MIXING:  cpu time    0.0022: real time    0.0022
    --------------------------------------------
      LOOP:  cpu time   49.3347: real time   49.4517

 eigenvalue-minimisations  : 22752
 total energy-change (2. order) : 0.1760121E+02  (-0.6262929E+01)
 number of electron     352.0000013 magnetization 
 augmentation part      109.1650469 magnetization 

 Broyden mixing:
  rms(total) = 0.42848E+01    rms(broyden)= 0.42813E+01
  rms(prec ) = 0.62945E+01
  weight for this iteration     100.00

 eigenvalues of (default mixing * dielectric matrix)
  average eigenvalue GAMMA=   0.5086
  1.3576  0.4263  0.4263  0.2387  0.0943

 Free energy of the ion-electron system (eV)
  ---------------------------------------------------
  alpha Z        PSCENC =       972.54880997
  Ewald energy   TEWEN  =    -18811.66362552
  -Hartree energ DENC   =    -12383.05719209
  -exchange      EXHF   =         0.00000000
  -V(xc)+E(xc)   XCENC  =      1396.21504214
  PAW double counting   =     31684.58593266   -32840.34174834
  entropy T*S    EENTRO =        -0.00062270
  eigenvalues    EBANDS =     -1338.12374670
  atomic energy  EATOM  =     31013.67235384
  Solvation  Ediel_sol  =         0.00000000
  ---------------------------------------------------
  free energy    TOTEN  =      -306.16479675 eV

  energy without entropy =     -306.16417405  energy(sigma->0) =     -306.16448540


--------------------------------------------------------------------------------------------------------




--------------------------------------- Iteration      1(  11)  ---------------------------------------


    POTLOK:  cpu time    0.0572: real time    0.0574
    SETDIJ:  cpu time    0.0063: real time    0.0064
     EDDAV:  cpu time   51.6884: real time   51.8109
    CHARGE:  cpu time    1.5653: real time    1.5690
    MIXING:  cpu time    0.0023: real time    0.0023
    --------------------------------------------
      LOOP:  cpu time   53.3196: real time   53.4459

 eigenvalue-minimisations  : 25248
 total energy-change (2. order) : 0.1454677E+02  (-0.1523378E+01)
 number of electron     352.0000012 magnetization 
 augmentation part      112.1985909 magnetization 

 Broyden mixing:
  rms(total) = 0.33385E+01    rms(broyden)= 0.33375E+01
  rms(prec ) = 0.50584E+01
  weight for this iteration     100.00

 eigenvalues of (default mixing * dielectric matrix)
  average eigenvalue GAMMA=   0.4792
  1.4703  0.4397  0.4397  0.2617  0.1598  0.1040

 Free energy of the ion-electron system (eV)
  ---------------------------------------------------
  alpha Z        PSCENC =       972.54880997
  Ewald energy   TEWEN  =    -18811.66362552
  -Hartree energ DENC   =    -12325.03783749
  -exchange      EXHF   =         0.00000000
  -V(xc)+E(xc)   XCENC  =      1395.12520145
  PAW double counting   =     32378.45915837   -33538.42928553
  entropy T*S    EENTRO =        -0.03674667
  eigenvalues    EBANDS =     -1376.25605573
  atomic energy  EATOM  =     31013.67235384
  Solvation  Ediel_sol  =         0.00000000
  ---------------------------------------------------
  free energy    TOTEN  =      -291.61802732 eV

  energy without entropy =     -291.58128064  energy(sigma->0) =     -291.59965398


--------------------------------------------------------------------------------------------------------




--------------------------------------- Iteration      1(  12)  ---------------------------------------


    POTLOK:  cpu time    0.0573: real time    0.0574
    SETDIJ:  cpu time    0.0063: real time    0.0064
     EDDAV:  cpu time   46.3430: real time   46.4528
    CHARGE:  cpu time    1.4657: real time    1.4691
    MIXING:  cpu time    0.0024: real time    0.0024
    --------------------------------------------
      LOOP:  cpu time   47.8747: real time   47.9881

 eigenvalue-minimisations  : 22064
 total energy-change (2. order) : 0.3631856E+01  (-0.1236283E+01)
 number of electron     352.0000012 magnetization 
 augmentation part      113.7246390 magnetization 

 Broyden mixing:
  rms(total) = 0.20690E+01    rms(broyden)= 0.20682E+01
  rms(prec ) = 0.30977E+01
  weight for this iteration     100.00

 eigenvalues of (default mixing * dielectric matrix)
  average eigenvalue GAMMA=   0.4593
  1.4229  0.4624  0.4624  0.4019  0.2152  0.0996  0.1508

 Free energy of the ion-electron system (eV)
  ---------------------------------------------------
  alpha Z        PSCENC =       972.54880997
  Ewald energy   TEWEN  =    -18811.66362552
  -Hartree energ DENC   =    -12305.61297842
  -exchange      EXHF   =         0.00000000
  -V(xc)+E(xc)   XCENC  =      1394.88857266
  PAW double counting   =     32635.73604741   -33793.12867351
  entropy T*S    EENTRO =        -0.00002130
  eigenvalues    EBANDS =     -1394.42665608
  atomic energy  EATOM  =     31013.67235384
  Solvation  Ediel_sol  =         0.00000000
  ---------------------------------------------------
  free energy    TOTEN  =      -287.98617095 eV

  energy without entropy =     -287.98614965  energy(sigma->0) =     -287.98616030


--------------------------------------------------------------------------------------------------------




--------------------------------------- Iteration      1(  13)  ---------------------------------------


    POTLOK:  cpu time    0.0569: real time    0.0570
    SETDIJ:  cpu time    0.0062: real time    0.0063
     EDDAV:  cpu time   48.2759: real time   48.3903
    CHARGE:  cpu time    1.7285: real time    1.7326
    MIXING:  cpu time    0.0026: real time    0.0026
    --------------------------------------------
      LOOP:  cpu time   50.0701: real time   50.1888

 eigenvalue-minimisations  : 23152
 total energy-change (2. order) : 0.2592720E+01  (-0.4352542E+00)
 number of electron     352.0000015 magnetization 
 augmentation part      114.4324460 magnetization 

 Broyden mixing:
  rms(total) = 0.12684E+01    rms(broyden)= 0.12679E+01
  rms(prec ) = 0.18499E+01
  weight for this iteration     100.00

 eigenvalues of (default mixing * dielectric matrix)
  average eigenvalue GAMMA=   0.4388
  1.3622  0.4936  0.4936  0.4182  0.2501  0.2501  0.1005  0.1423

 Free energy of the ion-electron system (eV)
  ---------------------------------------------------
  alpha Z        PSCENC =       972.54880997
  Ewald energy   TEWEN  =    -18811.66362552
  -Hartree energ DENC   =    -12299.95786043
  -exchange      EXHF   =         0.00000000
  -V(xc)+E(xc)   XCENC  =      1394.93421766
  PAW double counting   =     32792.62965466   -33949.04831236
  entropy T*S    EENTRO =        -0.00000003
  eigenvalues    EBANDS =     -1398.50868833
  atomic energy  EATOM  =     31013.67235384
  Solvation  Ediel_sol  =         0.00000000
  ---------------------------------------------------
  free energy    TOTEN  =      -285.39345055 eV

  energy without entropy =     -285.39345051  energy(sigma->0) =     -285.39345053


--------------------------------------------------------------------------------------------------------




--------------------------------------- Iteration      1(  14)  ---------------------------------------


    POTLOK:  cpu time    0.0603: real time    0.0605
    SETDIJ:  cpu time    0.0068: real time    0.0068
     EDDAV:  cpu time   48.7266: real time   48.8422
    CHARGE:  cpu time    1.6236: real time    1.6275
    MIXING:  cpu time    0.0027: real time    0.0027
    --------------------------------------------
      LOOP:  cpu time   50.4200: real time   50.5396

 eigenvalue-minimisations  : 23472
 total energy-change (2. order) : 0.5971923E+00  (-0.1785242E+00)
 number of electron     352.0000013 magnetization 
 augmentation part      114.4413626 magnetization 

 Broyden mixing:
  rms(total) = 0.87559E+00    rms(broyden)= 0.87540E+00
  rms(prec ) = 0.12708E+01
  weight for this iteration     100.00

 eigenvalues of (default mixing * dielectric matrix)
  average eigenvalue GAMMA=   0.4621
  1.3294  0.6230  0.6230  0.4623  0.4623  0.2241  0.1953  0.1002  0.1395

 Free energy of the ion-electron system (eV)
  ---------------------------------------------------
  alpha Z        PSCENC =       972.54880997
  Ewald energy   TEWEN  =    -18811.66362552
  -Hartree energ DENC   =    -12300.30025921
  -exchange      EXHF   =         0.00000000
  -V(xc)+E(xc)   XCENC  =      1394.96401664
  PAW double counting   =     32841.40313354   -33997.55263968
  entropy T*S    EENTRO =        -0.00000000
  eigenvalues    EBANDS =     -1397.86804780
  atomic energy  EATOM  =     31013.67235384
  Solvation  Ediel_sol  =         0.00000000
  ---------------------------------------------------
  free energy    TOTEN  =      -284.79625823 eV

  energy without entropy =     -284.79625823  energy(sigma->0) =     -284.79625823


--------------------------------------------------------------------------------------------------------




--------------------------------------- Iteration      1(  15)  ---------------------------------------


    POTLOK:  cpu time    0.0578: real time    0.0580
    SETDIJ:  cpu time    0.0064: real time    0.0064
     EDDAV:  cpu time   49.6093: real time   49.7268
    CHARGE:  cpu time    1.5628: real time    1.5665
    MIXING:  cpu time    0.0035: real time    0.0035
    --------------------------------------------
      LOOP:  cpu time   51.2398: real time   51.3612

 eigenvalue-minimisations  : 24064
 total energy-change (2. order) : 0.3181293E+00  (-0.5952487E-01)
 number of electron     352.0000014 magnetization 
 augmentation part      114.6528424 magnetization 

 Broyden mixing:
  rms(total) = 0.67374E+00    rms(broyden)= 0.67363E+00
  rms(prec ) = 0.95552E+00
  weight for this iteration     100.00

 eigenvalues of (default mixing * dielectric matrix)
  average eigenvalue GAMMA=   0.5013
  1.4556  0.8335  0.8335  0.4648  0.4648  0.3151  0.2330  0.1003  0.1738  0.1386

 Free energy of the ion-electron system (eV)
  ---------------------------------------------------
  alpha Z        PSCENC =       972.54880997
  Ewald energy   TEWEN  =    -18811.66362552
  -Hartree energ DENC   =    -12297.72845844
  -exchange      EXHF   =         0.00000000
  -V(xc)+E(xc)   XCENC  =      1394.86520945
  PAW double counting   =     32960.77234275   -34117.20558572
  entropy T*S    EENTRO =        -0.00000002
  eigenvalues    EBANDS =     -1399.73917522
  atomic energy  EATOM  =     31013.67235384
  Solvation  Ediel_sol  =         0.00000000
  ---------------------------------------------------
  free energy    TOTEN  =      -284.47812891 eV

  energy without entropy =     -284.47812889  energy(sigma->0) =     -284.47812890


--------------------------------------------------------------------------------------------------------




--------------------------------------- Iteration      1(  16)  ---------------------------------------


    POTLOK:  cpu time    0.0681: real time    0.0683
    SETDIJ:  cpu time    0.0065: real time    0.0066
     EDDAV:  cpu time   47.3602: real time   47.4724
    CHARGE:  cpu time    1.7432: real time    1.7473
    MIXING:  cpu time    0.0041: real time    0.2531
    --------------------------------------------
      LOOP:  cpu time   49.1822: real time   49.5477

 eigenvalue-minimisations  : 22768
 total energy-change (2. order) : 0.2009023E+00  (-0.4729953E-01)
 number of electron     352.0000015 magnetization 
 augmentation part      115.0352106 magnetization 

 Broyden mixing:
  rms(total) = 0.46307E+00    rms(broyden)= 0.46293E+00
  rms(prec ) = 0.63110E+00
  weight for this iteration     100.00

 eigenvalues of (default mixing * dielectric matrix)
  average eigenvalue GAMMA=   0.5734
  1.9874  1.0067  1.0067  0.4806  0.4806  0.4910  0.2345  0.2118  0.1003  0.1692
  0.1386

 Free energy of the ion-electron system (eV)
  ---------------------------------------------------
  alpha Z        PSCENC =       972.54880997
  Ewald energy   TEWEN  =    -18811.66362552
  -Hartree energ DENC   =    -12293.17522021
  -exchange      EXHF   =         0.00000000
  -V(xc)+E(xc)   XCENC  =      1394.74066016
  PAW double counting   =     33130.59141805   -34287.59264245
  entropy T*S    EENTRO =        -0.00000000
  eigenvalues    EBANDS =     -1403.39898050
  atomic energy  EATOM  =     31013.67235384
  Solvation  Ediel_sol  =         0.00000000
  ---------------------------------------------------
  free energy    TOTEN  =      -284.27722666 eV

  energy without entropy =     -284.27722665  energy(sigma->0) =     -284.27722666


--------------------------------------------------------------------------------------------------------




--------------------------------------- Iteration      1(  17)  ---------------------------------------


    POTLOK:  cpu time    0.0672: real time    0.0674
    SETDIJ:  cpu time    0.0064: real time    0.0064
     EDDAV:  cpu time   50.5514: real time   50.6713
    CHARGE:  cpu time    1.4569: real time    1.4604
    MIXING:  cpu time    0.0029: real time    0.0030
    --------------------------------------------
      LOOP:  cpu time   52.0848: real time   52.2084

 eigenvalue-minimisations  : 24384
 total energy-change (2. order) : 0.7394872E-01  (-0.3485287E-01)
 number of electron     352.0000014 magnetization 
 augmentation part      115.5303823 magnetization 

 Broyden mixing:
  rms(total) = 0.27019E+00    rms(broyden)= 0.27002E+00
  rms(prec ) = 0.38299E+00
  weight for this iteration     100.00

 eigenvalues of (default mixing * dielectric matrix)
  average eigenvalue GAMMA=   0.5821
  2.1722  1.0551  1.0551  0.5782  0.4790  0.4790  0.3185  0.1003  0.2225  0.2180
  0.1689  0.1387

 Free energy of the ion-electron system (eV)
  ---------------------------------------------------
  alpha Z        PSCENC =       972.54880997
  Ewald energy   TEWEN  =    -18811.66362552
  -Hartree energ DENC   =    -12288.33089769
  -exchange      EXHF   =         0.00000000
  -V(xc)+E(xc)   XCENC  =      1394.67890874
  PAW double counting   =     33367.31613169   -34525.55696483
  entropy T*S    EENTRO =        -0.00000002
  eigenvalues    EBANDS =     -1406.86799412
  atomic energy  EATOM  =     31013.67235384
  Solvation  Ediel_sol  =         0.00000000
  ---------------------------------------------------
  free energy    TOTEN  =      -284.20327794 eV

  energy without entropy =     -284.20327792  energy(sigma->0) =     -284.20327793


--------------------------------------------------------------------------------------------------------




--------------------------------------- Iteration      1(  18)  ---------------------------------------


    POTLOK:  cpu time    0.0572: real time    0.0573
    SETDIJ:  cpu time    0.0065: real time    0.0065
     EDDAV:  cpu time   47.2677: real time   47.3797
    CHARGE:  cpu time    1.5890: real time    1.5928
    MIXING:  cpu time    0.0030: real time    0.0030
    --------------------------------------------
      LOOP:  cpu time   48.9233: real time   49.0393

 eigenvalue-minimisations  : 22592
 total energy-change (2. order) :-0.3714751E-02  (-0.2224201E-01)
 number of electron     352.0000015 magnetization 
 augmentation part      115.6165381 magnetization 

 Broyden mixing:
  rms(total) = 0.23610E+00    rms(broyden)= 0.23598E+00
  rms(prec ) = 0.34229E+00
  weight for this iteration     100.00

 eigenvalues of (default mixing * dielectric matrix)
  average eigenvalue GAMMA=   0.5801
  2.2800  0.9992  0.9992  0.8081  0.4733  0.4733  0.4456  0.1003  0.2302  0.2302
  0.1386  0.1674  0.1955

 Free energy of the ion-electron system (eV)
  ---------------------------------------------------
  alpha Z        PSCENC =       972.54880997
  Ewald energy   TEWEN  =    -18811.66362552
  -Hartree energ DENC   =    -12288.31060541
  -exchange      EXHF   =         0.00000000
  -V(xc)+E(xc)   XCENC  =      1394.73592455
  PAW double counting   =     33478.15097252   -34637.34718337
  entropy T*S    EENTRO =        -0.00000001
  eigenvalues    EBANDS =     -1405.99363926
  atomic energy  EATOM  =     31013.67235384
  Solvation  Ediel_sol  =         0.00000000
  ---------------------------------------------------
  free energy    TOTEN  =      -284.20699269 eV

  energy without entropy =     -284.20699268  energy(sigma->0) =     -284.20699269


--------------------------------------------------------------------------------------------------------




--------------------------------------- Iteration      1(  19)  ---------------------------------------


    POTLOK:  cpu time    0.0579: real time    0.0580
    SETDIJ:  cpu time    0.0063: real time    0.0064
     EDDAV:  cpu time   49.3749: real time   49.4960
    CHARGE:  cpu time    1.6015: real time    1.6053
    MIXING:  cpu time    0.0032: real time    0.0032
    --------------------------------------------
      LOOP:  cpu time   51.0438: real time   51.1689

 eigenvalue-minimisations  : 24064
 total energy-change (2. order) : 0.2624242E-01  (-0.7567983E-02)
 number of electron     352.0000015 magnetization 
 augmentation part      115.6030160 magnetization 

 Broyden mixing:
  rms(total) = 0.12354E+00    rms(broyden)= 0.12346E+00
  rms(prec ) = 0.17949E+00
  weight for this iteration     100.00

 eigenvalues of (default mixing * dielectric matrix)
  average eigenvalue GAMMA=   0.5745
  2.3402  1.0947  0.9106  0.9106  0.4721  0.4721  0.4832  0.3071  0.1003  0.2422
  0.2180  0.1386  0.1679  0.1852

 Free energy of the ion-electron system (eV)
  ---------------------------------------------------
  alpha Z        PSCENC =       972.54880997
  Ewald energy   TEWEN  =    -18811.66362552
  -Hartree energ DENC   =    -12288.99047577
  -exchange      EXHF   =         0.00000000
  -V(xc)+E(xc)   XCENC  =      1394.76247584
  PAW double counting   =     33532.66628896   -34692.56410173
  entropy T*S    EENTRO =        -0.00000004
  eigenvalues    EBANDS =     -1404.61247582
  atomic energy  EATOM  =     31013.67235384
  Solvation  Ediel_sol  =         0.00000000
  ---------------------------------------------------
  free energy    TOTEN  =      -284.18075028 eV

  energy without entropy =     -284.18075023  energy(sigma->0) =     -284.18075025


--------------------------------------------------------------------------------------------------------




--------------------------------------- Iteration      1(  20)  ---------------------------------------


    POTLOK:  cpu time    0.0570: real time    0.0571
    SETDIJ:  cpu time    0.0064: real time    0.0064
     EDDAV:  cpu time   48.7061: real time   48.8319
    CHARGE:  cpu time    1.4802: real time    1.4837
    MIXING:  cpu time    0.0033: real time    0.0033
    --------------------------------------------
      LOOP:  cpu time   50.2529: real time   50.3824

 eigenvalue-minimisations  : 23552
 total energy-change (2. order) : 0.3903274E-02  (-0.2679112E-02)
 number of electron     352.0000015 magnetization 
 augmentation part      115.5672429 magnetization 

 Broyden mixing:
  rms(total) = 0.93293E-01    rms(broyden)= 0.93260E-01
  rms(prec ) = 0.13579E+00
  weight for this iteration     100.00

 eigenvalues of (default mixing * dielectric matrix)
  average eigenvalue GAMMA=   0.5807
  2.4092  1.2910  0.9208  0.9208  0.4754  0.4754  0.5484  0.4155  0.1003  0.2500
  0.2215  0.2074  0.1386  0.1710  0.1653

 Free energy of the ion-electron system (eV)
  ---------------------------------------------------
  alpha Z        PSCENC =       972.54880997
  Ewald energy   TEWEN  =    -18811.66362552
  -Hartree energ DENC   =    -12289.15666920
  -exchange      EXHF   =         0.00000000
  -V(xc)+E(xc)   XCENC  =      1394.74383415
  PAW double counting   =     33547.50938487   -34707.63263523
  entropy T*S    EENTRO =        -0.00000002
  eigenvalues    EBANDS =     -1404.19829986
  atomic energy  EATOM  =     31013.67235384
  Solvation  Ediel_sol  =         0.00000000
  ---------------------------------------------------
  free energy    TOTEN  =      -284.17684700 eV

  energy without entropy =     -284.17684698  energy(sigma->0) =     -284.17684699


--------------------------------------------------------------------------------------------------------




--------------------------------------- Iteration      1(  21)  ---------------------------------------


    POTLOK:  cpu time    0.0572: real time    0.0573
    SETDIJ:  cpu time    0.0063: real time    0.0063
     EDDAV:  cpu time   50.0049: real time   50.1232
    CHARGE:  cpu time    1.5281: real time    1.5317
    MIXING:  cpu time    0.0036: real time    0.0036
    --------------------------------------------
      LOOP:  cpu time   51.6001: real time   51.7222

 eigenvalue-minimisations  : 24160
 total energy-change (2. order) : 0.4425577E-02  (-0.8773156E-03)
 number of electron     352.0000015 magnetization 
 augmentation part      115.5332707 magnetization 

 Broyden mixing:
  rms(total) = 0.49551E-01    rms(broyden)= 0.49534E-01
  rms(prec ) = 0.70228E-01
  weight for this iteration     100.00

 eigenvalues of (default mixing * dielectric matrix)
  average eigenvalue GAMMA=   0.5797
  2.4286  1.3252  0.9319  0.9319  0.4792  0.4792  0.5036  0.5036  0.4501  0.1003
  0.2331  0.2331  0.2013  0.1386  0.1710  0.1647

 Free energy of the ion-electron system (eV)
  ---------------------------------------------------
  alpha Z        PSCENC =       972.54880997
  Ewald energy   TEWEN  =    -18811.66362552
  -Hartree energ DENC   =    -12288.97522997
  -exchange      EXHF   =         0.00000000
  -V(xc)+E(xc)   XCENC  =      1394.70093710
  PAW double counting   =     33559.42367455   -34719.69023071
  entropy T*S    EENTRO =        -0.00000002
  eigenvalues    EBANDS =     -1404.18911066
  atomic energy  EATOM  =     31013.67235384
  Solvation  Ediel_sol  =         0.00000000
  ---------------------------------------------------
  free energy    TOTEN  =      -284.17242142 eV

  energy without entropy =     -284.17242140  energy(sigma->0) =     -284.17242141


--------------------------------------------------------------------------------------------------------




--------------------------------------- Iteration      1(  22)  ---------------------------------------


    POTLOK:  cpu time    0.0571: real time    0.0572
    SETDIJ:  cpu time    0.0063: real time    0.0063
     EDDAV:  cpu time   48.7058: real time   48.8219
    CHARGE:  cpu time    1.4455: real time    1.4489
    MIXING:  cpu time    0.0036: real time    0.0036
    --------------------------------------------
      LOOP:  cpu time   50.2183: real time   50.3379

 eigenvalue-minimisations  : 23600
 total energy-change (2. order) : 0.6326657E-03  (-0.2747646E-03)
 number of electron     352.0000015 magnetization 
 augmentation part      115.5295050 magnetization 

 Broyden mixing:
  rms(total) = 0.39717E-01    rms(broyden)= 0.39710E-01
  rms(prec ) = 0.56456E-01
  weight for this iteration     100.00

 eigenvalues of (default mixing * dielectric matrix)
  average eigenvalue GAMMA=   0.5891
  2.4041  1.3486  0.9893  0.9893  0.7011  0.7011  0.4770  0.4770  0.4289  0.1003
  0.2683  0.2354  0.2223  0.1386  0.2002  0.1691  0.1633

 Free energy of the ion-electron system (eV)
  ---------------------------------------------------
  alpha Z        PSCENC =       972.54880997
  Ewald energy   TEWEN  =    -18811.66362552
  -Hartree energ DENC   =    -12288.67312723
  -exchange      EXHF   =         0.00000000
  -V(xc)+E(xc)   XCENC  =      1394.67379306
  PAW double counting   =     33561.58823548   -34721.83890458
  entropy T*S    EENTRO =        -0.00000002
  eigenvalues    EBANDS =     -1404.47932377
  atomic energy  EATOM  =     31013.67235384
  Solvation  Ediel_sol  =         0.00000000
  ---------------------------------------------------
  free energy    TOTEN  =      -284.17178876 eV

  energy without entropy =     -284.17178874  energy(sigma->0) =     -284.17178875


--------------------------------------------------------------------------------------------------------




--------------------------------------- Iteration      1(  23)  ---------------------------------------


    POTLOK:  cpu time    0.0571: real time    0.0573
    SETDIJ:  cpu time    0.0063: real time    0.0063
     EDDAV:  cpu time   48.9031: real time   49.0195
    CHARGE:  cpu time    1.4456: real time    1.4490
    MIXING:  cpu time    0.0039: real time    0.0039
    --------------------------------------------
      LOOP:  cpu time   50.4160: real time   50.5360

 eigenvalue-minimisations  : 23536
 total energy-change (2. order) : 0.5540692E-03  (-0.1481634E-03)
 number of electron     352.0000015 magnetization 
 augmentation part      115.5235804 magnetization 

 Broyden mixing:
  rms(total) = 0.29663E-01    rms(broyden)= 0.29658E-01
  rms(prec ) = 0.41752E-01
  weight for this iteration     100.00

 eigenvalues of (default mixing * dielectric matrix)
  average eigenvalue GAMMA=   0.6071
  2.3118  1.5601  1.0581  1.0581  1.0485  0.6592  0.4761  0.4761  0.4175  0.4175
  0.1003  0.1386  0.2393  0.2273  0.2110  0.1940  0.1698  0.1636

 Free energy of the ion-electron system (eV)
  ---------------------------------------------------
  alpha Z        PSCENC =       972.54880997
  Ewald energy   TEWEN  =    -18811.66362552
  -Hartree energ DENC   =    -12288.49294945
  -exchange      EXHF   =         0.00000000
  -V(xc)+E(xc)   XCENC  =      1394.65705617
  PAW double counting   =     33559.99502710   -34720.19664635
  entropy T*S    EENTRO =        -0.00000002
  eigenvalues    EBANDS =     -1404.69126043
  atomic energy  EATOM  =     31013.67235384
  Solvation  Ediel_sol  =         0.00000000
  ---------------------------------------------------
  free energy    TOTEN  =      -284.17123469 eV

  energy without entropy =     -284.17123467  energy(sigma->0) =     -284.17123468


--------------------------------------------------------------------------------------------------------




--------------------------------------- Iteration      1(  24)  ---------------------------------------


    POTLOK:  cpu time    0.0571: real time    0.0572
    SETDIJ:  cpu time    0.0065: real time    0.0065
     EDDAV:  cpu time   50.7086: real time   50.8292
    CHARGE:  cpu time    1.4732: real time    1.4767
    MIXING:  cpu time    0.0039: real time    0.0039
    --------------------------------------------
      LOOP:  cpu time   52.2493: real time   52.3735

 eigenvalue-minimisations  : 24768
 total energy-change (2. order) : 0.3322772E-03  (-0.9064346E-04)
 number of electron     352.0000015 magnetization 
 augmentation part      115.5126524 magnetization 

 Broyden mixing:
  rms(total) = 0.20605E-01    rms(broyden)= 0.20598E-01
  rms(prec ) = 0.29732E-01
  weight for this iteration     100.00

 eigenvalues of (default mixing * dielectric matrix)
  average eigenvalue GAMMA=   0.6249
  2.1588  2.1588  1.2473  1.0237  1.0237  0.6328  0.4762  0.4762  0.5239  0.4443
  0.1003  0.2813  0.2377  0.2288  0.1386  0.2022  0.1858  0.1688  0.1631

 Free energy of the ion-electron system (eV)
  ---------------------------------------------------
  alpha Z        PSCENC =       972.54880997
  Ewald energy   TEWEN  =    -18811.66362552
  -Hartree energ DENC   =    -12288.44698144
  -exchange      EXHF   =         0.00000000
  -V(xc)+E(xc)   XCENC  =      1394.64712352
  PAW double counting   =     33556.81437209   -34716.95738094
  entropy T*S    EENTRO =        -0.00000002
  eigenvalues    EBANDS =     -1404.78557390
  atomic energy  EATOM  =     31013.67235384
  Solvation  Ediel_sol  =         0.00000000
  ---------------------------------------------------
  free energy    TOTEN  =      -284.17090241 eV

  energy without entropy =     -284.17090240  energy(sigma->0) =     -284.17090240


--------------------------------------------------------------------------------------------------------




--------------------------------------- Iteration      1(  25)  ---------------------------------------


    POTLOK:  cpu time    0.0576: real time    0.0577
    SETDIJ:  cpu time    0.0063: real time    0.0063
     EDDAV:  cpu time   49.8299: real time   49.9485
    CHARGE:  cpu time    1.4832: real time    1.4867
    MIXING:  cpu time    0.0041: real time    0.0041
    --------------------------------------------
      LOOP:  cpu time   51.3810: real time   51.5034

 eigenvalue-minimisations  : 24192
 total energy-change (2. order) : 0.9443575E-04  (-0.6524140E-04)
 number of electron     352.0000015 magnetization 
 augmentation part      115.5055261 magnetization 

 Broyden mixing:
  rms(total) = 0.14896E-01    rms(broyden)= 0.14889E-01
  rms(prec ) = 0.22054E-01
  weight for this iteration     100.00

 eigenvalues of (default mixing * dielectric matrix)
  average eigenvalue GAMMA=   0.6299
  2.3069  2.3069  1.2779  1.0192  1.0192  0.6350  0.6350  0.4762  0.4762  0.4418
  0.3658  0.1003  0.2458  0.1386  0.2258  0.2221  0.2011  0.1726  0.1690  0.1627

 Free energy of the ion-electron system (eV)
  ---------------------------------------------------
  alpha Z        PSCENC =       972.54880997
  Ewald energy   TEWEN  =    -18811.66362552
  -Hartree energ DENC   =    -12288.49977322
  -exchange      EXHF   =         0.00000000
[...]
 total augmentation occupancy for first ion, spin component:           1
  6.927  -0.014  -0.182   0.129   0.429  -3.968  -0.043   0.314  -0.157  -0.260  -0.467   0.094  -0.073  -0.017  -0.054   0.014
 -0.014   7.089   0.402   0.142   0.079  -0.044  -4.128  -0.405  -0.176   0.153  -0.564   0.100   0.009  -0.109  -0.014   0.010
 -0.182   0.402   3.336   0.055  -0.014   0.283  -0.382  -2.950  -0.137  -0.233   0.188  -0.053  -0.103  -0.513   0.192   0.027
  0.129   0.142   0.055   6.471   0.090  -0.157  -0.175  -0.154  -3.436  -0.164  -0.396   0.073  -0.001  -0.191  -0.095   0.001
  0.429   0.079  -0.014   0.090   3.292  -0.262   0.110  -0.234  -0.136  -3.104   0.524  -0.125  -0.135  -0.012  -0.371   0.038
 -3.968  -0.044   0.283  -0.157  -0.262   2.990   0.087  -0.393   0.179   0.133   0.466  -0.101   0.072   0.013   0.041  -0.013
 -0.043  -4.128  -0.382  -0.175   0.110   0.087   3.150   0.385   0.202  -0.297   0.559  -0.112  -0.009   0.097   0.011  -0.004
  0.314  -0.405  -2.950  -0.154  -0.234  -0.393   0.385   3.835   0.213   0.466  -0.233   0.064   0.136   0.583  -0.209  -0.032
 -0.157  -0.176  -0.137  -3.436  -0.136   0.179   0.202   0.213   2.416   0.197   0.381  -0.078   0.002   0.191   0.097  -0.001
 -0.260   0.153  -0.233  -0.164  -3.104   0.133  -0.297   0.466   0.197   4.171  -0.642   0.156   0.192   0.023   0.422  -0.048
 -0.467  -0.564   0.188  -0.396   0.524   0.466   0.559  -0.233   0.381  -0.642   2.356  -0.450  -0.071   0.216   0.208   0.014
  0.094   0.100  -0.053   0.073  -0.125  -0.101  -0.112   0.064  -0.078   0.156  -0.450   0.131   0.011  -0.054  -0.053  -0.004
 -0.073   0.009  -0.103  -0.001  -0.135   0.072  -0.009   0.136   0.002   0.192  -0.071   0.011   0.545   0.050   0.043  -0.088
 -0.017  -0.109  -0.513  -0.191  -0.012   0.013   0.097   0.583   0.191   0.023   0.216  -0.054   0.050   0.383   0.031  -0.010
 -0.054  -0.014   0.192  -0.095  -0.371   0.041   0.011  -0.209   0.097   0.422   0.208  -0.053   0.043   0.031   0.354  -0.009
  0.014   0.010   0.027   0.001   0.038  -0.013  -0.004  -0.032  -0.001  -0.048   0.014  -0.004  -0.088  -0.010  -0.009   0.020
  0.002   0.030   0.100   0.036   0.007  -0.001  -0.024  -0.113  -0.036  -0.008  -0.049   0.015  -0.010  -0.062  -0.006   0.003
  0.022   0.002  -0.033   0.030   0.072  -0.015  -0.002   0.038  -0.025  -0.082  -0.049   0.014  -0.008  -0.006  -0.057   0.002


------------------------ aborting loop because EDIFF is reached ----------------------------------------


    CHARGE:  cpu time    1.6058: real time    1.6097
    FORLOC:  cpu time    0.0236: real time    0.0236
    FORNL :  cpu time   10.0624: real time   10.0862
    STRESS:  cpu time   29.9554: real time   30.0263
    FORCOR:  cpu time    0.0762: real time    0.0764
    FORHAR:  cpu time    0.0343: real time    0.0344
    MIXING:  cpu time    0.0044: real time    0.0044
    OFIELD:  cpu time    0.0001: real time    0.0001

  FORCE on cell =-STRESS in cart. coord.  units (eV):
  Direction    XX          YY          ZZ          XY          YZ          ZX
  --------------------------------------------------------------------------------------
  Alpha Z   972.54881   972.54881   972.54881
  Ewald   -6304.24149 -6194.34747 -6313.18797    91.65990   -22.94916   -51.35755
  Hartree  4128.29119  4114.45761  4046.02767    55.62339   -15.65901   -29.43977
  E(xc)   -1783.71284 -1784.04373 -1783.96956     0.02108     0.01132    -0.02814
  Local   -4611.74116 -4691.55425 -4509.93111  -141.91534    38.15612    77.33608
  n-local  -798.58511  -791.35441  -793.68571     0.48607    -0.18763    -0.23169
  augment  3005.19612  2997.26449  2999.84564    -2.41322     0.03099     1.39011
  Kinetic  5346.15919  5344.50642  5346.63076    -3.82617     0.68152     3.80606
  Fock        0.00000     0.00000     0.00000     0.00000     0.00000     0.00000
  -------------------------------------------------------------------------------------
  Total      -46.0852924    -32.5225299    -35.7214691     -0.3643096      0.0841401      1.4750975
  in kB     -131.0178625    -92.4597009   -101.5541030     -1.0357116      0.2392056      4.1936182
  external PRESSURE =    -108.3438888 kB  Pullay stress =       0.0000000 kB


 VOLUME and BASIS-vectors are now :
 -----------------------------------------------------------------------------
  energy-cutoff  :      500.00
  volume of cell :      563.56
      direct lattice vectors                 reciprocal lattice vectors
     8.260014440  0.000000000  0.000000000     0.121065164  0.000000000  0.000000000
     0.000000000  8.260014440  0.000000000     0.000000000  0.121065164  0.000000000
     0.000000000  0.000000000  8.260014440     0.000000000  0.000000000  0.121065164

  length of vectors
     8.260014440  8.260014440  8.260014440     0.121065164  0.121065164  0.121065164


 FORCES acting on ions
    electron-ion (+dipol)            ewald-force                    non-local-force                 convergence-correction
 -----------------------------------------------------------------------------------------------
   0.202E+03 -.940E+01 0.188E+03   -.203E+03 0.832E+01 -.190E+03   0.505E-01 0.169E+01 -.392E+00   -.206E-01 -.411E-02 -.125E-01
   -.152E+02 -.217E+03 0.244E+03   0.166E+02 0.219E+03 -.246E+03   -.206E+01 0.818E+00 -.207E+00   -.677E-02 0.211E-01 -.350E-01
   0.633E+02 -.733E+02 0.754E+02   -.637E+02 0.733E+02 -.758E+02   0.180E+00 -.106E+00 0.204E+00   -.871E-02 -.167E-01 -.788E-02
   0.192E+03 -.237E+03 -.225E+02   -.194E+03 0.239E+03 0.252E+02   -.180E+00 -.440E+00 -.122E+01   -.394E-02 0.170E-01 -.180E-01
   0.201E+03 0.208E+03 0.274E+02   -.202E+03 -.209E+03 -.292E+02   -.231E+00 -.326E+00 0.180E+01   0.132E-01 0.152E-02 0.603E-03
   0.466E+02 0.892E+02 -.573E+02   -.459E+02 -.902E+02 0.569E+02   0.253E+00 -.982E-01 -.624E+00   0.105E-01 -.277E-01 -.121E-02
   -.547E+02 0.228E+03 -.239E+03   0.576E+02 -.230E+03 0.241E+03   -.168E+01 0.111E+00 0.359E+00   0.115E-01 -.250E-01 0.886E-02
   0.222E+03 0.158E+02 -.226E+03   -.224E+03 -.133E+02 0.228E+03   0.665E+00 -.151E+01 0.131E-01   -.558E-02 -.798E-02 0.143E-01
   -.284E+02 -.575E+02 -.282E+02   0.280E+02 0.576E+02 0.263E+02   0.233E+00 0.406E+00 -.152E+00   -.547E-02 -.178E-01 0.319E-01
   -.229E+03 -.274E+03 0.493E+02   0.232E+03 0.277E+03 -.541E+02   -.449E+00 -.702E+00 0.181E+01   -.501E-02 0.124E-01 0.266E-01
   -.276E+03 0.771E+02 -.259E+03   0.280E+03 -.822E+02 0.261E+03   -.184E+00 0.202E+01 0.126E+00   -.135E-01 0.521E-02 0.340E-01
   0.913E+02 -.257E+03 -.269E+03   -.960E+02 0.260E+03 0.271E+03   0.206E+01 -.348E-01 -.223E+00   -.171E-01 0.579E-02 0.191E-01
   0.950E+01 0.226E+03 0.252E+03   -.122E+02 -.229E+03 -.253E+03   0.146E+01 0.179E+00 -.279E-01   -.664E-02 0.105E-01 -.206E-01
   -.187E+03 -.148E+02 0.234E+03   0.189E+03 0.162E+02 -.236E+03   -.495E+00 -.205E+01 -.553E+00   0.365E-02 -.416E-02 -.143E-01
   -.200E+03 0.219E+03 -.228E+02   0.201E+03 -.221E+03 0.246E+02   0.397E+00 0.111E+00 -.181E+01   0.682E-02 0.147E-01 -.166E-01
   -.488E+02 0.846E+02 0.146E+02   0.477E+02 -.854E+02 -.118E+02   0.100E+00 -.625E+00 0.703E+00   -.183E-03 -.173E-01 -.589E-02
   -.273E+03 0.264E+03 0.281E+03   0.289E+03 -.278E+03 -.296E+03   -.169E+02 0.145E+02 0.149E+02   -.241E-02 0.315E-01 -.156E-01
   -.175E+03 -.293E+03 -.169E+03   0.191E+03 0.310E+03 0.185E+03   -.165E+02 -.163E+02 -.163E+02   -.138E-01 0.266E-01 -.580E-02
   0.252E+03 -.546E+02 -.501E+02   -.269E+03 0.615E+02 0.576E+02   0.181E+02 -.846E+01 -.931E+01   0.575E-02 -.396E-02 -.182E-01
   -.728E+02 -.741E+02 0.256E+03   0.803E+02 0.828E+02 -.275E+03   -.908E+01 -.103E+02 0.196E+02   0.779E-02 -.101E-03 0.178E-01
   0.242E+03 0.270E+03 0.238E+03   -.258E+03 -.287E+03 -.254E+03   0.153E+02 0.171E+02 0.147E+02   0.123E-01 -.268E-01 -.643E-02
   -.809E+02 0.258E+03 -.711E+02   0.895E+02 -.277E+03 0.790E+02   -.104E+02 0.193E+02 -.935E+01   -.229E-01 0.142E-01 -.131E-02
   0.187E+03 0.269E+03 -.177E+03   -.204E+03 -.283E+03 0.192E+03   0.171E+02 0.149E+02 -.158E+02   -.125E-01 0.163E-01 -.830E-02
   0.253E+03 -.263E+03 0.285E+03   -.266E+03 0.278E+03 -.302E+03   0.146E+02 -.151E+02 0.168E+02   -.209E-02 -.834E-02 -.197E-02
   -.293E+03 0.200E+03 0.200E+03   0.309E+03 -.217E+03 -.218E+03   -.156E+02 0.163E+02 0.180E+02   -.185E-01 -.199E-01 0.211E-01
   -.171E+03 -.158E+03 -.302E+03   0.185E+03 0.174E+03 0.320E+03   -.146E+02 -.160E+02 -.171E+02   0.475E-02 -.245E-01 0.117E-01
   0.242E+03 -.268E+03 -.242E+03   -.258E+03 0.288E+03 0.258E+03   0.161E+02 -.177E+02 -.154E+02   0.222E-01 0.143E-02 0.207E-01
   -.648E+02 -.249E+03 0.621E+02   0.730E+02 0.266E+03 -.697E+02   -.101E+02 -.175E+02 0.919E+01   -.102E-01 -.726E-03 0.215E-01
   0.232E+03 0.528E+02 0.508E+02   -.248E+03 -.600E+02 -.583E+02   0.177E+02 0.843E+01 0.922E+01   0.239E-01 0.175E-01 0.638E-02
   -.795E+02 0.565E+02 -.236E+03   0.872E+02 -.643E+02 0.252E+03   -.911E+01 0.988E+01 -.173E+02   0.122E-01 0.210E-01 -.314E-02
   0.193E+03 0.192E+03 -.316E+03   -.210E+03 -.210E+03 0.334E+03   0.169E+02 0.184E+02 -.170E+02   0.673E-02 0.196E-01 -.861E-03
   0.291E+03 -.165E+03 0.180E+03   -.307E+03 0.181E+03 -.196E+03   0.159E+02 -.162E+02 0.157E+02   -.774E-02 -.291E-01 -.208E-02
   -.178E+03 0.283E+03 0.178E+03   0.193E+03 -.298E+03 -.194E+03   -.158E+02 0.154E+02 0.170E+02   -.166E-01 -.110E-01 0.207E-01
   -.285E+03 -.301E+03 -.306E+03   0.302E+03 0.319E+03 0.324E+03   -.172E+02 -.177E+02 -.171E+02   -.240E-01 -.100E-01 0.276E-01
   0.677E+02 -.780E+02 -.259E+03   -.756E+02 0.865E+02 0.278E+03   0.974E+01 -.101E+02 -.194E+02   0.139E-01 0.793E-02 0.794E-02
   -.228E+03 -.588E+02 0.595E+02   0.245E+03 0.654E+02 -.675E+02   -.175E+02 -.802E+01 0.970E+01   -.249E-01 -.156E-01 0.812E-02
   0.772E+02 0.242E+03 0.538E+02   -.865E+02 -.259E+03 -.608E+02   0.109E+02 0.175E+02 0.849E+01   -.174E-02 0.122E-01 0.257E-01
   -.239E+03 0.289E+03 -.219E+03   0.254E+03 -.309E+03 0.233E+03   -.149E+02 0.182E+02 -.137E+02   0.552E-02 0.832E-02 -.384E-02
   0.259E+03 0.278E+03 -.279E+03   -.274E+03 -.294E+03 0.294E+03   0.147E+02 0.163E+02 -.153E+02   0.207E-01 -.417E-02 -.134E-01
   0.195E+03 -.315E+03 0.181E+03   -.212E+03 0.333E+03 -.196E+03   0.160E+02 -.166E+02 0.163E+02   -.224E-01 -.618E-02 0.354E-01
   -.151E+03 0.176E+03 0.294E+03   0.165E+03 -.194E+03 -.310E+03   -.139E+02 0.174E+02 0.162E+02   -.178E-01 0.176E-02 -.253E-01
   -.284E+03 -.170E+03 -.187E+03   0.300E+03 0.186E+03 0.205E+03   -.160E+02 -.150E+02 -.168E+02   -.540E-02 0.921E-02 -.386E-01
   0.686E+02 -.260E+03 -.583E+02   -.767E+02 0.279E+03 0.651E+02   0.977E+01 -.197E+02 -.806E+01   0.118E-01 -.375E-01 -.128E-01
   -.250E+03 -.257E+03 0.239E+03   0.266E+03 0.276E+03 -.253E+03   -.163E+02 -.176E+02 0.148E+02   0.167E-01 -.245E-01 0.106E-01
   0.644E+02 0.664E+02 0.252E+03   -.714E+02 -.748E+02 -.269E+03   0.836E+01 0.103E+02 0.176E+02   0.128E-01 0.287E-02 -.178E-01
   -.247E+03 0.589E+02 -.552E+02   0.267E+03 -.660E+02 0.632E+02   -.194E+02 0.813E+01 -.966E+01   -.536E-02 0.861E-02 -.304E-01
   0.287E+03 0.164E+03 -.166E+03   -.304E+03 -.178E+03 0.183E+03   0.161E+02 0.142E+02 -.168E+02   -.213E-01 0.133E-02 -.260E-01
   0.171E+03 -.158E+03 0.321E+03   -.186E+03 0.173E+03 -.341E+03   0.163E+02 -.149E+02 0.181E+02   0.261E-01 -.382E-02 -.147E-03
 -----------------------------------------------------------------------------------------------
   -.371E+00 0.166E+01 -.190E+01   0.568E-13 0.284E-13 0.284E-12   0.433E+00 -.161E+01 0.189E+01   -.743E-01 -.583E-01 0.641E-02
 
 
 POSITION                                       TOTAL-FORCE (eV/Angst)
 -----------------------------------------------------------------------------------
      0.94161      4.88384      1.00994        -0.956626      0.608541     -2.243281
      3.02291      6.82568      0.99269        -0.635684      2.718081     -1.904321
      2.96359      4.92592      2.94961        -0.244932     -0.127588     -0.134815
      1.05549      6.93806      2.93955        -2.675298      1.029993      1.472303
      0.96543      1.00613      4.87631        -1.227832     -1.800733     -0.021154
      2.90485      2.99239      4.95789         1.018307     -1.183377     -1.039350
      2.95570      1.00705      6.84292         1.227768     -2.014024      1.882451
      0.90944      2.94081      6.89842        -1.127715      0.996585      2.019122
      4.89787      4.90794      4.93051        -0.174423      0.455570     -1.977123
      6.87497      6.89962      4.95744         2.689083      2.375349     -2.959323
      6.84152      4.98151      6.81017         3.276979     -3.045180      2.717092
      4.96608      6.79397      6.87067        -2.614328      3.242477      1.716586
      4.96851      0.99024      0.97828        -1.284127     -2.228016     -1.476215
      6.88404      3.00206      1.00811         1.594927     -0.697637     -2.525664
      6.87436      0.96827      2.99481         1.817776     -2.181645     -0.094442
      4.93252      2.97559      2.88796        -0.918827     -1.403192      3.452273
      6.84195      1.10054      1.14632        -0.536383      0.352740     -0.329354
      2.90609      6.77628      2.85419        -0.094152      0.154152     -0.307657
      3.10729      0.90249      0.89524         0.777182     -1.635941     -1.772798
      0.88468      0.86535      3.06096        -1.619202     -1.610422      0.490566
      3.07223      3.11428      3.09428        -0.275968     -0.818280     -0.472473
      0.83815      3.06895      0.85105        -1.842296      0.354278     -1.442889
      5.01496      1.02837      2.86731         0.281329      0.686981     -0.509986
      1.09441      6.81014      1.09902         0.868451     -0.793764      0.030546
      6.76779      5.11139      4.96612         0.305711     -1.124141      0.201247
      2.78787      2.87699      6.79666        -0.075210     -0.401281      0.344042
      3.00102      4.74662      4.77951         0.384039      1.958544      0.692367
      0.92047      4.81341      7.03921        -1.920661     -0.820094      1.582438
      3.05537      7.02275      6.92684         1.314506      1.252056      1.751415
      0.84355      6.91697      4.83735        -1.389027      2.093733     -1.079755
      5.03653      4.94778      6.72337        -0.366989      0.440419      1.046458
      1.07990      2.87056      5.08075        -0.716257     -0.269296     -0.575892
      2.85719      1.11226      4.98997        -0.422408      0.190576      0.332379
      6.78610      6.77752      6.74521        -0.008665      0.426367      0.937171
      6.95419      0.85213      4.80014         1.773874     -1.622441     -0.087165
      4.84765      0.88837      6.95767        -1.044619     -1.461459      1.741010
      6.99694      3.08588      6.94302         1.701522      0.929442      1.558864
      4.77618      3.17247      4.81794         0.179969     -2.299217     -0.313683
      1.10279      1.05946      6.72229        -0.188089      0.343919      0.156366
      5.05013      6.69249      4.99706        -0.590117      1.488799      0.495316
      2.84616      5.00016      1.08720        -0.299939      0.007650     -0.001747
      6.78510      2.77911      2.81107         0.102741      0.894209      0.671930
      6.97796      4.79608      0.83435         1.612864     -0.019693     -1.264091
      4.81836      4.76179      3.02773         0.080251      1.253401      0.212016
      7.05682      6.95759      3.07852         1.415901      1.955944      0.806949
      4.81848      7.04497      0.86092         0.007251      1.090865     -1.617991
      1.10307      5.06242      2.86075        -0.091742      0.117809     -0.137094
      4.96610      2.82104      1.15352         0.911087      0.138941     -2.022640
 -----------------------------------------------------------------------------------
    total drift:                               -0.012627     -0.010360     -0.003647


--------------------------------------------------------------------------------------------------------



  FREE ENERGIE OF THE ION-ELECTRON SYSTEM (eV)
  ---------------------------------------------------
  free  energy   TOTEN  =      -284.1707129923 eV

  energy  without entropy=     -284.1707129755  energy(sigma->0) =     -284.17071298
 


--------------------------------------------------------------------------------------------------------


    POTLOK:  cpu time    0.0642: real time    0.0644


--------------------------------------------------------------------------------------------------------


     LOOP+:  cpu time 1387.4716: real time 1391.2785
    4ORBIT:  cpu time    0.0000: real time    0.0000

volume of typ            1:    18.1 %

volume of typ            2:     9.3 %
 
total charge     
 
# of ion       s       p       d       tot
------------------------------------------
    1        0.261   0.314   7.791   8.366
    2        0.268   0.321   7.798   8.387
    3        0.311   0.439   7.829   8.578
    4        0.264   0.324   7.791   8.379
    5        0.265   0.324   7.801   8.389
    6        0.314   0.445   7.829   8.589
    7        0.262   0.316   7.790   8.367
    8        0.265   0.326   7.794   8.385
    9        0.322   0.464   7.842   8.627
   10        0.282   0.364   7.813   8.458
   11        0.275   0.342   7.822   8.439
   12        0.263   0.318   7.812   8.393
   13        0.264   0.323   7.795   8.382
   14        0.268   0.326   7.801   8.395
   15        0.276   0.347   7.803   8.425
   16        0.312   0.432   7.830   8.574
   17        1.281   2.722   0.008   4.011
   18        1.288   2.709   0.009   4.006
   19        1.299   2.615   0.004   3.917
   20        1.294   2.639   0.004   3.938
   21        1.287   2.724   0.009   4.019
   22        1.295   2.636   0.005   3.936
   23        1.292   2.685   0.007   3.985
   24        1.284   2.706   0.007   3.997
   25        1.291   2.717   0.010   4.017
   26        1.289   2.706   0.008   4.003
   27        1.286   2.736   0.010   4.032
   28        1.299   2.616   0.004   3.918
   29        1.299   2.608   0.003   3.910
   30        1.299   2.611   0.003   3.914
   31        1.288   2.728   0.010   4.027
   32        1.287   2.718   0.009   4.014
   33        1.290   2.698   0.008   3.996
   34        1.279   2.762   0.011   4.051
   35        1.294   2.641   0.005   3.940
   36        1.299   2.608   0.003   3.910
   37        1.296   2.621   0.003   3.921
   38        1.284   2.738   0.009   4.031
   39        1.280   2.727   0.008   4.016
   40        1.286   2.731   0.010   4.027
   41        1.288   2.705   0.008   4.001
   42        1.285   2.726   0.010   4.021
   43        1.294   2.639   0.005   3.938
   44        1.286   2.726   0.009   4.022
   45        1.298   2.619   0.003   3.920
   46        1.293   2.641   0.004   3.939
   47        1.289   2.705   0.008   4.002
   48        1.288   2.726   0.010   4.024
--------------------------------------------------
tot          45.76   91.61  125.16  262.53
 

 total amount of memory used by VASP MPI-rank0   192751. kBytes
=======================================================================

   base      :      30000. kBytes
   nonlr-proj:      21521. kBytes
   fftplans  :       4751. kBytes
   grid      :      15225. kBytes
   one-center:        746. kBytes
   wavefun   :     120508. kBytes
 
  
  
 General timing and accounting informations for this job:
 ========================================================
  
                  Total CPU time used (sec):     1418.984
                            User time (sec):     1416.315
                          System time (sec):        2.669
                         Elapsed time (sec):     1426.046
  
                   Maximum memory used (kb):      253720.
                   Average memory used (kb):           0.
  
                          Minor page faults:        36365
                          Major page faults:           50
                 Voluntary context switches:         1292
