 vasp.5.4.4.18Apr17-6-g9f103f2a35 (build May 12 2020 04:58:55) complex          
  
 MD_VERSION_INFO: Compiled 2020-05-12T11:58:55-UTC in devlin.sd.materialsdesign.
 com:/home/medea2/data/build/wwolf/vasp-gpu5.4.4/13047/x86_64/src/src/build/std 
 from svn 13047
 
 This VASP executable licensed from Materials Design, Inc.
 
 executed on                        Lin64 date 2023.04.26  21:27:35
 running on   16 total cores
 distrk:  each k-point on   16 cores,    1 groups
 distr:  one band on NCORES_PER_BAND=   1 cores,   16 groups


--------------------------------------------------------------------------------------------------------


 INCAR:
 POTCAR:    PAW_PBE Ni 02Aug2007                  
 POTCAR:    PAW_PBE O 08Apr2002                   

 ----------------------------------------------------------------------------- 
|                                                                             |
|           W    W    AA    RRRRR   N    N  II  N    N   GGGG   !!!           |
|           W    W   A  A   R    R  NN   N  II  NN   N  G    G  !!!           |
|           W    W  A    A  R    R  N N  N  II  N N  N  G       !!!           |
|           W WW W  AAAAAA  RRRRR   N  N N  II  N  N N  G  GGG   !            |
|           WW  WW  A    A  R   R   N   NN  II  N   NN  G    G                |
|           W    W  A    A  R    R  N    N  II  N    N   GGGG   !!!           |
|                                                                             |
|      For optimal performance we recommend to set                            |
|        NCORE= 4 - approx SQRT( number of cores)                             |
|      NCORE specifies how many cores store one orbital (NPAR=cpu/NCORE).     |
|      This setting can  greatly improve the performance of VASP for DFT.     |
|      The default,   NCORE=1            might be grossly inefficient         |
|      on modern multi-core architectures or massively parallel machines.     |
|      Do your own testing !!!!                                               |
|      Unfortunately you need to use the default for GW and RPA calculations. |
|      (for HF NCORE is supported but not extensively tested yet)             |
|                                                                             |
 ----------------------------------------------------------------------------- 

 POTCAR:    PAW_PBE Ni 02Aug2007                  
  local pseudopotential read in
  partial core-charges read in
  partial kinetic energy density read in
  atomic valenz-charges read in
  non local Contribution for L=           2  read in
    real space projection operators read in
  non local Contribution for L=           2  read in
    real space projection operators read in
  non local Contribution for L=           0  read in
    real space projection operators read in
  non local Contribution for L=           0  read in
    real space projection operators read in
  non local Contribution for L=           1  read in
    real space projection operators read in
  non local Contribution for L=           1  read in
    real space projection operators read in
    PAW grid and wavefunctions read in
 
   number of l-projection  operators is LMAX  =           6
   number of lm-projection operators is LMMAX =          18
 
 POTCAR:    PAW_PBE O 08Apr2002                   
  local pseudopotential read in
  partial core-charges read in
  partial kinetic energy density read in
  kinetic energy density of atom read in
  atomic valenz-charges read in
  non local Contribution for L=           0  read in
    real space projection operators read in
  non local Contribution for L=           0  read in
    real space projection operators read in
  non local Contribution for L=           1  read in
    real space projection operators read in
  non local Contribution for L=           1  read in
    real space projection operators read in
    PAW grid and wavefunctions read in
 
   number of l-projection  operators is LMAX  =           4
   number of lm-projection operators is LMMAX =           8
 
 Optimization of the real space projectors (new method)

 maximal supplied QI-value         = 16.25
 optimisation between [QCUT,QGAM] = [ 11.38, 22.75] = [ 36.24,144.96] Ry 
 Optimized for a Real-space Cutoff    1.47 Angstroem

   l    n(q)    QCUT    max X(q) W(low)/X(q) W(high)/X(q)  e(spline) 
   2      9    11.376    60.317    0.17E-03    0.16E-04    0.16E-06
   2      9    11.376    55.921    0.17E-03    0.16E-04    0.17E-06
   0     10    11.376    51.690    0.45E-04    0.60E-04    0.21E-06
   0     10    11.376    30.015    0.37E-04    0.55E-04    0.19E-06
   1     10    11.376    18.849    0.83E-04    0.11E-03    0.92E-07
   1     10    11.376    14.624    0.69E-04    0.92E-04    0.82E-07
 Optimization of the real space projectors (new method)

 maximal supplied QI-value         = 24.76
 optimisation between [QCUT,QGAM] = [ 11.39, 22.77] = [ 36.31,145.25] Ry 
 Optimized for a Real-space Cutoff    1.10 Angstroem

   l    n(q)    QCUT    max X(q) W(low)/X(q) W(high)/X(q)  e(spline) 
   0      7    11.387    20.381    0.22E-03    0.48E-03    0.18E-06
   0      7    11.387    15.268    0.22E-03    0.52E-03    0.19E-06
   1      7    11.387     5.964    0.22E-03    0.73E-03    0.24E-06
   1      7    11.387     5.382    0.19E-03    0.60E-03    0.21E-06

 ----------------------------------------------------------------------------- 
|                                                                             |
|  ADVICE TO THIS USER RUNNING 'VASP/VAMP'   (HEAR YOUR MASTER'S VOICE ...):  |
|                                                                             |
|      You enforced a specific xc-type in the INCAR file,                     |
|      a different type was found on the POTCAR file                          |
|          I HOPE YOU KNOW, WHAT YOU ARE  DOING                               |
|                                                                             |
 ----------------------------------------------------------------------------- 

  PAW_PBE Ni 02Aug2007                  :
 energy of atom  1       EATOM=-1077.6739
 kinetic energy error for atom=    0.0030 (will be added to EATOM!!)
  PAW_PBE O 08Apr2002                   :
 energy of atom  2       EATOM= -432.3788
 kinetic energy error for atom=    0.0224 (will be added to EATOM!!)
 
 
 POSCAR: NiO2_Fd-3m_scale_1_025_disp_0_06_round_2
  positions in direct lattice
  No initial velocities read in
 exchange correlation table for  LEXCH =       14
   RHO(1)=    0.500       N(1)  =     2000
   RHO(2)=  100.500       N(2)  =     4000
 


--------------------------------------------------------------------------------------------------------


 ion  position               nearest neighbor table
   1  0.116  0.620  0.131-  24 1.77  47 1.79  22 1.93  41 1.97  43 2.02  28 2.13   4 2.63   2 2.63
                             3 2.84  14 3.01  11 3.04
   2  0.354  0.843  0.109-  24 1.72  41 1.84  29 1.96  18 1.97  46 2.08  19 2.17   1 2.63   4 2.76
                             3 2.80  13 2.90  12 2.94   7 3.05
   3  0.380  0.610  0.365-  18 1.86  21 1.87  27 1.89  44 1.92  41 1.97  47 2.03   9 2.66  16 2.68
                             6 2.74   4 2.79   2 2.80   1 2.84
   4  0.126  0.846  0.365-  47 1.76  30 1.85  24 1.89  18 1.91  45 2.09  20 2.12   1 2.63   2 2.76
                             3 2.79  10 2.96   5 2.97  15 3.01
   5  0.113  0.126  0.603-  32 1.84  20 1.84  35 1.94  39 1.96  33 1.97  30 2.12   8 2.73  15 2.79
                             7 2.86   6 2.87   4 2.97  10 3.05
   6  0.369  0.374  0.609-  27 1.71  21 1.83  26 1.84  33 1.86  38 1.87  32 1.88  16 2.71   8 2.73
                             3 2.74   9 2.75   7 2.84   5 2.87
   7  0.372  0.113  0.845-  33 1.81  36 1.82  26 1.87  39 1.89  29 2.04  19 2.19   6 2.84   8 2.85
                            12 2.85   5 2.86  13 2.91   2 3.05
   8  0.124  0.364  0.843-  32 1.76  39 1.92  26 1.95  28 1.96  22 2.04  37 2.23   5 2.73   6 2.73
                             7 2.85  11 2.95
   9  0.606  0.619  0.605-  31 1.77  40 1.80  44 1.82  25 1.83  27 1.91  38 1.98   3 2.66  10 2.74
                            16 2.75   6 2.75  12 2.79  11 2.87
  10  0.854  0.851  0.611-  25 1.81  34 1.82  40 1.85  45 1.85  35 2.07  30 2.13   9 2.74  12 2.75
                            11 2.75  15 2.85   4 2.96   5 3.05
  11  0.856  0.614  0.858-  37 1.92  34 1.94  25 1.94  28 1.99  43 1.99  31 2.00  10 2.75  12 2.75
                             9 2.87  14 2.88   8 2.95   1 3.04
  12  0.616  0.857  0.855-  34 1.71  40 1.79  31 1.83  36 2.01  46 2.02  29 2.02  10 2.75  11 2.75
                             9 2.79   7 2.85  13 2.89   2 2.94
  13  0.606  0.099  0.119-  46 1.79  19 1.86  36 1.98  23 1.98  48 2.01  17 2.05  15 2.87  14 2.87
                            12 2.89   2 2.90   7 2.91  16 2.99
  14  0.848  0.361  0.109-  17 1.75  48 1.84  43 1.85  42 1.91  37 1.95  22 2.10  16 2.87  13 2.87
                            11 2.88  15 2.92   1 3.01
  15  0.859  0.108  0.369-  17 1.84  35 1.88  23 1.90  20 2.01  45 2.02  42 2.11   5 2.79  10 2.85
                            13 2.87  16 2.92  14 2.92   4 3.01
  16  0.608  0.369  0.372-  38 1.69  21 1.75  44 1.86  48 1.87  23 1.93  42 1.96   3 2.68   6 2.71
                             9 2.75  14 2.87  15 2.92  13 2.99
  17  0.855  0.146  0.144-  14 1.75  15 1.84  13 2.05
  18  0.363  0.840  0.353-   3 1.86   4 1.91   2 1.97
  19  0.376  0.110  0.117-  13 1.86   2 2.17   7 2.19
  20  0.108  0.108  0.375-   5 1.84  15 2.01   4 2.12
  21  0.391  0.380  0.384-  16 1.75   6 1.83   3 1.87
  22  0.107  0.383  0.095-   1 1.93   8 2.04  14 2.10
  23  0.624  0.131  0.362-  15 1.90  16 1.93  13 1.98
  24  0.141  0.838  0.130-   2 1.72   1 1.77   4 1.89
  25  0.833  0.628  0.618-  10 1.81   9 1.83  11 1.94
  26  0.365  0.344  0.835-   6 1.84   7 1.87   8 1.95
  27  0.372  0.585  0.599-   6 1.71   3 1.89   9 1.91
  28  0.102  0.605  0.868-   8 1.96  11 1.99   1 2.13
  29  0.365  0.861  0.867-   2 1.96  12 2.02   7 2.04
  30  0.117  0.863  0.594-   4 1.85   5 2.12  10 2.13
  31  0.612  0.633  0.823-   9 1.77  12 1.83  11 2.00
  32  0.137  0.352  0.626-   8 1.76   5 1.84   6 1.88
  33  0.357  0.143  0.624-   7 1.81   6 1.86   5 1.97
  34  0.827  0.851  0.835-  12 1.71  10 1.82  11 1.94
  35  0.874  0.106  0.601-  15 1.88   5 1.94  10 2.07
  36  0.596  0.105  0.874-   7 1.82  13 1.98  12 2.01
  37  0.848  0.377  0.867-  11 1.92  14 1.95   8 2.23
  38  0.598  0.375  0.581-  16 1.69   6 1.87   9 1.98
  39  0.138  0.126  0.844-   7 1.89   8 1.92   5 1.96
  40  0.626  0.839  0.634-  12 1.79   9 1.80  10 1.85
  41  0.361  0.615  0.122-   2 1.84   3 1.97   1 1.97
  42  0.850  0.369  0.346-  14 1.91  16 1.96  15 2.11
  43  0.869  0.589  0.103-  14 1.85  11 1.99   1 2.02
  44  0.618  0.599  0.380-   9 1.82  16 1.86   3 1.92
  45  0.868  0.858  0.382-  10 1.85  15 2.02   4 2.09
  46  0.610  0.878  0.104-  13 1.79  12 2.02   2 2.08
  47  0.129  0.628  0.352-   4 1.76   1 1.79   3 2.03
  48  0.622  0.346  0.142-  14 1.84  16 1.87  13 2.01
 
  LATTYP: Found a simple cubic cell.
 ALAT       =     8.0633474300
  
  Lattice vectors:
  
 A1 = (   8.0633474300,   0.0000000000,   0.0000000000)
 A2 = (   0.0000000000,   8.0633474300,   0.0000000000)
 A3 = (   0.0000000000,   0.0000000000,   8.0633474300)


Analysis of symmetry for initial positions (statically):
=====================================================================
 Subroutine PRICEL returns:
 Original cell was already a primitive cell.
 

 Routine SETGRP: Setting up the symmetry group for a 
 simple cubic supercell.


 Subroutine GETGRP returns: Found  1 space group operations
 (whereof  1 operations were pure point group operations)
 out of a pool of 48 trial point group operations.


The static configuration has the point symmetry C_1 .


Analysis of symmetry for dynamics (positions and initial velocities):
=====================================================================
 Subroutine PRICEL returns:
 Original cell was already a primitive cell.
 

 Routine SETGRP: Setting up the symmetry group for a 
 simple cubic supercell.


 Subroutine GETGRP returns: Found  1 space group operations
 (whereof  1 operations were pure point group operations)
 out of a pool of 48 trial point group operations.


The dynamic configuration has the point symmetry C_1 .


 Subroutine INISYM returns: Found  1 space group operations
 (whereof  1 operations are pure point group operations),
 and found     1 'primitive' translations

 
 
 KPOINTS: Automatic mesh                          

Automatic generation of k-mesh.
Space group operators:
 irot       det(A)        alpha          n_x          n_y          n_z        tau_x        tau_y        tau_z
    1     1.000000     0.000001     1.000000     0.000000     0.000000     0.000000     0.000000     0.000000
 
 Subroutine IBZKPT returns following result:
 ===========================================
 
 Found     36 irreducible k-points:
 
 Following reciprocal coordinates:
            Coordinates               Weight
  0.000000  0.000000  0.000000      1.000000
  0.250000  0.000000  0.000000      2.000000
  0.500000  0.000000  0.000000      1.000000
  0.000000  0.250000  0.000000      2.000000
  0.250000  0.250000  0.000000      2.000000
  0.500000  0.250000  0.000000      2.000000
 -0.250000  0.250000  0.000000      2.000000
  0.000000  0.500000  0.000000      1.000000
  0.250000  0.500000  0.000000      2.000000
  0.500000  0.500000  0.000000      1.000000
  0.000000  0.000000  0.250000      2.000000
  0.250000  0.000000  0.250000      2.000000
  0.500000  0.000000  0.250000      2.000000
 -0.250000  0.000000  0.250000      2.000000
  0.000000  0.250000  0.250000      2.000000
  0.250000  0.250000  0.250000      2.000000
  0.500000  0.250000  0.250000      2.000000
 -0.250000  0.250000  0.250000      2.000000
  0.000000  0.500000  0.250000      2.000000
  0.250000  0.500000  0.250000      2.000000
  0.500000  0.500000  0.250000      2.000000
 -0.250000  0.500000  0.250000      2.000000
  0.000000 -0.250000  0.250000      2.000000
  0.250000 -0.250000  0.250000      2.000000
  0.500000 -0.250000  0.250000      2.000000
 -0.250000 -0.250000  0.250000      2.000000
  0.000000  0.000000  0.500000      1.000000
  0.250000  0.000000  0.500000      2.000000
  0.500000  0.000000  0.500000      1.000000
  0.000000  0.250000  0.500000      2.000000
  0.250000  0.250000  0.500000      2.000000
  0.500000  0.250000  0.500000      2.000000
 -0.250000  0.250000  0.500000      2.000000
  0.000000  0.500000  0.500000      1.000000
  0.250000  0.500000  0.500000      2.000000
  0.500000  0.500000  0.500000      1.000000
 
 Following cartesian coordinates:
            Coordinates               Weight
  0.000000  0.000000  0.000000      1.000000
  0.031004  0.000000  0.000000      2.000000
  0.062009  0.000000  0.000000      1.000000
  0.000000  0.031004  0.000000      2.000000
  0.031004  0.031004  0.000000      2.000000
  0.062009  0.031004  0.000000      2.000000
 -0.031004  0.031004  0.000000      2.000000
  0.000000  0.062009  0.000000      1.000000
  0.031004  0.062009  0.000000      2.000000
  0.062009  0.062009  0.000000      1.000000
  0.000000  0.000000  0.031004      2.000000
  0.031004  0.000000  0.031004      2.000000
  0.062009  0.000000  0.031004      2.000000
 -0.031004  0.000000  0.031004      2.000000
  0.000000  0.031004  0.031004      2.000000
  0.031004  0.031004  0.031004      2.000000
  0.062009  0.031004  0.031004      2.000000
 -0.031004  0.031004  0.031004      2.000000
  0.000000  0.062009  0.031004      2.000000
  0.031004  0.062009  0.031004      2.000000
  0.062009  0.062009  0.031004      2.000000
 -0.031004  0.062009  0.031004      2.000000
  0.000000 -0.031004  0.031004      2.000000
  0.031004 -0.031004  0.031004      2.000000
  0.062009 -0.031004  0.031004      2.000000
 -0.031004 -0.031004  0.031004      2.000000
  0.000000  0.000000  0.062009      1.000000
  0.031004  0.000000  0.062009      2.000000
  0.062009  0.000000  0.062009      1.000000
  0.000000  0.031004  0.062009      2.000000
  0.031004  0.031004  0.062009      2.000000
  0.062009  0.031004  0.062009      2.000000
 -0.031004  0.031004  0.062009      2.000000
  0.000000  0.062009  0.062009      1.000000
  0.031004  0.062009  0.062009      2.000000
  0.062009  0.062009  0.062009      1.000000
 


--------------------------------------------------------------------------------------------------------




 Dimension of arrays:
   k-points           NKPTS =     36   k-points in BZ     NKDIM =     36   number of bands    NBANDS=    224
   number of dos      NEDOS =    301   number of ions     NIONS =     48
   non local maximal  LDIM  =      6   non local SUM 2l+1 LMDIM =     18
   total plane-waves  NPLWV = 216000
   max r-space proj   IRMAX =   5581   max aug-charges    IRDMAX=  13553
   dimension x,y,z NGX =    60 NGY =   60 NGZ =   60
   dimension x,y,z NGXF=   120 NGYF=  120 NGZF=  120
   support grid    NGXF=   120 NGYF=  120 NGZF=  120
   ions per type =              16  32
   NGX,Y,Z   is equivalent  to a cutoff of  12.37, 12.37, 12.37 a.u.
   NGXF,Y,Z  is equivalent  to a cutoff of  24.74, 24.74, 24.74 a.u.

 SYSTEM =  unknown system                          
 POSCAR =  NiO2_Fd-3m_scale_1_025_disp_0_06_round_2

 Startparameter for this run:
   NWRITE =      1    write-flag & timer
   PREC   = accura    normal or accurate (medium, high low for compatibility)
   ISTART =      0    job   : 0-new  1-cont  2-samecut
   ICHARG =      2    charge: 1-file 2-atom 10-const
   ISPIN  =      1    spin polarized calculation?
   LNONCOLLINEAR =      F non collinear calculations
   LSORBIT =      F    spin-orbit coupling
   INIWAV =      1    electr: 0-lowe 1-rand  2-diag
   LASPH  =      F    aspherical Exc in radial PAW
   METAGGA=      F    non-selfconsistent MetaGGA calc.

 Electronic Relaxation 1
   ENCUT  =  500.0 eV  36.75 Ry    6.06 a.u.  14.70 14.70 14.70*2*pi/ulx,y,z
   ENINI  =  500.0     initial cutoff
   ENAUG  =  605.4 eV  augmentation charge cutoff
   NELM   =    120;   NELMIN=  2; NELMDL= -5     # of ELM steps 
   EDIFF  = 0.1E-04   stopping-criterion for ELM
   LREAL  =      T    real-space projection
   NLSPLINE    = F    spline interpolate recip. space projectors
   LCOMPAT=      F    compatible to vasp.4.4
   GGA_COMPAT  = T    GGA compatible to vasp.4.4-vasp.4.6
   LMAXPAW     = -100 max onsite density
   LMAXMIX     =    2 max onsite mixed and CHGCAR
   VOSKOWN=      1    Vosko Wilk Nusair interpolation
   ROPT   =   -0.00025  -0.00025
 Ionic relaxation
   EDIFFG = 0.1E-03   stopping-criterion for IOM
   NSW    =      0    number of steps for IOM
   NBLOCK =      1;   KBLOCK =      1    inner block; outer block 
   IBRION =     -1    ionic relax: 0-MD 1-quasi-New 2-CG
   NFREE  =      0    steps in history (QN), initial steepest desc. (CG)
   ISIF   =      2    stress and relaxation
   IWAVPR =     10    prediction:  0-non 1-charg 2-wave 3-comb
   ISYM   =      2    0-nonsym 1-usesym 2-fastsym
   LCORR  =      T    Harris-Foulkes like correction to forces

   POTIM  = 0.5000    time-step for ionic-motion
   TEIN   =    0.0    initial temperature
   TEBEG  =    0.0;   TEEND  =   0.0 temperature during run
   SMASS  =  -3.00    Nose mass-parameter (am)
   estimated Nose-frequenzy (Omega)   =  0.10E-29 period in steps =****** mass=  -0.149E-26a.u.
   SCALEE = 1.0000    scale energy and forces
   NPACO  =    256;   APACO  = 16.0  distance and # of slots for P.C.
   PSTRESS=    0.0 pullay stress

  Mass of Ions in am
   POMASS =  58.69 16.00
  Ionic Valenz
   ZVAL   =  10.00  6.00
  Atomic Wigner-Seitz radii
   RWIGS  =   1.15  0.73
  virtual crystal weights 
   VCA    =   1.00  1.00
   NELECT =     352.0000    total number of electrons
   NUPDOWN=      -1.0000    fix difference up-down

 DOS related values:
   EMIN   =  10.00;   EMAX   =-10.00  energy-range for DOS
   EFERMI =   0.00
   ISMEAR =     0;   SIGMA  =   0.05  broadening in eV -4-tet -1-fermi 0-gaus

 Electronic relaxation 2 (details)
   IALGO  =     38    algorithm
   LDIAG  =      T    sub-space diagonalisation (order eigenvalues)
   LSUBROT=      F    optimize rotation matrix (better conditioning)
   TURBO    =      0    0=normal 1=particle mesh
   IRESTART =      0    0=no restart 2=restart with 2 vectors
   NREBOOT  =      0    no. of reboots
   NMIN     =      0    reboot dimension
   EREF     =   0.00    reference energy to select bands
   IMIX   =      4    mixing-type and parameters
     AMIX     =   0.40;   BMIX     =  1.00
     AMIX_MAG =   1.60;   BMIX_MAG =  1.00
     AMIN     =   0.10
     WC   =   100.;   INIMIX=   1;  MIXPRE=   1;  MAXMIX= -45

 Intra band minimization:
   WEIMIN = 0.0000     energy-eigenvalue tresh-hold
   EBREAK =  0.11E-07  absolut break condition
   DEPER  =   0.30     relativ break condition  

   TIME   =   0.40     timestep for ELM

  volume/ion in A,a.u.               =      10.92        73.71
  Fermi-wavevector in a.u.,A,eV,Ry     =   1.433531  2.708980 27.960114  2.055010
  Thomas-Fermi vector in A             =   2.553039
 
 Write flags
   LWAVE        =      F    write WAVECAR
   LDOWNSAMPLE  =      F    k-point downsampling of WAVECAR
   LCHARG       =      T    write CHGCAR
   LVTOT        =      F    write LOCPOT, total local potential
   LVHAR        =      F    write LOCPOT, Hartree potential only
   LELF         =      F    write electronic localiz. function (ELF)
   LORBIT       =      0    0 simple, 1 ext, 2 COOP (PROOUT), +10 PAW based schemes


 Dipole corrections
   LMONO  =      F    monopole corrections only (constant potential shift)
   LDIPOL =      F    correct potential (dipole corrections)
   IDIPOL =      0    1-x, 2-y, 3-z, 4-all directions 
   EPSILON=  1.0000000 bulk dielectric constant

 Exchange correlation treatment:
   GGA     =    PS    GGA type
   LEXCH   =    14    internal setting for exchange type
   VOSKOWN=      1    Vosko Wilk Nusair interpolation
   LHFCALC =     F    Hartree Fock is set to
   LHFONE  =     F    Hartree Fock one center treatment
   AEXX    =    0.0000 exact exchange contribution

 Linear response parameters
   LEPSILON=     F    determine dielectric tensor
   LRPA    =     F    only Hartree local field effects (RPA)
   LNABLA  =     F    use nabla operator in PAW spheres
   LVEL    =     F    velocity operator in full k-point grid
   LINTERFAST=   F  fast interpolation
   KINTER  =     0    interpolate to denser k-point grid
   CSHIFT  =0.1000    complex shift for real part using Kramers Kronig
   OMEGAMAX=  -1.0    maximum frequency
   DEG_THRESHOLD= 0.2000000E-02 threshold for treating states as degnerate
   RTIME   =   -0.100 relaxation time in fs
  (WPLASMAI=    0.000 imaginary part of plasma frequency in eV, 0.658/RTIME)
   DFIELD  = 0.0000000 0.0000000 0.0000000 field for delta impulse in time
 
 Orbital magnetization related:
   ORBITALMAG=     F  switch on orbital magnetization
   LCHIMAG   =     F  perturbation theory with respect to B field
   DQ        =  0.001000  dq finite difference perturbation B field
   LLRAUG    =     F  two centre corrections for induced B field



--------------------------------------------------------------------------------------------------------


 Static calculation
 charge density and potential will be updated during run
 non-spin polarized calculation
 Variant of blocked Davidson
 Davidson routine will perform the subspace rotation
 perform sub-space diagonalisation
    after iterative eigenvector-optimisation
 modified Broyden-mixing scheme, WC =      100.0
 initial mixing is a Kerker type mixing with AMIX =  0.4000 and BMIX =      1.0000
 Hartree-type preconditioning will be used
 using additional bands           48
 real space projection scheme for non local part
 use partial core corrections
 calculate Harris-corrections to forces 
   (improved forces if not selfconsistent)
 use gradient corrections 
 use of overlap-Matrix (Vanderbilt PP)
 Gauss-broadening in eV      SIGMA  =   0.05


--------------------------------------------------------------------------------------------------------


  energy-cutoff  :      500.00
  volume of cell :      524.26
      direct lattice vectors                 reciprocal lattice vectors
     8.063347430  0.000000000  0.000000000     0.124017973  0.000000000  0.000000000
     0.000000000  8.063347430  0.000000000     0.000000000  0.124017973  0.000000000
     0.000000000  0.000000000  8.063347430     0.000000000  0.000000000  0.124017973

  length of vectors
     8.063347430  8.063347430  8.063347430     0.124017973  0.124017973  0.124017973


 
 k-points in units of 2pi/SCALE and weight: Automatic mesh                          
   0.00000000  0.00000000  0.00000000       0.016
   0.03100449  0.00000000  0.00000000       0.031
   0.06200899  0.00000000  0.00000000       0.016
   0.00000000  0.03100449  0.00000000       0.031
   0.03100449  0.03100449  0.00000000       0.031
   0.06200899  0.03100449  0.00000000       0.031
  -0.03100449  0.03100449  0.00000000       0.031
   0.00000000  0.06200899  0.00000000       0.016
   0.03100449  0.06200899  0.00000000       0.031
   0.06200899  0.06200899  0.00000000       0.016
   0.00000000  0.00000000  0.03100449       0.031
   0.03100449  0.00000000  0.03100449       0.031
   0.06200899  0.00000000  0.03100449       0.031
  -0.03100449  0.00000000  0.03100449       0.031
   0.00000000  0.03100449  0.03100449       0.031
   0.03100449  0.03100449  0.03100449       0.031
   0.06200899  0.03100449  0.03100449       0.031
  -0.03100449  0.03100449  0.03100449       0.031
   0.00000000  0.06200899  0.03100449       0.031
   0.03100449  0.06200899  0.03100449       0.031
   0.06200899  0.06200899  0.03100449       0.031
  -0.03100449  0.06200899  0.03100449       0.031
   0.00000000 -0.03100449  0.03100449       0.031
   0.03100449 -0.03100449  0.03100449       0.031
   0.06200899 -0.03100449  0.03100449       0.031
  -0.03100449 -0.03100449  0.03100449       0.031
   0.00000000  0.00000000  0.06200899       0.016
   0.03100449  0.00000000  0.06200899       0.031
   0.06200899  0.00000000  0.06200899       0.016
   0.00000000  0.03100449  0.06200899       0.031
   0.03100449  0.03100449  0.06200899       0.031
   0.06200899  0.03100449  0.06200899       0.031
  -0.03100449  0.03100449  0.06200899       0.031
   0.00000000  0.06200899  0.06200899       0.016
   0.03100449  0.06200899  0.06200899       0.031
   0.06200899  0.06200899  0.06200899       0.016
 
 k-points in reciprocal lattice and weights: Automatic mesh                          
   0.00000000  0.00000000  0.00000000       0.016
   0.25000000  0.00000000  0.00000000       0.031
   0.50000000  0.00000000  0.00000000       0.016
   0.00000000  0.25000000  0.00000000       0.031
   0.25000000  0.25000000  0.00000000       0.031
   0.50000000  0.25000000  0.00000000       0.031
  -0.25000000  0.25000000  0.00000000       0.031
   0.00000000  0.50000000  0.00000000       0.016
   0.25000000  0.50000000  0.00000000       0.031
   0.50000000  0.50000000  0.00000000       0.016
   0.00000000  0.00000000  0.25000000       0.031
   0.25000000  0.00000000  0.25000000       0.031
   0.50000000  0.00000000  0.25000000       0.031
  -0.25000000  0.00000000  0.25000000       0.031
   0.00000000  0.25000000  0.25000000       0.031
   0.25000000  0.25000000  0.25000000       0.031
   0.50000000  0.25000000  0.25000000       0.031
  -0.25000000  0.25000000  0.25000000       0.031
   0.00000000  0.50000000  0.25000000       0.031
   0.25000000  0.50000000  0.25000000       0.031
   0.50000000  0.50000000  0.25000000       0.031
  -0.25000000  0.50000000  0.25000000       0.031
   0.00000000 -0.25000000  0.25000000       0.031
   0.25000000 -0.25000000  0.25000000       0.031
   0.50000000 -0.25000000  0.25000000       0.031
  -0.25000000 -0.25000000  0.25000000       0.031
   0.00000000  0.00000000  0.50000000       0.016
   0.25000000  0.00000000  0.50000000       0.031
   0.50000000  0.00000000  0.50000000       0.016
   0.00000000  0.25000000  0.50000000       0.031
   0.25000000  0.25000000  0.50000000       0.031
   0.50000000  0.25000000  0.50000000       0.031
  -0.25000000  0.25000000  0.50000000       0.031
   0.00000000  0.50000000  0.50000000       0.016
   0.25000000  0.50000000  0.50000000       0.031
   0.50000000  0.50000000  0.50000000       0.016
 
 position of ions in fractional coordinates (direct lattice) 
   0.11636584  0.61955122  0.13122385
   0.35391135  0.84273396  0.10918925
   0.37968501  0.61040785  0.36546432
   0.12608453  0.84648977  0.36451187
   0.11314538  0.12645639  0.60267479
   0.36853882  0.37374574  0.60888436
   0.37199750  0.11294890  0.84479991
   0.12358730  0.36426931  0.84315546
   0.60616220  0.61869850  0.60450416
   0.85384591  0.85074812  0.61119326
   0.85625764  0.61415518  0.85753095
   0.61589664  0.85682995  0.85511431
   0.60593055  0.09907966  0.11901081
   0.84773991  0.36062108  0.10902314
   0.85924536  0.10808140  0.36896783
   0.60800496  0.36906900  0.37232957
   0.85490109  0.14586244  0.14353210
   0.36290476  0.84031807  0.35282204
   0.37598380  0.11048471  0.11652922
   0.10810373  0.10824144  0.37480607
   0.39142359  0.37969593  0.38373491
   0.10677057  0.38300419  0.09471143
   0.62444897  0.13106325  0.36188416
   0.14142805  0.83787000  0.13026811
   0.83293553  0.62763941  0.61830474
   0.36481282  0.34432394  0.83503509
   0.37203524  0.58519669  0.59895847
   0.10221687  0.60466666  0.86759865
   0.36544223  0.86092613  0.86693669
   0.11740755  0.86339210  0.59355232
   0.61188360  0.63252785  0.82315547
   0.13729960  0.35173936  0.62555218
   0.35660446  0.14329827  0.62351152
   0.82690826  0.85148272  0.83515247
   0.87390553  0.10587835  0.60146466
   0.59556433  0.10489114  0.87371349
   0.84849409  0.37667413  0.86720548
   0.59840537  0.37487092  0.58132137
   0.13771382  0.12645451  0.84422100
   0.62582974  0.83936901  0.63445177
   0.36054439  0.61538846  0.12188061
   0.84987476  0.36882471  0.34632302
   0.86917453  0.58853645  0.10290730
   0.61763777  0.59892411  0.37985373
   0.86816230  0.85780397  0.38210213
   0.60968299  0.87814698  0.10431766
   0.12887882  0.62830551  0.35227154
   0.62244202  0.34636330  0.14158426
 
 position of ions in cartesian coordinates  (Angst):
   0.93829820  4.99565674  1.05810349
   2.85371017  6.79525671  0.88043086
   3.06153215  4.92193057  2.94686579
   1.01666337  6.82554111  2.93918585
   0.91233051  1.01966181  4.85957622
   2.97165655  3.01364175  4.90964614
   2.99954509  0.91074622  6.81191518
   0.99652734  2.93723000  6.79865541
   4.88769642  4.98878096  4.87432706
   6.88485622  6.85987767  4.92826360
   6.90430284  4.95214659  6.91456998
   4.96618859  6.90891758  6.89508377
   4.88582854  0.79891372  0.95962551
   6.83562142  2.90781306  0.87909146
   6.92839387  0.87149788  2.97511580
   4.90255523  2.97593157  3.00222268
   6.89336451  1.17613953  1.15734919
   2.92622716  6.77577655  2.84492669
   3.03168801  0.89087660  0.93961559
   0.87167793  0.87278834  3.02219156
   3.15618440  3.06162020  3.09418790
   0.86092820  3.08829585  0.76369117
   5.03514900  1.05680852  2.91799771
   1.14038350  6.75603691  1.05039703
   6.71624857  5.06087462  4.98560594
   2.94161251  2.77640356  6.73317805
   2.99984940  4.71864423  4.82961024
   0.82421014  4.87563736  6.99574934
   2.94668767  6.94194650  6.99041173
   0.94669787  6.96183047  4.78601857
   4.93383005  5.10029181  6.63738854
   1.10709438  2.83619666  5.04404456
   2.87542566  1.15546374  5.02759001
   6.66764859  6.86580100  6.73412452
   7.04660391  0.85373392  4.84981852
   4.80224211  0.84577370  7.04505542
   6.84170264  3.03725438  6.99257908
   4.82515040  3.02271447  4.68739617
   1.11043438  1.01964665  6.80724723
   5.04628263  6.76812395  5.11580505
   2.90719468  4.96209096  0.98276570
   6.85283546  2.97396178  2.79252283
   7.00845621  4.74557387  0.82977731
   4.98022793  4.82933318  3.06289260
   7.00029425  6.91677144  3.08102223
   4.91608577  7.08080419  0.84114954
   1.03919470  5.06624562  2.84048782
   5.01896626  2.79284762  1.14164308
 


--------------------------------------------------------------------------------------------------------


 k-point  1 :   0.0000 0.0000 0.0000  plane waves:   13301
 k-point  2 :   0.2500 0.0000 0.0000  plane waves:   13361
 k-point  3 :   0.5000 0.0000 0.0000  plane waves:   13286
 k-point  4 :   0.0000 0.2500 0.0000  plane waves:   13361
 k-point  5 :   0.2500 0.2500 0.0000  plane waves:   13343
 k-point  6 :   0.5000 0.2500 0.0000  plane waves:   13270
 k-point  7 :  -0.2500 0.2500 0.0000  plane waves:   13343
 k-point  8 :   0.0000 0.5000 0.0000  plane waves:   13286
 k-point  9 :   0.2500 0.5000 0.0000  plane waves:   13270
 k-point 10 :   0.5000 0.5000 0.0000  plane waves:   13272
 k-point 11 :   0.0000 0.0000 0.2500  plane waves:   13361
 k-point 12 :   0.2500 0.0000 0.2500  plane waves:   13343
 k-point 13 :   0.5000 0.0000 0.2500  plane waves:   13270
 k-point 14 :  -0.2500 0.0000 0.2500  plane waves:   13343
 k-point 15 :   0.0000 0.2500 0.2500  plane waves:   13343
 k-point 16 :   0.2500 0.2500 0.2500  plane waves:   13286
 k-point 17 :   0.5000 0.2500 0.2500  plane waves:   13298
 k-point 18 :  -0.2500 0.2500 0.2500  plane waves:   13286
 k-point 19 :   0.0000 0.5000 0.2500  plane waves:   13270
 k-point 20 :   0.2500 0.5000 0.2500  plane waves:   13298
 k-point 21 :   0.5000 0.5000 0.2500  plane waves:   13332
 k-point 22 :  -0.2500 0.5000 0.2500  plane waves:   13298
 k-point 23 :   0.0000-0.2500 0.2500  plane waves:   13343
 k-point 24 :   0.2500-0.2500 0.2500  plane waves:   13286
 k-point 25 :   0.5000-0.2500 0.2500  plane waves:   13298
 k-point 26 :  -0.2500-0.2500 0.2500  plane waves:   13286
 k-point 27 :   0.0000 0.0000 0.5000  plane waves:   13286
 k-point 28 :   0.2500 0.0000 0.5000  plane waves:   13270
 k-point 29 :   0.5000 0.0000 0.5000  plane waves:   13272
 k-point 30 :   0.0000 0.2500 0.5000  plane waves:   13270
 k-point 31 :   0.2500 0.2500 0.5000  plane waves:   13298
 k-point 32 :   0.5000 0.2500 0.5000  plane waves:   13332
 k-point 33 :  -0.2500 0.2500 0.5000  plane waves:   13298
 k-point 34 :   0.0000 0.5000 0.5000  plane waves:   13272
 k-point 35 :   0.2500 0.5000 0.5000  plane waves:   13332
 k-point 36 :   0.5000 0.5000 0.5000  plane waves:   13264

 maximum and minimum number of plane-waves per node :     13361    13264

 maximum number of plane-waves:     13361
 maximum index in each direction: 
   IXMAX=   14   IYMAX=   14   IZMAX=   14
   IXMIN=  -15   IYMIN=  -15   IZMIN=  -15

 The following grids will avoid any aliasing or wrap around errors in the Hartre
 e energy
  - symmetry arguments have not been applied
  - exchange correlation energies might require even more grid points
  - we recommend to set PREC=Normal or Accurate and rely on VASP defaults
 NGX is ok and might be reduce to    60
 NGY is ok and might be reduce to    60
 NGZ is ok and might be reduce to    60

 serial   3D FFT for wavefunctions
 parallel 3D FFT for charge:
    minimum data exchange during FFTs selected (reduces bandwidth)


 total amount of memory used by VASP MPI-rank0   186094. kBytes
=======================================================================

   base      :      30000. kBytes
   nonlr-proj:      23122. kBytes
   fftplans  :       4751. kBytes
   grid      :      15225. kBytes
   one-center:        746. kBytes
   wavefun   :     112250. kBytes
 
     INWAV:  cpu time    0.0000: real time    0.0000
 Broyden mixing: mesh for mixing (old mesh)
   NGX = 29   NGY = 29   NGZ = 29
  (NGX  =120   NGY  =120   NGZ  =120)
  gives a total of  24389 points

 initial charge density was supplied:
 charge density of overlapping atoms calculated
 number of electron     352.0000000 magnetization 
 keeping initial charge density in first step


--------------------------------------------------------------------------------------------------------


 Maximum index for non-local projection operator         5373
 Maximum index for augmentation-charges          931 (set IRDMAX)


--------------------------------------------------------------------------------------------------------


 First call to EWALD:  gamma=   0.220
 Maximum number of real-space cells 3x 3x 3
 Maximum number of reciprocal cells 3x 3x 3

    FEWALD:  cpu time    0.0021: real time    0.0021


--------------------------------------- Iteration      1(   1)  ---------------------------------------


    POTLOK:  cpu time    0.0657: real time    0.0755
    SETDIJ:  cpu time    0.0059: real time    0.0059
     EDDAV:  cpu time   24.5531: real time   24.6276
    --------------------------------------------
      LOOP:  cpu time   24.6265: real time   24.7108

 eigenvalue-minimisations  : 16128
 total energy-change (2. order) : 0.4505001E+04  (-0.1557114E+05)
 number of electron     352.0000000 magnetization 
 augmentation part      352.0000000 magnetization 

 Free energy of the ion-electron system (eV)
  ---------------------------------------------------
  alpha Z        PSCENC =      1045.46069007
  Ewald energy   TEWEN  =    -20028.81634413
  -Hartree energ DENC   =    -11727.50670293
  -exchange      EXHF   =         0.00000000
  -V(xc)+E(xc)   XCENC  =      1404.79435695
  PAW double counting   =     26475.20327555   -27591.76617206
  entropy T*S    EENTRO =        -0.00763777
  eigenvalues    EBANDS =      3913.96674085
  atomic energy  EATOM  =     31013.67235384
  Solvation  Ediel_sol  =         0.00000000
  ---------------------------------------------------
  free energy    TOTEN  =      4505.00056036 eV

  energy without entropy =     4505.00819814  energy(sigma->0) =     4505.00437925


--------------------------------------------------------------------------------------------------------




--------------------------------------- Iteration      1(   2)  ---------------------------------------


     EDDAV:  cpu time   25.3171: real time   25.3771
    --------------------------------------------
      LOOP:  cpu time   25.3170: real time   25.3770

 eigenvalue-minimisations  : 16800
 total energy-change (2. order) :-0.3968903E+04  (-0.3621845E+04)
 number of electron     352.0000000 magnetization 
 augmentation part      352.0000000 magnetization 

 Free energy of the ion-electron system (eV)
  ---------------------------------------------------
  alpha Z        PSCENC =      1045.46069007
  Ewald energy   TEWEN  =    -20028.81634413
  -Hartree energ DENC   =    -11727.50670293
  -exchange      EXHF   =         0.00000000
  -V(xc)+E(xc)   XCENC  =      1404.79435695
  PAW double counting   =     26475.20327555   -27591.76617206
  entropy T*S    EENTRO =        -0.02777974
  eigenvalues    EBANDS =       -54.91575069
  atomic energy  EATOM  =     31013.67235384
  Solvation  Ediel_sol  =         0.00000000
  ---------------------------------------------------
  free energy    TOTEN  =       536.09792686 eV

  energy without entropy =      536.12570660  energy(sigma->0) =      536.11181673


--------------------------------------------------------------------------------------------------------




--------------------------------------- Iteration      1(   3)  ---------------------------------------


     EDDAV:  cpu time   25.9633: real time   26.0249
    --------------------------------------------
      LOOP:  cpu time   25.9625: real time   26.0241

 eigenvalue-minimisations  : 17344
 total energy-change (2. order) :-0.8721726E+03  (-0.7716473E+03)
 number of electron     352.0000000 magnetization 
 augmentation part      352.0000000 magnetization 

 Free energy of the ion-electron system (eV)
  ---------------------------------------------------
  alpha Z        PSCENC =      1045.46069007
  Ewald energy   TEWEN  =    -20028.81634413
  -Hartree energ DENC   =    -11727.50670293
  -exchange      EXHF   =         0.00000000
  -V(xc)+E(xc)   XCENC  =      1404.79435695
  PAW double counting   =     26475.20327555   -27591.76617206
  entropy T*S    EENTRO =        -0.00000000
  eigenvalues    EBANDS =      -927.11616350
  atomic energy  EATOM  =     31013.67235384
  Solvation  Ediel_sol  =         0.00000000
  ---------------------------------------------------
  free energy    TOTEN  =      -336.07470622 eV

  energy without entropy =     -336.07470622  energy(sigma->0) =     -336.07470622


--------------------------------------------------------------------------------------------------------




--------------------------------------- Iteration      1(   4)  ---------------------------------------


     EDDAV:  cpu time   25.8765: real time   25.9379
    --------------------------------------------
      LOOP:  cpu time   25.8766: real time   25.9379

 eigenvalue-minimisations  : 17280
 total energy-change (2. order) :-0.7870679E+02  (-0.7730884E+02)
 number of electron     352.0000000 magnetization 
 augmentation part      352.0000000 magnetization 

 Free energy of the ion-electron system (eV)
  ---------------------------------------------------
  alpha Z        PSCENC =      1045.46069007
  Ewald energy   TEWEN  =    -20028.81634413
  -Hartree energ DENC   =    -11727.50670293
  -exchange      EXHF   =         0.00000000
  -V(xc)+E(xc)   XCENC  =      1404.79435695
  PAW double counting   =     26475.20327555   -27591.76617206
  entropy T*S    EENTRO =        -0.00000000
  eigenvalues    EBANDS =     -1005.82295500
  atomic energy  EATOM  =     31013.67235384
  Solvation  Ediel_sol  =         0.00000000
  ---------------------------------------------------
  free energy    TOTEN  =      -414.78149771 eV

  energy without entropy =     -414.78149771  energy(sigma->0) =     -414.78149771


--------------------------------------------------------------------------------------------------------




--------------------------------------- Iteration      1(   5)  ---------------------------------------


     EDDAV:  cpu time   26.3325: real time   26.3948
    CHARGE:  cpu time    1.0399: real time    1.0425
    MIXING:  cpu time    0.0018: real time    0.0019
    --------------------------------------------
      LOOP:  cpu time   27.3734: real time   27.4383

 eigenvalue-minimisations  : 17680
 total energy-change (2. order) :-0.2228317E+01  (-0.2219231E+01)
 number of electron     351.9999972 magnetization 
 augmentation part       99.7940723 magnetization 

 Broyden mixing:
  rms(total) = 0.10877E+02    rms(broyden)= 0.10866E+02
  rms(prec ) = 0.14644E+02
  weight for this iteration     100.00

 Free energy of the ion-electron system (eV)
  ---------------------------------------------------
  alpha Z        PSCENC =      1045.46069007
  Ewald energy   TEWEN  =    -20028.81634413
  -Hartree energ DENC   =    -11727.50670293
  -exchange      EXHF   =         0.00000000
  -V(xc)+E(xc)   XCENC  =      1404.79435695
  PAW double counting   =     26475.20327555   -27591.76617206
  entropy T*S    EENTRO =        -0.00000000
  eigenvalues    EBANDS =     -1008.05127172
  atomic energy  EATOM  =     31013.67235384
  Solvation  Ediel_sol  =         0.00000000
  ---------------------------------------------------
  free energy    TOTEN  =      -417.00981443 eV

  energy without entropy =     -417.00981443  energy(sigma->0) =     -417.00981443


--------------------------------------------------------------------------------------------------------




--------------------------------------- Iteration      1(   6)  ---------------------------------------


    POTLOK:  cpu time    0.0483: real time    0.0484
    SETDIJ:  cpu time    0.0061: real time    0.0061
     EDDAV:  cpu time   37.1791: real time   37.2670
    CHARGE:  cpu time    1.0265: real time    1.0289
    MIXING:  cpu time    0.0019: real time    0.0019
    --------------------------------------------
      LOOP:  cpu time   38.2617: real time   38.3522

 eigenvalue-minimisations  : 25040
 total energy-change (2. order) :-0.1260453E+03  (-0.1040047E+03)
 number of electron     351.9999991 magnetization 
 augmentation part      138.7363618 magnetization 

 Broyden mixing:
  rms(total) = 0.20285E+02    rms(broyden)= 0.20281E+02
  rms(prec ) = 0.23767E+02
  weight for this iteration     100.00

 eigenvalues of (default mixing * dielectric matrix)
  average eigenvalue GAMMA=   0.1951
  0.1951

 Free energy of the ion-electron system (eV)
  ---------------------------------------------------
  alpha Z        PSCENC =      1045.46069007
  Ewald energy   TEWEN  =    -20028.81634413
  -Hartree energ DENC   =    -11072.89966349
  -exchange      EXHF   =         0.00000000
  -V(xc)+E(xc)   XCENC  =      1400.07471545
  PAW double counting   =     28747.84745579   -29667.38856707
  entropy T*S    EENTRO =        -0.04452482
  eigenvalues    EBANDS =     -1980.96124125
  atomic energy  EATOM  =     31013.67235384
  Solvation  Ediel_sol  =         0.00000000
  ---------------------------------------------------
  free energy    TOTEN  =      -543.05512561 eV

  energy without entropy =     -543.01060080  energy(sigma->0) =     -543.03286321


--------------------------------------------------------------------------------------------------------




--------------------------------------- Iteration      1(   7)  ---------------------------------------


    POTLOK:  cpu time    0.0494: real time    0.0495
    SETDIJ:  cpu time    0.0058: real time    0.0059
     EDDAV:  cpu time   32.5016: real time   32.5784
    CHARGE:  cpu time    0.9901: real time    0.9925
    MIXING:  cpu time    0.0016: real time    0.0016
    --------------------------------------------
      LOOP:  cpu time   33.5485: real time   33.6279

 eigenvalue-minimisations  : 22992
 total energy-change (2. order) : 0.2203114E+03  (-0.2718163E+02)
 number of electron     351.9999976 magnetization 
 augmentation part      125.0676506 magnetization 

 Broyden mixing:
  rms(total) = 0.66982E+01    rms(broyden)= 0.66964E+01
  rms(prec ) = 0.93499E+01
  weight for this iteration     100.00

 eigenvalues of (default mixing * dielectric matrix)
  average eigenvalue GAMMA=   0.5501
  0.5501  0.5501

 Free energy of the ion-electron system (eV)
  ---------------------------------------------------
  alpha Z        PSCENC =      1045.46069007
  Ewald energy   TEWEN  =    -20028.81634413
  -Hartree energ DENC   =    -11351.69184815
  -exchange      EXHF   =         0.00000000
  -V(xc)+E(xc)   XCENC  =      1403.89019366
  PAW double counting   =     30057.65259987   -31118.19342338
  entropy T*S    EENTRO =        -0.02139756
  eigenvalues    EBANDS =     -1344.69650136
  atomic energy  EATOM  =     31013.67235384
  Solvation  Ediel_sol  =         0.00000000
  ---------------------------------------------------
  free energy    TOTEN  =      -322.74367715 eV

  energy without entropy =     -322.72227958  energy(sigma->0) =     -322.73297837


--------------------------------------------------------------------------------------------------------




--------------------------------------- Iteration      1(   8)  ---------------------------------------


    POTLOK:  cpu time    0.0458: real time    0.0459
    SETDIJ:  cpu time    0.0058: real time    0.0058
     EDDAV:  cpu time   35.5672: real time   35.6514
    CHARGE:  cpu time    0.9941: real time    0.9965
    MIXING:  cpu time    0.0016: real time    0.0017
    --------------------------------------------
      LOOP:  cpu time   36.6146: real time   36.7012

 eigenvalue-minimisations  : 25728
 total energy-change (2. order) :-0.2853848E+01  (-0.1020928E+02)
 number of electron     351.9999986 magnetization 
 augmentation part      117.4422731 magnetization 

 Broyden mixing:
  rms(total) = 0.94913E+01    rms(broyden)= 0.94892E+01
  rms(prec ) = 0.14555E+02
  weight for this iteration     100.00

 eigenvalues of (default mixing * dielectric matrix)
  average eigenvalue GAMMA=   0.4650
  0.6097  0.6097  0.1754

 Free energy of the ion-electron system (eV)
  ---------------------------------------------------
  alpha Z        PSCENC =      1045.46069007
  Ewald energy   TEWEN  =    -20028.81634413
  -Hartree energ DENC   =    -11395.26956669
  -exchange      EXHF   =         0.00000000
  -V(xc)+E(xc)   XCENC  =      1401.31158433
  PAW double counting   =     30940.58568938   -32067.10882961
  entropy T*S    EENTRO =        -0.05096129
  eigenvalues    EBANDS =     -1235.38214129
  atomic energy  EATOM  =     31013.67235384
  Solvation  Ediel_sol  =         0.00000000
  ---------------------------------------------------
  free energy    TOTEN  =      -325.59752540 eV

  energy without entropy =     -325.54656411  energy(sigma->0) =     -325.57204475


--------------------------------------------------------------------------------------------------------




--------------------------------------- Iteration      1(   9)  ---------------------------------------


    POTLOK:  cpu time    0.0457: real time    0.0458
    SETDIJ:  cpu time    0.0058: real time    0.0058
     EDDAV:  cpu time   28.3142: real time   28.3812
    CHARGE:  cpu time    0.9951: real time    0.9975
    MIXING:  cpu time    0.0019: real time    0.0019
    --------------------------------------------
      LOOP:  cpu time   29.3626: real time   29.4322

 eigenvalue-minimisations  : 19488
 total energy-change (2. order) :-0.3502144E+01  (-0.1483058E+02)
 number of electron     351.9999972 magnetization 
 augmentation part      110.2545608 magnetization 

 Broyden mixing:
  rms(total) = 0.89030E+01    rms(broyden)= 0.89012E+01
  rms(prec ) = 0.13548E+02
  weight for this iteration     100.00

 eigenvalues of (default mixing * dielectric matrix)
  average eigenvalue GAMMA=   0.4341
  0.8910  0.4609  0.2409  0.1435

 Free energy of the ion-electron system (eV)
  ---------------------------------------------------
  alpha Z        PSCENC =      1045.46069007
  Ewald energy   TEWEN  =    -20028.81634413
  -Hartree energ DENC   =    -11411.06191729
  -exchange      EXHF   =         0.00000000
  -V(xc)+E(xc)   XCENC  =      1399.74599839
  PAW double counting   =     31586.60527808   -32731.29630469
  entropy T*S    EENTRO =        -0.05795472
  eigenvalues    EBANDS =     -1203.35146916
  atomic energy  EATOM  =     31013.67235384
  Solvation  Ediel_sol  =         0.00000000
  ---------------------------------------------------
  free energy    TOTEN  =      -329.09966962 eV

  energy without entropy =     -329.04171490  energy(sigma->0) =     -329.07069226


--------------------------------------------------------------------------------------------------------




--------------------------------------- Iteration      1(  10)  ---------------------------------------


    POTLOK:  cpu time    0.0476: real time    0.0477
    SETDIJ:  cpu time    0.0059: real time    0.0059
     EDDAV:  cpu time   30.8136: real time   30.8866
    CHARGE:  cpu time    0.9854: real time    0.9877
    MIXING:  cpu time    0.0018: real time    0.0018
    --------------------------------------------
      LOOP:  cpu time   31.8543: real time   31.9298

 eigenvalue-minimisations  : 21680
 total energy-change (2. order) : 0.1900566E+02  (-0.6336412E+01)
 number of electron     351.9999977 magnetization 
 augmentation part      111.3622935 magnetization 

 Broyden mixing:
  rms(total) = 0.53691E+01    rms(broyden)= 0.53676E+01
  rms(prec ) = 0.77926E+01
  weight for this iteration     100.00

 eigenvalues of (default mixing * dielectric matrix)
  average eigenvalue GAMMA=   0.4130
  1.0283  0.4050  0.2605  0.2605  0.1109

 Free energy of the ion-electron system (eV)
  ---------------------------------------------------
  alpha Z        PSCENC =      1045.46069007
  Ewald energy   TEWEN  =    -20028.81634413
  -Hartree energ DENC   =    -11387.84457720
  -exchange      EXHF   =         0.00000000
  -V(xc)+E(xc)   XCENC  =      1398.79985719
  PAW double counting   =     32154.45996244   -33308.88412730
  entropy T*S    EENTRO =        -0.06913005
  eigenvalues    EBANDS =     -1196.87269314
  atomic energy  EATOM  =     31013.67235384
  Solvation  Ediel_sol  =         0.00000000
  ---------------------------------------------------
  free energy    TOTEN  =      -310.09400829 eV

  energy without entropy =     -310.02487824  energy(sigma->0) =     -310.05944326


--------------------------------------------------------------------------------------------------------




--------------------------------------- Iteration      1(  11)  ---------------------------------------


    POTLOK:  cpu time    0.0457: real time    0.0458
    SETDIJ:  cpu time    0.0061: real time    0.0061
     EDDAV:  cpu time   28.8611: real time   28.9294
    CHARGE:  cpu time    0.9406: real time    0.9428
    MIXING:  cpu time    0.0023: real time    0.0023
    --------------------------------------------
      LOOP:  cpu time   29.8558: real time   29.9265

 eigenvalue-minimisations  : 19952
 total energy-change (2. order) : 0.1441092E+02  (-0.1857546E+01)
 number of electron     351.9999981 magnetization 
 augmentation part      113.0344859 magnetization 

 Broyden mixing:
  rms(total) = 0.22242E+01    rms(broyden)= 0.22210E+01
  rms(prec ) = 0.32079E+01
  weight for this iteration     100.00

 eigenvalues of (default mixing * dielectric matrix)
  average eigenvalue GAMMA=   0.4536
  1.2122  0.4185  0.4185  0.3732  0.1826  0.1163

 Free energy of the ion-electron system (eV)
  ---------------------------------------------------
  alpha Z        PSCENC =      1045.46069007
  Ewald energy   TEWEN  =    -20028.81634413
  -Hartree energ DENC   =    -11371.82080862
  -exchange      EXHF   =         0.00000000
  -V(xc)+E(xc)   XCENC  =      1398.46618498
  PAW double counting   =     32473.90129507   -33630.64103417
  entropy T*S    EENTRO =        -0.00000000
  eigenvalues    EBANDS =     -1195.90542110
  atomic energy  EATOM  =     31013.67235384
  Solvation  Ediel_sol  =         0.00000000
  ---------------------------------------------------
  free energy    TOTEN  =      -295.68308407 eV

  energy without entropy =     -295.68308407  energy(sigma->0) =     -295.68308407


--------------------------------------------------------------------------------------------------------




--------------------------------------- Iteration      1(  12)  ---------------------------------------


    POTLOK:  cpu time    0.0490: real time    0.0491
    SETDIJ:  cpu time    0.0059: real time    0.0059
     EDDAV:  cpu time   33.8104: real time   33.8903
    CHARGE:  cpu time    0.9438: real time    0.9461
    MIXING:  cpu time    0.0019: real time    0.0019
    --------------------------------------------
      LOOP:  cpu time   34.8110: real time   34.8933

 eigenvalue-minimisations  : 24304
 total energy-change (2. order) : 0.3392113E+01  (-0.8981755E+00)
 number of electron     351.9999978 magnetization 
 augmentation part      113.7773054 magnetization 

 Broyden mixing:
  rms(total) = 0.16255E+01    rms(broyden)= 0.16248E+01
  rms(prec ) = 0.23528E+01
  weight for this iteration     100.00

 eigenvalues of (default mixing * dielectric matrix)
  average eigenvalue GAMMA=   0.4446
  1.2915  0.4568  0.4568  0.2902  0.2902  0.2114  0.1154

 Free energy of the ion-electron system (eV)
  ---------------------------------------------------
  alpha Z        PSCENC =      1045.46069007
  Ewald energy   TEWEN  =    -20028.81634413
  -Hartree energ DENC   =    -11365.00472864
  -exchange      EXHF   =         0.00000000
  -V(xc)+E(xc)   XCENC  =      1398.67864065
  PAW double counting   =     32817.73743943   -33975.08219567
  entropy T*S    EENTRO =        -0.00000000
  eigenvalues    EBANDS =     -1198.93682683
  atomic energy  EATOM  =     31013.67235384
  Solvation  Ediel_sol  =         0.00000000
  ---------------------------------------------------
  free energy    TOTEN  =      -292.29097129 eV

  energy without entropy =     -292.29097128  energy(sigma->0) =     -292.29097128


--------------------------------------------------------------------------------------------------------




--------------------------------------- Iteration      1(  13)  ---------------------------------------


    POTLOK:  cpu time    0.0465: real time    0.0466
    SETDIJ:  cpu time    0.0062: real time    0.0062
     EDDAV:  cpu time   34.3944: real time   34.4758
    CHARGE:  cpu time    1.0108: real time    1.0132
    MIXING:  cpu time    0.0023: real time    0.0023
    --------------------------------------------
      LOOP:  cpu time   35.4602: real time   35.5442

 eigenvalue-minimisations  : 23536
 total energy-change (2. order) : 0.1123924E+01  (-0.4191415E+00)
 number of electron     351.9999980 magnetization 
 augmentation part      114.1710284 magnetization 

 Broyden mixing:
  rms(total) = 0.10892E+01    rms(broyden)= 0.10887E+01
  rms(prec ) = 0.15356E+01
  weight for this iteration     100.00

 eigenvalues of (default mixing * dielectric matrix)
  average eigenvalue GAMMA=   0.5129
  1.5456  0.6341  0.6341  0.3835  0.3835  0.1156  0.2194  0.1877

 Free energy of the ion-electron system (eV)
  ---------------------------------------------------
  alpha Z        PSCENC =      1045.46069007
  Ewald energy   TEWEN  =    -20028.81634413
  -Hartree energ DENC   =    -11362.41372908
  -exchange      EXHF   =         0.00000000
  -V(xc)+E(xc)   XCENC  =      1398.81835847
  PAW double counting   =     33000.02725469   -34157.52905655
  entropy T*S    EENTRO =        -0.00000000
  eigenvalues    EBANDS =     -1200.38657436
  atomic energy  EATOM  =     31013.67235384
  Solvation  Ediel_sol  =         0.00000000
  ---------------------------------------------------
  free energy    TOTEN  =      -291.16704705 eV

  energy without entropy =     -291.16704705  energy(sigma->0) =     -291.16704705


--------------------------------------------------------------------------------------------------------




--------------------------------------- Iteration      1(  14)  ---------------------------------------


    POTLOK:  cpu time    0.0480: real time    0.0481
    SETDIJ:  cpu time    0.0061: real time    0.0061
     EDDAV:  cpu time   34.8742: real time   34.9568
    CHARGE:  cpu time    0.9396: real time    0.9418
    MIXING:  cpu time    0.0023: real time    0.0023
    --------------------------------------------
      LOOP:  cpu time   35.8703: real time   35.9551

 eigenvalue-minimisations  : 24208
 total energy-change (2. order) : 0.6766472E+00  (-0.1476640E+00)
 number of electron     351.9999979 magnetization 
 augmentation part      114.9287643 magnetization 

 Broyden mixing:
  rms(total) = 0.63459E+00    rms(broyden)= 0.63424E+00
  rms(prec ) = 0.84678E+00
  weight for this iteration     100.00

 eigenvalues of (default mixing * dielectric matrix)
  average eigenvalue GAMMA=   0.5531
  1.8235  0.7208  0.7208  0.4325  0.4325  0.3277  0.1156  0.1912  0.2133

 Free energy of the ion-electron system (eV)
  ---------------------------------------------------
  alpha Z        PSCENC =      1045.46069007
  Ewald energy   TEWEN  =    -20028.81634413
  -Hartree energ DENC   =    -11357.63105006
  -exchange      EXHF   =         0.00000000
  -V(xc)+E(xc)   XCENC  =      1398.98848255
  PAW double counting   =     33359.92043158   -34519.10566043
  entropy T*S    EENTRO =        -0.00000000
  eigenvalues    EBANDS =     -1202.97930330
  atomic energy  EATOM  =     31013.67235384
  Solvation  Ediel_sol  =         0.00000000
  ---------------------------------------------------
  free energy    TOTEN  =      -290.49039989 eV

  energy without entropy =     -290.49039989  energy(sigma->0) =     -290.49039989


--------------------------------------------------------------------------------------------------------




--------------------------------------- Iteration      1(  15)  ---------------------------------------


    POTLOK:  cpu time    0.0454: real time    0.0455
    SETDIJ:  cpu time    0.0061: real time    0.0061
     EDDAV:  cpu time   33.1358: real time   33.2141
    CHARGE:  cpu time    0.9406: real time    0.9428
    MIXING:  cpu time    0.0021: real time    0.0021
    --------------------------------------------
      LOOP:  cpu time   34.1299: real time   34.2106

 eigenvalue-minimisations  : 23712
 total energy-change (2. order) : 0.9479263E-01  (-0.9500000E-01)
 number of electron     351.9999980 magnetization 
 augmentation part      115.3457148 magnetization 

 Broyden mixing:
  rms(total) = 0.43471E+00    rms(broyden)= 0.43437E+00
  rms(prec ) = 0.60078E+00
  weight for this iteration     100.00

 eigenvalues of (default mixing * dielectric matrix)
  average eigenvalue GAMMA=   0.5716
  2.0839  0.7331  0.7331  0.5051  0.4323  0.4323  0.1156  0.2828  0.1914  0.2059

 Free energy of the ion-electron system (eV)
  ---------------------------------------------------
  alpha Z        PSCENC =      1045.46069007
  Ewald energy   TEWEN  =    -20028.81634413
  -Hartree energ DENC   =    -11356.03711177
  -exchange      EXHF   =         0.00000000
  -V(xc)+E(xc)   XCENC  =      1399.16219497
  PAW double counting   =     33675.68265780   -34837.21841016
  entropy T*S    EENTRO =        -0.00000000
  eigenvalues    EBANDS =     -1202.30163787
  atomic energy  EATOM  =     31013.67235384
  Solvation  Ediel_sol  =         0.00000000
  ---------------------------------------------------
  free energy    TOTEN  =      -290.39560725 eV

  energy without entropy =     -290.39560725  energy(sigma->0) =     -290.39560725


--------------------------------------------------------------------------------------------------------




--------------------------------------- Iteration      1(  16)  ---------------------------------------


    POTLOK:  cpu time    0.0465: real time    0.0466
    SETDIJ:  cpu time    0.0061: real time    0.0061
     EDDAV:  cpu time   33.6740: real time   33.7537
    CHARGE:  cpu time    0.9397: real time    0.9419
    MIXING:  cpu time    0.0027: real time    0.0113
    --------------------------------------------
      LOOP:  cpu time   34.6690: real time   34.7596

 eigenvalue-minimisations  : 24176
 total energy-change (2. order) : 0.5882011E-01  (-0.4433587E-01)
 number of electron     351.9999979 magnetization 
 augmentation part      115.5097033 magnetization 

 Broyden mixing:
  rms(total) = 0.22860E+00    rms(broyden)= 0.22829E+00
  rms(prec ) = 0.30771E+00
  weight for this iteration     100.00

 eigenvalues of (default mixing * dielectric matrix)
  average eigenvalue GAMMA=   0.6089
  2.2812  1.0331  0.6888  0.6888  0.4400  0.4077  0.4077  0.1156  0.1896  0.2165
  0.2291

 Free energy of the ion-electron system (eV)
  ---------------------------------------------------
  alpha Z        PSCENC =      1045.46069007
  Ewald energy   TEWEN  =    -20028.81634413
  -Hartree energ DENC   =    -11356.35098421
  -exchange      EXHF   =         0.00000000
  -V(xc)+E(xc)   XCENC  =      1399.29077984
  PAW double counting   =     33909.63076378   -35073.23798585
  entropy T*S    EENTRO =        -0.00000000
  eigenvalues    EBANDS =     -1199.98606047
  atomic energy  EATOM  =     31013.67235384
  Solvation  Ediel_sol  =         0.00000000
  ---------------------------------------------------
  free energy    TOTEN  =      -290.33678714 eV

  energy without entropy =     -290.33678714  energy(sigma->0) =     -290.33678714


--------------------------------------------------------------------------------------------------------




--------------------------------------- Iteration      1(  17)  ---------------------------------------


    POTLOK:  cpu time    0.0479: real time    0.0480
    SETDIJ:  cpu time    0.0059: real time    0.0059
     EDDAV:  cpu time   31.6398: real time   31.7147
    CHARGE:  cpu time    0.9375: real time    0.9397
    MIXING:  cpu time    0.0023: real time    0.0023
    --------------------------------------------
      LOOP:  cpu time   32.6334: real time   32.7106

 eigenvalue-minimisations  : 22384
 total energy-change (2. order) : 0.4725980E-02  (-0.1354794E-01)
 number of electron     351.9999979 magnetization 
 augmentation part      115.4403255 magnetization 

 Broyden mixing:
  rms(total) = 0.16612E+00    rms(broyden)= 0.16602E+00
  rms(prec ) = 0.22881E+00
  weight for this iteration     100.00

 eigenvalues of (default mixing * dielectric matrix)
  average eigenvalue GAMMA=   0.6321
  2.5322  1.2413  0.6981  0.6981  0.5234  0.4132  0.4132  0.3200  0.1156  0.1899
  0.2088  0.2315

 Free energy of the ion-electron system (eV)
  ---------------------------------------------------
  alpha Z        PSCENC =      1045.46069007
  Ewald energy   TEWEN  =    -20028.81634413
  -Hartree energ DENC   =    -11357.70820186
  -exchange      EXHF   =         0.00000000
  -V(xc)+E(xc)   XCENC  =      1399.31743371
  PAW double counting   =     34037.19220161   -35201.99469780
  entropy T*S    EENTRO =        -0.00000000
  eigenvalues    EBANDS =     -1197.45549660
  atomic energy  EATOM  =     31013.67235384
  Solvation  Ediel_sol  =         0.00000000
  ---------------------------------------------------
  free energy    TOTEN  =      -290.33206116 eV

  energy without entropy =     -290.33206116  energy(sigma->0) =     -290.33206116


--------------------------------------------------------------------------------------------------------




--------------------------------------- Iteration      1(  18)  ---------------------------------------


    POTLOK:  cpu time    0.0459: real time    0.0460
    SETDIJ:  cpu time    0.0059: real time    0.0059
     EDDAV:  cpu time   29.9093: real time   29.9819
    CHARGE:  cpu time    0.9381: real time    0.9403
    MIXING:  cpu time    0.0025: real time    0.0025
    --------------------------------------------
      LOOP:  cpu time   30.9017: real time   30.9766

 eigenvalue-minimisations  : 20800
 total energy-change (2. order) : 0.3795365E-02  (-0.6345316E-02)
 number of electron     351.9999979 magnetization 
 augmentation part      115.4249058 magnetization 

 Broyden mixing:
  rms(total) = 0.12720E+00    rms(broyden)= 0.12712E+00
  rms(prec ) = 0.17460E+00
  weight for this iteration     100.00

 eigenvalues of (default mixing * dielectric matrix)
  average eigenvalue GAMMA=   0.6363
  2.6121  1.3747  0.7041  0.7041  0.6494  0.4270  0.4270  0.3771  0.1156  0.2578
  0.1901  0.2123  0.2204

 Free energy of the ion-electron system (eV)
  ---------------------------------------------------
  alpha Z        PSCENC =      1045.46069007
  Ewald energy   TEWEN  =    -20028.81634413
  -Hartree energ DENC   =    -11357.75217319
  -exchange      EXHF   =         0.00000000
  -V(xc)+E(xc)   XCENC  =      1399.26044184
  PAW double counting   =     34104.86069686   -35270.07896241
  entropy T*S    EENTRO =        -0.00000000
  eigenvalues    EBANDS =     -1196.93496867
  atomic energy  EATOM  =     31013.67235384
  Solvation  Ediel_sol  =         0.00000000
  ---------------------------------------------------
  free energy    TOTEN  =      -290.32826580 eV

  energy without entropy =     -290.32826580  energy(sigma->0) =     -290.32826580


--------------------------------------------------------------------------------------------------------




--------------------------------------- Iteration      1(  19)  ---------------------------------------


    POTLOK:  cpu time    0.0458: real time    0.0475
    SETDIJ:  cpu time    0.0059: real time    0.0059
     EDDAV:  cpu time   30.9188: real time   30.9984
    CHARGE:  cpu time    0.9384: real time    0.9407
    MIXING:  cpu time    0.0029: real time    0.0029
    --------------------------------------------
      LOOP:  cpu time   31.9117: real time   31.9953

 eigenvalue-minimisations  : 21328
 total energy-change (2. order) : 0.5921678E-02  (-0.2217684E-02)
 number of electron     351.9999979 magnetization 
 augmentation part      115.4148444 magnetization 

 Broyden mixing:
  rms(total) = 0.79410E-01    rms(broyden)= 0.79363E-01
  rms(prec ) = 0.10458E+00
  weight for this iteration     100.00

 eigenvalues of (default mixing * dielectric matrix)
  average eigenvalue GAMMA=   0.6407
  2.5674  1.4903  0.7339  0.7339  0.7459  0.5039  0.4177  0.4177  0.3821  0.1156
  0.1900  0.2410  0.2234  0.2077

 Free energy of the ion-electron system (eV)
  ---------------------------------------------------
  alpha Z        PSCENC =      1045.46069007
  Ewald energy   TEWEN  =    -20028.81634413
  -Hartree energ DENC   =    -11357.24396831
  -exchange      EXHF   =         0.00000000
  -V(xc)+E(xc)   XCENC  =      1399.19445172
  PAW double counting   =     34122.38756659   -35287.38356686
  entropy T*S    EENTRO =        -0.00000000
  eigenvalues    EBANDS =     -1197.59352703
  atomic energy  EATOM  =     31013.67235384
  Solvation  Ediel_sol  =         0.00000000
  ---------------------------------------------------
  free energy    TOTEN  =      -290.32234412 eV

  energy without entropy =     -290.32234412  energy(sigma->0) =     -290.32234412


--------------------------------------------------------------------------------------------------------




--------------------------------------- Iteration      1(  20)  ---------------------------------------


    POTLOK:  cpu time    0.0456: real time    0.0457
    SETDIJ:  cpu time    0.0061: real time    0.0061
     EDDAV:  cpu time   31.6844: real time   31.7593
    CHARGE:  cpu time    0.9398: real time    0.9420
    MIXING:  cpu time    0.0028: real time    0.0028
    --------------------------------------------
      LOOP:  cpu time   32.6786: real time   32.7559

 eigenvalue-minimisations  : 22464
 total energy-change (2. order) : 0.8818176E-03  (-0.7910608E-03)
 number of electron     351.9999979 magnetization 
 augmentation part      115.4225795 magnetization 

 Broyden mixing:
  rms(total) = 0.60633E-01    rms(broyden)= 0.60612E-01
  rms(prec ) = 0.81768E-01
  weight for this iteration     100.00

 eigenvalues of (default mixing * dielectric matrix)
  average eigenvalue GAMMA=   0.6502
  2.5094  1.6966  0.7527  0.7527  0.8282  0.7041  0.4171  0.4171  0.4052  0.1156
  0.3042  0.2370  0.1901  0.2158  0.2077

 Free energy of the ion-electron system (eV)
  ---------------------------------------------------
  alpha Z        PSCENC =      1045.46069007
  Ewald energy   TEWEN  =    -20028.81634413
  -Hartree energ DENC   =    -11356.82614679
  -exchange      EXHF   =         0.00000000
  -V(xc)+E(xc)   XCENC  =      1399.15219799
  PAW double counting   =     34116.41271811   -35281.01035905
  entropy T*S    EENTRO =        -0.00000000
  eigenvalues    EBANDS =     -1198.36657233
  atomic energy  EATOM  =     31013.67235384
  Solvation  Ediel_sol  =         0.00000000
  ---------------------------------------------------
  free energy    TOTEN  =      -290.32146230 eV

  energy without entropy =     -290.32146230  energy(sigma->0) =     -290.32146230


--------------------------------------------------------------------------------------------------------




--------------------------------------- Iteration      1(  21)  ---------------------------------------


    POTLOK:  cpu time    0.0457: real time    0.0459
    SETDIJ:  cpu time    0.0060: real time    0.0060
     EDDAV:  cpu time   33.2904: real time   33.3692
    CHARGE:  cpu time    0.9908: real time    0.9931
    MIXING:  cpu time    0.0030: real time    0.0030
    --------------------------------------------
      LOOP:  cpu time   34.3359: real time   34.4172

 eigenvalue-minimisations  : 22064
 total energy-change (2. order) : 0.9593748E-03  (-0.4398148E-03)
 number of electron     351.9999979 magnetization 
 augmentation part      115.4243705 magnetization 

 Broyden mixing:
  rms(total) = 0.43423E-01    rms(broyden)= 0.43407E-01
  rms(prec ) = 0.57198E-01
  weight for this iteration     100.00

 eigenvalues of (default mixing * dielectric matrix)
  average eigenvalue GAMMA=   0.6615
  2.2856  2.0626  0.9557  0.9557  0.7081  0.7081  0.4222  0.4222  0.4588  0.3750
  0.1156  0.2713  0.1900  0.2315  0.2146  0.2063

 Free energy of the ion-electron system (eV)
  ---------------------------------------------------
  alpha Z        PSCENC =      1045.46069007
  Ewald energy   TEWEN  =    -20028.81634413
  -Hartree energ DENC   =    -11356.69902266
  -exchange      EXHF   =         0.00000000
  -V(xc)+E(xc)   XCENC  =      1399.13099532
  PAW double counting   =     34105.33149363   -35269.53573469
  entropy T*S    EENTRO =        -0.00000000
  eigenvalues    EBANDS =     -1198.86493430
  atomic energy  EATOM  =     31013.67235384
  Solvation  Ediel_sol  =         0.00000000
  ---------------------------------------------------
  free energy    TOTEN  =      -290.32050293 eV

  energy without entropy =     -290.32050293  energy(sigma->0) =     -290.32050293


--------------------------------------------------------------------------------------------------------




--------------------------------------- Iteration      1(  22)  ---------------------------------------


    POTLOK:  cpu time    0.0473: real time    0.0474
    SETDIJ:  cpu time    0.0060: real time    0.0060
     EDDAV:  cpu time   30.6926: real time   30.7652
    CHARGE:  cpu time    0.9435: real time    0.9458
    MIXING:  cpu time    0.0028: real time    0.0028
    --------------------------------------------
      LOOP:  cpu time   31.6923: real time   31.7672

 eigenvalue-minimisations  : 21088
 total energy-change (2. order) : 0.5193781E-03  (-0.1555245E-03)
 number of electron     351.9999979 magnetization 
 augmentation part      115.4198275 magnetization 

 Broyden mixing:
  rms(total) = 0.27339E-01    rms(broyden)= 0.27327E-01
  rms(prec ) = 0.36621E-01
  weight for this iteration     100.00

 eigenvalues of (default mixing * dielectric matrix)
  average eigenvalue GAMMA=   0.6693
  2.2453  2.2453  1.0959  1.0959  0.6927  0.6927  0.5044  0.4240  0.4240  0.4032
  0.1156  0.3426  0.2547  0.1900  0.2331  0.2119  0.2070

 Free energy of the ion-electron system (eV)
  ---------------------------------------------------
  alpha Z        PSCENC =      1045.46069007
  Ewald energy   TEWEN  =    -20028.81634413
  -Hartree energ DENC   =    -11356.81692923
  -exchange      EXHF   =         0.00000000
  -V(xc)+E(xc)   XCENC  =      1399.13123512
  PAW double counting   =     34095.65369281   -35259.59446884
  entropy T*S    EENTRO =        -0.00000000
  eigenvalues    EBANDS =     -1199.01021318
  atomic energy  EATOM  =     31013.67235384
  Solvation  Ediel_sol  =         0.00000000
  ---------------------------------------------------
  free energy    TOTEN  =      -290.31998355 eV

  energy without entropy =     -290.31998355  energy(sigma->0) =     -290.31998355


--------------------------------------------------------------------------------------------------------




--------------------------------------- Iteration      1(  23)  ---------------------------------------


    POTLOK:  cpu time    0.0459: real time    0.0460
    SETDIJ:  cpu time    0.0059: real time    0.0059
     EDDAV:  cpu time   32.7932: real time   32.8709
    CHARGE:  cpu time    0.9369: real time    0.9391
    MIXING:  cpu time    0.0031: real time    0.0031
    --------------------------------------------
      LOOP:  cpu time   33.7849: real time   33.8650

 eigenvalue-minimisations  : 23456
 total energy-change (2. order) : 0.1549620E-03  (-0.6369952E-04)
 number of electron     351.9999979 magnetization 
 augmentation part      115.4200686 magnetization 

 Broyden mixing:
  rms(total) = 0.19327E-01    rms(broyden)= 0.19321E-01
  rms(prec ) = 0.25767E-01
  weight for this iteration     100.00

 eigenvalues of (default mixing * dielectric matrix)
  average eigenvalue GAMMA=   0.6748
  2.3212  2.3212  1.1812  1.1812  0.6978  0.6978  0.5897  0.4219  0.4219  0.4106
  0.4106  0.1156  0.2877  0.2518  0.1900  0.2254  0.2153  0.2053

 Free energy of the ion-electron system (eV)
  ---------------------------------------------------
  alpha Z        PSCENC =      1045.46069007
  Ewald energy   TEWEN  =    -20028.81634413
  -Hartree energ DENC   =    -11357.02753326
  -exchange      EXHF   =         0.00000000
  -V(xc)+E(xc)   XCENC  =      1399.14033891
  PAW double counting   =     34093.29653922   -35257.13589004
  entropy T*S    EENTRO =        -0.00000000
  eigenvalues    EBANDS =     -1198.90998318
  atomic energy  EATOM  =     31013.67235384
  Solvation  Ediel_sol  =         0.00000000
  ---------------------------------------------------
  free energy    TOTEN  =      -290.31982859 eV

  energy without entropy =     -290.31982859  energy(sigma->0) =     -290.31982859


--------------------------------------------------------------------------------------------------------




--------------------------------------- Iteration      1(  24)  ---------------------------------------


    POTLOK:  cpu time    0.0456: real time    0.0457
    SETDIJ:  cpu time    0.0058: real time    0.0058
     EDDAV:  cpu time   33.0621: real time   33.1403
    CHARGE:  cpu time    0.9451: real time    0.9473
    MIXING:  cpu time    0.0031: real time    0.0031
    --------------------------------------------
      LOOP:  cpu time   34.0617: real time   34.1422

 eigenvalue-minimisations  : 23680
 total energy-change (2. order) : 0.6476853E-04  (-0.3131174E-04)
 number of electron     351.9999979 magnetization 
 augmentation part      115.4187964 magnetization 

 Broyden mixing:
  rms(total) = 0.14155E-01    rms(broyden)= 0.14151E-01
  rms(prec ) = 0.19088E-01
  weight for this iteration     100.00

 eigenvalues of (default mixing * dielectric matrix)
  average eigenvalue GAMMA=   0.6911
  2.3838  2.3838  1.5110  1.1202  0.7083  0.7083  0.7279  0.4183  0.4183  0.4872
  0.4610  0.1156  0.3490  0.2724  0.1900  0.2320  0.2283  0.2066  0.2092

 Free energy of the ion-electron system (eV)
  ---------------------------------------------------
  alpha Z        PSCENC =      1045.46069007
  Ewald energy   TEWEN  =    -20028.81634413
  -Hartree energ DENC   =    -11357.19666364
  -exchange      EXHF   =         0.00000000
  -V(xc)+E(xc)   XCENC  =      1399.14930569
  PAW double counting   =     34092.29331128   -35256.08292794
  entropy T*S    EENTRO =        -0.00000000
  eigenvalues    EBANDS =     -1198.79948897
  atomic energy  EATOM  =     31013.67235384
  Solvation  Ediel_sol  =         0.00000000
  ---------------------------------------------------
  free energy    TOTEN  =      -290.31976382 eV

  energy without entropy =     -290.31976382  energy(sigma->0) =     -290.31976382


--------------------------------------------------------------------------------------------------------




--------------------------------------- Iteration      1(  25)  ---------------------------------------


    POTLOK:  cpu time    0.0459: real time    0.0460
    SETDIJ:  cpu time    0.0058: real time    0.0058
     EDDAV:  cpu time   32.6237: real time   32.7009
    CHARGE:  cpu time    0.9378: real time    0.9400
    MIXING:  cpu time    0.0030: real time    0.0030
    --------------------------------------------
      LOOP:  cpu time   33.6163: real time   33.6958

 eigenvalue-minimisations  : 23312
 total energy-change (2. order) : 0.3352285E-04  (-0.1290479E-04)
 number of electron     351.9999979 magnetization 
 augmentation part      115.4172934 magnetization 

 Broyden mixing:
  rms(total) = 0.99960E-02    rms(broyden)= 0.99939E-02
  rms(prec ) = 0.13930E-01
  weight for this iteration     100.00

 eigenvalues of (default mixing * dielectric matrix)
  average eigenvalue GAMMA=   0.7143
  2.6657  2.3605  1.8217  1.0681  0.8966  0.7127  0.7127  0.5926  0.4213  0.4213
  0.4601  0.1156  0.3788  0.3334  0.2652  0.1900  0.2345  0.2051  0.2166  0.2138

 Free energy of the ion-electron system (eV)
  ---------------------------------------------------
  alpha Z        PSCENC =      1045.46069007
  Ewald energy   TEWEN  =    -20028.81634413
[...]
 total augmentation occupancy for first ion, spin component:           1
  7.430   0.015  -0.325   0.137   0.125  -4.470  -0.049   0.493  -0.167   0.064  -0.626   0.137  -0.257   0.010  -0.001   0.051
  0.015   7.910   0.487   0.150   0.126  -0.049  -4.954  -0.436  -0.183   0.067  -0.477   0.109   0.109  -0.169   0.023   0.016
 -0.325   0.487   4.085   0.004   0.414   0.453  -0.417  -4.022  -0.128  -0.646  -0.110   0.004   0.222  -0.684   0.067  -0.046
  0.137   0.150   0.004   7.043   0.108  -0.167  -0.182  -0.140  -4.052  -0.156  -0.362   0.069   0.015  -0.124   0.040  -0.003
  0.125   0.126   0.414   0.108   3.799   0.062   0.034  -0.645  -0.135  -3.718   0.707  -0.183   0.513  -0.014  -0.117  -0.093
 -4.470  -0.049   0.453  -0.167   0.062   3.508   0.077  -0.594   0.192  -0.208   0.616  -0.144   0.249  -0.013  -0.002  -0.047
 -0.049  -4.954  -0.417  -0.182   0.034   0.077   3.989   0.382   0.211  -0.191   0.470  -0.113  -0.103   0.151  -0.022  -0.002
  0.493  -0.436  -4.022  -0.140  -0.645  -0.594   0.382   5.222   0.233   0.869   0.096  -0.004  -0.243   0.784  -0.076   0.045
 -0.167  -0.183  -0.128  -4.052  -0.135   0.192   0.211   0.233   3.065   0.178   0.353  -0.074  -0.016   0.121  -0.035   0.003
  0.064   0.067  -0.646  -0.156  -3.718  -0.208  -0.191   0.869   0.178   4.903  -0.811   0.212  -0.537   0.019   0.109   0.093
 -0.626  -0.477  -0.110  -0.362   0.707   0.616   0.470   0.096   0.353  -0.811   2.730  -0.559   0.193   0.242   0.105  -0.043
  0.137   0.109   0.004   0.069  -0.183  -0.144  -0.113  -0.004  -0.074   0.212  -0.559   0.165  -0.057  -0.062  -0.031   0.015
 -0.257   0.109   0.222   0.015   0.513   0.249  -0.103  -0.243  -0.016  -0.537   0.193  -0.057   0.613   0.043   0.053  -0.102
  0.010  -0.169  -0.684  -0.124  -0.014  -0.013   0.151   0.784   0.121   0.019   0.242  -0.062   0.043   0.494   0.032  -0.009
 -0.001   0.023   0.067   0.040  -0.117  -0.002  -0.022  -0.076  -0.035   0.109   0.105  -0.031   0.053   0.032   0.411  -0.011
  0.051   0.016  -0.046  -0.003  -0.093  -0.047  -0.002   0.045   0.003   0.093  -0.043   0.015  -0.102  -0.009  -0.011   0.024
 -0.003   0.057   0.145   0.033  -0.000   0.004  -0.040  -0.158  -0.027  -0.001  -0.052   0.017  -0.009  -0.083  -0.006   0.003
  0.039  -0.003  -0.018   0.013   0.014  -0.019   0.003   0.017  -0.003  -0.012  -0.026   0.009  -0.011  -0.006  -0.066   0.003


------------------------ aborting loop because EDIFF is reached ----------------------------------------


    CHARGE:  cpu time    0.9572: real time    0.9596
    FORLOC:  cpu time    0.0196: real time    0.0196
    FORNL :  cpu time    7.4382: real time    7.4558
    STRESS:  cpu time   22.3378: real time   22.3905
    FORCOR:  cpu time    0.0629: real time    0.0632
    FORHAR:  cpu time    0.0279: real time    0.0280
    MIXING:  cpu time    0.0033: real time    0.0033
    OFIELD:  cpu time    0.0000: real time    0.0001

  FORCE on cell =-STRESS in cart. coord.  units (eV):
  Direction    XX          YY          ZZ          XY          YZ          ZX
  --------------------------------------------------------------------------------------
  Alpha Z  1045.46069  1045.46069  1045.46069
  Ewald   -6964.73012 -6600.56287 -6463.64131   261.60227   112.80644  -278.87128
  Hartree  3654.83077  3826.81107  3876.12135   184.32701    74.90710  -190.49064
  E(xc)   -1788.21148 -1788.49936 -1788.61201     0.09189     0.03497    -0.04771
  Local   -3560.89280 -4080.20647 -4262.01838  -438.90406  -183.46536   459.10886
  n-local  -792.49874  -783.57534  -780.74863     0.55503     0.47322    -1.15434
  augment  3005.55952  2996.69995  2994.23545    -2.69943    -1.19850     4.29056
  Kinetic  5365.34306  5359.83197  5359.53151    -7.14524    -5.25507     7.90843
  Fock        0.00000     0.00000     0.00000     0.00000     0.00000     0.00000
  -------------------------------------------------------------------------------------
  Total      -35.1391073    -24.0403601    -19.6713265     -2.1725402     -1.6972015      0.7438874
  in kB     -107.3878600    -73.4692207    -60.1171122     -6.6394529     -5.1867806      2.2733781
  external PRESSURE =     -80.3247310 kB  Pullay stress =       0.0000000 kB


 VOLUME and BASIS-vectors are now :
 -----------------------------------------------------------------------------
  energy-cutoff  :      500.00
  volume of cell :      524.26
      direct lattice vectors                 reciprocal lattice vectors
     8.063347430  0.000000000  0.000000000     0.124017973  0.000000000  0.000000000
     0.000000000  8.063347430  0.000000000     0.000000000  0.124017973  0.000000000
     0.000000000  0.000000000  8.063347430     0.000000000  0.000000000  0.124017973

  length of vectors
     8.063347430  8.063347430  8.063347430     0.124017973  0.124017973  0.124017973


 FORCES acting on ions
    electron-ion (+dipol)            ewald-force                    non-local-force                 convergence-correction
 -----------------------------------------------------------------------------------------------
   0.121E+03 0.941E+02 0.117E+03   -.123E+03 -.995E+02 -.121E+03   0.118E+01 0.134E+01 -.444E+00   -.430E-01 0.223E-02 -.321E-01
   -.766E+02 -.126E+03 0.106E+03   0.809E+02 0.128E+03 -.108E+03   -.591E-01 0.417E+00 0.188E+01   0.194E-02 0.484E-01 -.337E-01
   0.519E+02 -.521E+02 0.100E+03   -.525E+02 0.531E+02 -.102E+03   -.694E+00 -.986E+00 0.530E+00   0.186E-01 0.131E-02 -.143E-01
   0.907E+02 -.163E+03 -.287E+02   -.917E+02 0.166E+03 0.318E+02   -.112E+00 -.107E+00 -.214E+01   -.343E-01 0.525E-01 -.516E-02
   0.696E+02 0.866E+02 0.289E+01   -.701E+02 -.886E+02 -.326E+01   0.130E+01 -.442E+00 0.131E+01   -.186E-02 -.375E-02 0.190E-01
   0.697E+02 0.619E+02 -.563E+02   -.700E+02 -.652E+02 0.572E+02   0.335E+00 -.314E+00 -.573E+00   0.176E-01 -.709E-01 0.504E-01
   0.123E+02 0.103E+03 -.113E+03   -.125E+02 -.105E+03 0.115E+03   -.109E+01 0.881E+00 0.921E+00   0.317E-02 0.142E-01 -.134E-02
   0.129E+03 -.374E+02 -.152E+03   -.130E+03 0.390E+02 0.156E+03   -.113E+00 -.923E+00 -.544E+00   -.123E-01 -.344E-01 0.162E-01
   0.152E+02 -.620E+01 -.874E+01   -.151E+02 0.465E+01 0.838E+01   0.489E+00 -.326E+00 0.582E+00   0.670E-01 -.180E-01 0.424E-01
   -.175E+03 -.135E+03 0.310E+02   0.178E+03 0.137E+03 -.333E+02   -.788E+00 -.143E+00 0.141E+01   0.202E-02 0.231E-02 0.251E-01
   -.100E+03 0.210E+02 -.104E+03   0.102E+03 -.232E+02 0.106E+03   -.146E+01 0.114E+01 -.811E+00   -.113E-01 0.237E-02 -.413E-02
   0.780E+02 -.114E+03 -.166E+03   -.826E+02 0.116E+03 0.170E+03   0.527E+00 -.790E+00 -.162E+01   0.253E-01 0.211E-01 0.158E-01
   -.450E+02 0.131E+02 0.116E+02   0.442E+02 -.115E+02 -.108E+02   0.130E+01 0.142E+01 -.403E+00   0.388E-01 0.216E-01 -.523E-02
   -.912E+02 0.822E+01 0.119E+03   0.926E+02 -.633E+01 -.120E+03   0.602E+00 -.104E+00 0.122E+01   -.154E-01 -.461E-01 0.176E-01
   -.559E+02 0.452E+02 0.254E+02   0.563E+02 -.448E+02 -.253E+02   0.347E+00 0.948E+00 -.368E-01   -.182E-01 0.367E-01 -.342E-01
   -.103E+03 0.990E+02 0.122E+03   0.107E+03 -.102E+03 -.127E+03   -.665E+00 0.912E+00 0.956E+00   0.758E-01 -.620E-01 -.127E-01
   -.213E+03 0.232E+03 0.214E+03   0.227E+03 -.249E+03 -.228E+03   -.148E+02 0.146E+02 0.140E+02   -.143E-01 0.123E-01 -.844E-02
   -.186E+03 -.252E+03 -.164E+03   0.201E+03 0.270E+03 0.176E+03   -.162E+02 -.184E+02 -.133E+02   -.698E-02 0.841E-01 -.732E-02
   0.235E+03 -.149E+03 -.129E+03   -.251E+03 0.160E+03 0.138E+03   0.169E+02 -.135E+02 -.115E+02   0.166E-01 0.249E-02 -.161E-01
   -.153E+03 -.135E+03 0.236E+03   0.166E+03 0.146E+03 -.254E+03   -.136E+02 -.120E+02 0.187E+02   -.738E-02 -.935E-03 -.775E-03
   0.270E+03 0.227E+03 0.260E+03   -.290E+03 -.244E+03 -.277E+03   0.180E+02 0.171E+02 0.168E+02   0.341E-01 -.857E-01 -.131E-01
   -.145E+03 0.210E+03 -.130E+03   0.155E+03 -.225E+03 0.141E+03   -.114E+02 0.155E+02 -.119E+02   -.244E-01 -.358E-01 -.197E-01
   0.169E+03 0.213E+03 -.156E+03   -.184E+03 -.226E+03 0.170E+03   0.155E+02 0.132E+02 -.145E+02   0.836E-02 0.200E-01 -.166E-01
   0.263E+03 -.272E+03 0.220E+03   -.283E+03 0.291E+03 -.234E+03   0.181E+02 -.190E+02 0.155E+02   -.142E-01 0.428E-01 -.102E-01
   -.266E+03 0.226E+03 0.158E+03   0.283E+03 -.244E+03 -.172E+03   -.154E+02 0.181E+02 0.149E+02   0.807E-03 -.246E-01 0.166E-01
   -.170E+03 -.177E+03 -.278E+03   0.184E+03 0.191E+03 0.297E+03   -.154E+02 -.141E+02 -.178E+02   0.475E-03 -.328E-01 0.210E-01
   0.239E+03 -.256E+03 -.212E+03   -.256E+03 0.277E+03 0.228E+03   0.175E+02 -.178E+02 -.162E+02   0.415E-02 0.474E-02 0.709E-01
   -.140E+03 -.182E+03 0.123E+03   0.153E+03 0.196E+03 -.132E+03   -.140E+02 -.158E+02 0.103E+02   -.229E-01 -.910E-02 -.912E-02
   0.200E+03 0.127E+03 0.148E+03   -.213E+03 -.139E+03 -.162E+03   0.147E+02 0.136E+02 0.152E+02   -.209E-02 0.275E-01 0.343E-02
   -.132E+03 0.114E+03 -.227E+03   0.143E+03 -.123E+03 0.245E+03   -.129E+02 0.106E+02 -.180E+02   -.204E-02 0.234E-01 0.409E-02
   0.174E+03 0.220E+03 -.277E+03   -.188E+03 -.237E+03 0.295E+03   0.150E+02 0.163E+02 -.158E+02   0.241E-01 -.115E-01 0.107E-01
   0.242E+03 -.187E+03 0.203E+03   -.257E+03 0.203E+03 -.222E+03   0.145E+02 -.163E+02 0.174E+02   -.303E-01 -.251E-01 0.206E-01
   -.154E+03 0.244E+03 0.206E+03   0.166E+03 -.258E+03 -.225E+03   -.133E+02 0.140E+02 0.177E+02   0.891E-03 -.185E-01 0.230E-01
   -.290E+03 -.225E+03 -.250E+03   0.310E+03 0.240E+03 0.266E+03   -.175E+02 -.165E+02 -.152E+02   0.849E-02 0.767E-03 0.240E-01
   0.149E+03 -.149E+03 -.217E+03   -.163E+03 0.161E+03 0.233E+03   0.149E+02 -.130E+02 -.170E+02   0.122E-02 0.201E-01 0.807E-02
   -.222E+03 -.169E+03 0.129E+03   0.240E+03 0.183E+03 -.140E+03   -.181E+02 -.153E+02 0.117E+02   -.358E-02 0.122E-01 0.121E-01
   0.111E+03 0.211E+03 0.156E+03   -.121E+03 -.225E+03 -.170E+03   0.120E+02 0.153E+02 0.149E+02   -.343E-03 -.190E-02 0.971E-02
   -.243E+03 0.219E+03 -.275E+03   0.260E+03 -.233E+03 0.297E+03   -.164E+02 0.152E+02 -.186E+02   0.380E-01 -.249E-01 -.777E-02
   0.228E+03 0.215E+03 -.236E+03   -.242E+03 -.229E+03 0.250E+03   0.146E+02 0.157E+02 -.162E+02   0.380E-02 0.439E-02 0.297E-02
   0.206E+03 -.270E+03 0.211E+03   -.223E+03 0.289E+03 -.228E+03   0.154E+02 -.173E+02 0.152E+02   0.237E-03 0.131E-01 0.105E-01
   -.178E+03 0.226E+03 0.214E+03   0.191E+03 -.245E+03 -.229E+03   -.140E+02 0.191E+02 0.157E+02   0.173E-01 -.249E-03 -.674E-01
   -.237E+03 -.139E+03 -.173E+03   0.252E+03 0.151E+03 0.186E+03   -.153E+02 -.133E+02 -.134E+02   -.205E-01 -.151E-01 -.112E-01
   0.135E+03 -.211E+03 -.132E+03   -.147E+03 0.226E+03 0.145E+03   0.130E+02 -.144E+02 -.142E+02   -.214E-01 -.166E-01 -.141E-01
   -.218E+03 -.224E+03 0.258E+03   0.236E+03 0.239E+03 -.276E+03   -.191E+02 -.149E+02 0.174E+02   0.793E-01 -.277E-01 -.276E-02
   0.123E+03 0.122E+03 0.236E+03   -.133E+03 -.135E+03 -.253E+03   0.124E+02 0.142E+02 0.171E+02   0.295E-02 0.959E-02 -.192E-01
   -.182E+03 0.191E+03 -.153E+03   0.194E+03 -.208E+03 0.166E+03   -.136E+02 0.170E+02 -.140E+02   0.147E-01 0.308E-01 -.599E-02
   0.194E+03 0.235E+03 -.202E+03   -.206E+03 -.255E+03 0.221E+03   0.135E+02 0.189E+02 -.185E+02   -.696E-01 0.105E-01 0.144E-01
   0.200E+03 -.143E+03 0.230E+03   -.217E+03 0.154E+03 -.244E+03   0.168E+02 -.115E+02 0.140E+02   0.290E-01 -.289E-01 0.493E-02
 -----------------------------------------------------------------------------------------------
   -.293E+01 -.824E+01 -.278E+01   -.853E-13 0.711E-12 -.398E-12   0.277E+01 0.830E+01 0.273E+01   0.158E+00 -.732E-01 0.708E-01
 
 
 POSITION                                       TOTAL-FORCE (eV/Angst)
 -----------------------------------------------------------------------------------
      0.93830      4.99566      1.05810        -0.984540     -4.084153     -4.140385
      2.85371      6.79526      0.88043         4.330175      2.766448     -0.281885
      3.06153      4.92193      2.94687        -1.264702      0.013766     -0.909126
      1.01666      6.82554      2.93919        -1.110225      3.394418      0.912845
      0.91233      1.01966      4.85958         0.796213     -2.429108      0.960120
      2.97166      3.01364      4.90965        -0.005569     -3.700922      0.357923
      2.99955      0.91075      6.81192        -1.300106     -0.517400      2.616281
      0.99653      2.93723      6.79866        -1.100148      0.714239      4.016484
      4.88770      4.98878      4.87433         0.598139     -1.888769      0.264866
      6.88486      6.85988      4.92826         1.964994      2.249983     -0.812994
      6.90430      4.95215      6.91457         0.012556     -1.010424      0.371543
      4.96619      6.90892      6.89508        -4.042518      1.479655      1.884129
      4.88583      0.79891      0.95963         0.598953      3.025707      0.375519
      6.83562      2.90781      0.87909         2.044059      1.736270      0.810210
      6.92839      0.87150      2.97512         0.650053      1.410655      0.100943
      4.90256      2.97593      3.00222         3.701395     -1.688000     -4.054197
      6.89336      1.17614      1.15735        -1.184100     -2.346765     -0.632598
      2.92623      6.77578      2.84493        -0.869355     -0.578971     -1.002018
      3.03169      0.89088      0.93962         0.657478     -2.298350     -1.979888
      0.87168      0.87279      3.02219        -1.492336     -1.568088      0.480775
      3.15618      3.06162      3.09419        -1.961749      0.463297     -0.783415
      0.86093      3.08830      0.76369        -1.285496      0.476268     -1.044740
      5.03515      1.05681      2.91800         0.526220     -0.111543     -0.825136
      1.14038      6.75604      1.05040        -1.929112      0.867887      0.679996
      6.71625      5.06087      4.98561         0.761192     -0.455598      0.807670
      2.94161      2.77640      6.73318        -1.073838      0.339978      0.513753
      2.99985      4.71864      4.82961         0.794435      3.128519     -0.774011
      0.82421      4.87564      6.99575        -1.372442     -0.955230      1.070589
      2.94669      6.94195      6.99041         1.511856      1.576680      1.158958
      0.94670      6.96183      4.78602        -1.957992      1.453008     -0.415921
      4.93383      5.10029      6.63739         0.853940     -0.807743      2.266034
      1.10709      2.83620      5.04404        -0.399095      0.412465     -1.158663
      2.87543      1.15546      5.02759        -0.675933     -0.737882     -0.975765
      6.66765      6.86580      6.73412         3.258614     -0.774445      0.832135
      7.04660      0.85373      4.84982         1.015129     -1.616150     -0.868900
      4.80224      0.84577      7.04506         0.275053     -1.581447      0.959735
      6.84170      3.03725      6.99258         1.972809      0.932932      0.854119
      4.82515      3.02271      4.68740         0.078748      1.329108      3.543049
      1.11043      1.01965      6.80725         0.311995      1.019844     -1.278848
      5.04628      6.76812      5.11581        -0.690847      1.489787     -1.862569
      2.90719      4.96209      0.98277        -1.038976      0.568747      1.311515
      6.85284      2.97396      2.79252        -0.843588     -1.737520     -0.288636
      7.00846      4.74557      0.82978         0.733224      0.718941     -1.385252
      4.98023      4.82933      3.06289        -1.684346      0.182124     -0.392728
      7.00029      6.91677      3.08102         1.484554      1.617115      0.163074
      4.91609      7.08080      0.84115        -1.617507     -0.683091     -1.530217
      1.03919      5.06625      2.84049         1.294186     -1.101844      0.497968
      5.01897      2.79285      1.14164        -0.341449     -0.694399     -0.412340
 -----------------------------------------------------------------------------------
    total drift:                                0.002414     -0.004361      0.017528


--------------------------------------------------------------------------------------------------------



  FREE ENERGIE OF THE ION-ELECTRON SYSTEM (eV)
  ---------------------------------------------------
  free  energy   TOTEN  =      -290.3196894065 eV

  energy  without entropy=     -290.3196894063  energy(sigma->0) =     -290.31968941
 


--------------------------------------------------------------------------------------------------------


    POTLOK:  cpu time    0.0519: real time    0.0520


--------------------------------------------------------------------------------------------------------


     LOOP+:  cpu time  879.8897: real time  882.1190
    4ORBIT:  cpu time    0.0000: real time    0.0000

volume of typ            1:    19.4 %

volume of typ            2:     9.9 %
 
total charge     
 
# of ion       s       p       d       tot
------------------------------------------
    1        0.284   0.368   7.813   8.464
    2        0.282   0.355   7.812   8.450
    3        0.280   0.361   7.822   8.462
    4        0.283   0.363   7.810   8.456
    5        0.274   0.344   7.794   8.412
    6        0.328   0.474   7.845   8.647
    7        0.285   0.366   7.798   8.449
    8        0.268   0.330   7.796   8.394
    9        0.316   0.448   7.840   8.605
   10        0.289   0.380   7.814   8.482
   11        0.260   0.315   7.792   8.367
   12        0.303   0.410   7.828   8.541
   13        0.275   0.343   7.792   8.410
   14        0.295   0.397   7.792   8.483
   15        0.265   0.332   7.789   8.386
   16        0.326   0.472   7.838   8.636
   17        1.281   2.729   0.008   4.019
   18        1.290   2.689   0.007   3.986
   19        1.300   2.629   0.004   3.934
   20        1.292   2.663   0.005   3.960
   21        1.284   2.751   0.011   4.046
   22        1.291   2.652   0.004   3.948
   23        1.289   2.681   0.006   3.976
   24        1.282   2.763   0.012   4.057
   25        1.289   2.716   0.009   4.013
   26        1.291   2.695   0.008   3.994
   27        1.285   2.745   0.010   4.040
   28        1.293   2.645   0.004   3.943
   29        1.292   2.654   0.005   3.950
   30        1.296   2.645   0.005   3.945
   31        1.287   2.726   0.009   4.023
   32        1.282   2.743   0.010   4.035
   33        1.286   2.714   0.008   4.009
   34        1.281   2.756   0.011   4.048
   35        1.289   2.675   0.006   3.970
   36        1.288   2.687   0.006   3.981
   37        1.295   2.643   0.005   3.943
   38        1.289   2.742   0.011   4.041
   39        1.289   2.687   0.006   3.982
   40        1.286   2.742   0.011   4.039
   41        1.293   2.676   0.007   3.976
   42        1.297   2.652   0.005   3.953
   43        1.288   2.678   0.006   3.972
   44        1.290   2.713   0.009   4.012
   45        1.292   2.663   0.005   3.960
   46        1.287   2.686   0.006   3.980
   47        1.289   2.718   0.010   4.017
   48        1.284   2.710   0.007   4.001
--------------------------------------------------
tot          45.86   92.33  125.21  263.40
 

 total amount of memory used by VASP MPI-rank0   186094. kBytes
=======================================================================

   base      :      30000. kBytes
   nonlr-proj:      23122. kBytes
   fftplans  :       4751. kBytes
   grid      :      15225. kBytes
   one-center:        746. kBytes
   wavefun   :     112250. kBytes
 
  
  
 General timing and accounting informations for this job:
 ========================================================
  
                  Total CPU time used (sec):      902.814
                            User time (sec):      900.461
                          System time (sec):        2.353
                         Elapsed time (sec):      908.271
  
                   Maximum memory used (kb):      242968.
                   Average memory used (kb):           0.
  
                          Minor page faults:        36907
                          Major page faults:           53
                 Voluntary context switches:         1224
