 vasp.5.4.4.18Apr17-6-g9f103f2a35 (build May 12 2020 04:58:55) complex          
  
 MD_VERSION_INFO: Compiled 2020-05-12T11:58:55-UTC in devlin.sd.materialsdesign.
 com:/home/medea2/data/build/wwolf/vasp-gpu5.4.4/13047/x86_64/src/src/build/std 
 from svn 13047
 
 This VASP executable licensed from Materials Design, Inc.
 
 executed on                        Lin64 date 2023.04.26  23:24:14
 running on   16 total cores
 distrk:  each k-point on   16 cores,    1 groups
 distr:  one band on NCORES_PER_BAND=   1 cores,   16 groups


--------------------------------------------------------------------------------------------------------


 INCAR:
 POTCAR:    PAW_PBE Ni 02Aug2007                  
 POTCAR:    PAW_PBE O 08Apr2002                   

 ----------------------------------------------------------------------------- 
|                                                                             |
|           W    W    AA    RRRRR   N    N  II  N    N   GGGG   !!!           |
|           W    W   A  A   R    R  NN   N  II  NN   N  G    G  !!!           |
|           W    W  A    A  R    R  N N  N  II  N N  N  G       !!!           |
|           W WW W  AAAAAA  RRRRR   N  N N  II  N  N N  G  GGG   !            |
|           WW  WW  A    A  R   R   N   NN  II  N   NN  G    G                |
|           W    W  A    A  R    R  N    N  II  N    N   GGGG   !!!           |
|                                                                             |
|      For optimal performance we recommend to set                            |
|        NCORE= 4 - approx SQRT( number of cores)                             |
|      NCORE specifies how many cores store one orbital (NPAR=cpu/NCORE).     |
|      This setting can  greatly improve the performance of VASP for DFT.     |
|      The default,   NCORE=1            might be grossly inefficient         |
|      on modern multi-core architectures or massively parallel machines.     |
|      Do your own testing !!!!                                               |
|      Unfortunately you need to use the default for GW and RPA calculations. |
|      (for HF NCORE is supported but not extensively tested yet)             |
|                                                                             |
 ----------------------------------------------------------------------------- 

 POTCAR:    PAW_PBE Ni 02Aug2007                  
  local pseudopotential read in
  partial core-charges read in
  partial kinetic energy density read in
  atomic valenz-charges read in
  non local Contribution for L=           2  read in
    real space projection operators read in
  non local Contribution for L=           2  read in
    real space projection operators read in
  non local Contribution for L=           0  read in
    real space projection operators read in
  non local Contribution for L=           0  read in
    real space projection operators read in
  non local Contribution for L=           1  read in
    real space projection operators read in
  non local Contribution for L=           1  read in
    real space projection operators read in
    PAW grid and wavefunctions read in
 
   number of l-projection  operators is LMAX  =           6
   number of lm-projection operators is LMMAX =          18
 
 POTCAR:    PAW_PBE O 08Apr2002                   
  local pseudopotential read in
  partial core-charges read in
  partial kinetic energy density read in
  kinetic energy density of atom read in
  atomic valenz-charges read in
  non local Contribution for L=           0  read in
    real space projection operators read in
  non local Contribution for L=           0  read in
    real space projection operators read in
  non local Contribution for L=           1  read in
    real space projection operators read in
  non local Contribution for L=           1  read in
    real space projection operators read in
    PAW grid and wavefunctions read in
 
   number of l-projection  operators is LMAX  =           4
   number of lm-projection operators is LMMAX =           8
 
 Optimization of the real space projectors (new method)

 maximal supplied QI-value         = 16.25
 optimisation between [QCUT,QGAM] = [ 11.38, 22.75] = [ 36.24,144.96] Ry 
 Optimized for a Real-space Cutoff    1.47 Angstroem

   l    n(q)    QCUT    max X(q) W(low)/X(q) W(high)/X(q)  e(spline) 
   2      9    11.376    60.317    0.17E-03    0.16E-04    0.16E-06
   2      9    11.376    55.921    0.17E-03    0.16E-04    0.17E-06
   0     10    11.376    51.690    0.45E-04    0.60E-04    0.21E-06
   0     10    11.376    30.015    0.37E-04    0.55E-04    0.19E-06
   1     10    11.376    18.849    0.83E-04    0.11E-03    0.92E-07
   1     10    11.376    14.624    0.69E-04    0.92E-04    0.82E-07
 Optimization of the real space projectors (new method)

 maximal supplied QI-value         = 24.76
 optimisation between [QCUT,QGAM] = [ 11.39, 22.77] = [ 36.31,145.25] Ry 
 Optimized for a Real-space Cutoff    1.10 Angstroem

   l    n(q)    QCUT    max X(q) W(low)/X(q) W(high)/X(q)  e(spline) 
   0      7    11.387    20.381    0.22E-03    0.48E-03    0.18E-06
   0      7    11.387    15.268    0.22E-03    0.52E-03    0.19E-06
   1      7    11.387     5.964    0.22E-03    0.73E-03    0.24E-06
   1      7    11.387     5.382    0.19E-03    0.60E-03    0.21E-06

 ----------------------------------------------------------------------------- 
|                                                                             |
|  ADVICE TO THIS USER RUNNING 'VASP/VAMP'   (HEAR YOUR MASTER'S VOICE ...):  |
|                                                                             |
|      You enforced a specific xc-type in the INCAR file,                     |
|      a different type was found on the POTCAR file                          |
|          I HOPE YOU KNOW, WHAT YOU ARE  DOING                               |
|                                                                             |
 ----------------------------------------------------------------------------- 

  PAW_PBE Ni 02Aug2007                  :
 energy of atom  1       EATOM=-1077.6739
 kinetic energy error for atom=    0.0030 (will be added to EATOM!!)
  PAW_PBE O 08Apr2002                   :
 energy of atom  2       EATOM= -432.3788
 kinetic energy error for atom=    0.0224 (will be added to EATOM!!)
 
 
 POSCAR: NiO2_Fd-3m_scale_1_000_disp_0_12_round_2
  positions in direct lattice
  No initial velocities read in
 exchange correlation table for  LEXCH =       14
   RHO(1)=    0.500       N(1)  =     2000
   RHO(2)=  100.500       N(2)  =     4000
 


--------------------------------------------------------------------------------------------------------


 ion  position               nearest neighbor table
   1  0.096  0.619  0.113-  22 1.66  28 1.71  43 1.75  47 2.06  24 2.07  41 2.12  14 2.49  11 2.49
                             8 2.66   2 2.79   4 2.80   3 3.05
   2  0.361  0.853  0.137-  24 1.65  29 1.75  18 1.79  41 1.81  46 2.02  19 2.25   3 2.44   4 2.48
                             1 2.79   7 3.00  12 3.02
   3  0.393  0.643  0.363-  41 1.60  18 1.61  44 1.87  47 1.98  27 2.00  21 2.07   2 2.44   9 2.61
                             4 2.73   6 3.03  16 3.04   1 3.05
   4  0.136  0.876  0.357-  24 1.70  45 1.79  47 1.81  18 1.89  20 1.92  30 2.02   2 2.48  10 2.72
                             3 2.73   1 2.80  15 2.88   5 2.91
   5  0.115  0.122  0.632-  35 1.71  30 1.78  33 1.87  32 1.88  39 1.88  20 1.93  10 2.62   8 2.78
                            15 2.79   6 2.81   7 2.90   4 2.91
   6  0.380  0.362  0.626-  33 1.71  32 1.79  38 1.82  26 1.89  27 1.96  21 2.08  16 2.64   7 2.71
                             5 2.81   9 2.85   8 2.85   3 3.03
   7  0.375  0.145  0.893-  26 1.72  33 1.92  39 1.93  19 1.94  36 2.05  29 2.07   6 2.71   8 2.71
                            13 2.78   5 2.90   2 3.00  12 3.05
   8  0.120  0.376  0.878-  26 1.63  32 1.69  37 1.75  39 1.96  28 2.04  22 2.17   1 2.66  11 2.71
                             7 2.71   5 2.78  14 2.84   6 2.85
   9  0.619  0.633  0.604-  44 1.57  27 1.75  25 1.78  38 1.92  40 2.01  31 2.17   3 2.61  12 2.70
                             6 2.85  10 2.88  16 2.93  11 3.00
  10  0.890  0.879  0.601-  30 1.45  35 1.73  45 1.96  25 2.06  40 2.11  34 2.19  15 2.56   5 2.62
                             4 2.72   9 2.88  12 2.91
  11  0.870  0.613  0.891-  43 1.63  31 1.84  37 1.84  28 1.90  25 2.01  34 2.18   1 2.49  14 2.61
                            12 2.69   8 2.71   9 3.00
  12  0.632  0.856  0.865-  40 1.52  31 1.68  34 1.83  36 1.89  29 1.92  46 1.99  11 2.69   9 2.70
                            10 2.91   2 3.02   7 3.05
  13  0.632  0.144  0.137-  17 1.68  48 1.83  46 1.93  23 2.00  36 2.04  19 2.19  16 2.47  15 2.66
                            14 2.75   7 2.78
  14  0.875  0.395  0.142-  22 1.70  43 1.81  37 1.91  42 1.99  48 2.04  17 2.06   1 2.49  11 2.61
                            13 2.75   8 2.84  16 2.87  15 2.87
  15  0.864  0.119  0.382-  35 1.65  23 1.73  45 1.80  42 1.83  20 1.90  17 2.06  16 2.55  10 2.56
                            13 2.66   5 2.79  14 2.87   4 2.88
  16  0.616  0.329  0.390-  23 1.44  21 1.57  38 1.80  42 1.81  48 1.96  44 2.34  13 2.47  15 2.55
                             6 2.64  14 2.87   9 2.93   3 3.04
  17  0.844  0.136  0.121-  13 1.68  14 2.06  15 2.06
  18  0.374  0.846  0.364-   3 1.61   2 1.79   4 1.89
  19  0.353  0.139  0.139-   7 1.94  13 2.19   2 2.25
  20  0.105  0.116  0.387-  15 1.90   4 1.92   5 1.93
  21  0.424  0.381  0.367-  16 1.57   3 2.07   6 2.08
  22  0.090  0.411  0.150-   1 1.66  14 1.70   8 2.17
  23  0.646  0.149  0.390-  16 1.44  15 1.73  13 2.00
  24  0.153  0.875  0.142-   2 1.65   4 1.70   1 2.07
  25  0.843  0.624  0.638-   9 1.78  11 2.01  10 2.06
  26  0.326  0.355  0.860-   8 1.63   7 1.72   6 1.89
  27  0.399  0.610  0.615-   9 1.75   6 1.96   3 2.00
  28  0.110  0.634  0.896-   1 1.71  11 1.90   8 2.04
  29  0.396  0.884  0.920-   2 1.75  12 1.92   7 2.07
  30  0.073  0.901  0.605-  10 1.45   5 1.78   4 2.02
  31  0.638  0.643  0.879-  12 1.68  11 1.84   9 2.17
  32  0.156  0.354  0.668-   8 1.69   6 1.79   5 1.88
  33  0.350  0.148  0.650-   6 1.71   5 1.87   7 1.92
  34  0.861  0.890  0.877-  12 1.83  11 2.18  10 2.19
  35  0.904  0.098  0.587-  15 1.65   5 1.71  10 1.73
  36  0.631  0.096  0.882-  12 1.89  13 2.04   7 2.05
  37  0.898  0.380  0.900-   8 1.75  11 1.84  14 1.91
  38  0.609  0.389  0.611-  16 1.80   6 1.82   9 1.92
  39  0.132  0.127  0.870-   5 1.88   7 1.93   8 1.96
  40  0.631  0.880  0.673-  12 1.52   9 2.01  10 2.11
  41  0.362  0.625  0.163-   3 1.60   2 1.81   1 2.12
  42  0.845  0.351  0.390-  16 1.81  15 1.83  14 1.99
  43  0.875  0.621  0.099-  11 1.63   1 1.75  14 1.81
  44  0.625  0.626  0.405-   9 1.57   3 1.87  16 2.34
  45  0.910  0.897  0.353-   4 1.79  15 1.80  10 1.96
  46  0.612  0.901  0.113-  13 1.93  12 1.99   2 2.02
  47  0.141  0.646  0.370-   4 1.81   3 1.98   1 2.06
  48  0.617  0.376  0.145-  13 1.83  16 1.96  14 2.04
 
  LATTYP: Found a simple cubic cell.
 ALAT       =     7.8666804200
  
  Lattice vectors:
  
 A1 = (   7.8666804200,   0.0000000000,   0.0000000000)
 A2 = (   0.0000000000,   7.8666804200,   0.0000000000)
 A3 = (   0.0000000000,   0.0000000000,   7.8666804200)


Analysis of symmetry for initial positions (statically):
=====================================================================
 Subroutine PRICEL returns:
 Original cell was already a primitive cell.
 

 Routine SETGRP: Setting up the symmetry group for a 
 simple cubic supercell.


 Subroutine GETGRP returns: Found  1 space group operations
 (whereof  1 operations were pure point group operations)
 out of a pool of 48 trial point group operations.


The static configuration has the point symmetry C_1 .


Analysis of symmetry for dynamics (positions and initial velocities):
=====================================================================
 Subroutine PRICEL returns:
 Original cell was already a primitive cell.
 

 Routine SETGRP: Setting up the symmetry group for a 
 simple cubic supercell.


 Subroutine GETGRP returns: Found  1 space group operations
 (whereof  1 operations were pure point group operations)
 out of a pool of 48 trial point group operations.


The dynamic configuration has the point symmetry C_1 .


 Subroutine INISYM returns: Found  1 space group operations
 (whereof  1 operations are pure point group operations),
 and found     1 'primitive' translations

 
 
 KPOINTS: Automatic mesh                          

Automatic generation of k-mesh.
Space group operators:
 irot       det(A)        alpha          n_x          n_y          n_z        tau_x        tau_y        tau_z
    1     1.000000     0.000000     1.000000     0.000000     0.000000     0.000000     0.000000     0.000000
 
 Subroutine IBZKPT returns following result:
 ===========================================
 
 Found     36 irreducible k-points:
 
 Following reciprocal coordinates:
            Coordinates               Weight
  0.000000  0.000000  0.000000      1.000000
  0.250000  0.000000  0.000000      2.000000
  0.500000  0.000000  0.000000      1.000000
  0.000000  0.250000  0.000000      2.000000
  0.250000  0.250000  0.000000      2.000000
  0.500000  0.250000  0.000000      2.000000
 -0.250000  0.250000  0.000000      2.000000
  0.000000  0.500000  0.000000      1.000000
  0.250000  0.500000  0.000000      2.000000
  0.500000  0.500000  0.000000      1.000000
  0.000000  0.000000  0.250000      2.000000
  0.250000  0.000000  0.250000      2.000000
  0.500000  0.000000  0.250000      2.000000
 -0.250000  0.000000  0.250000      2.000000
  0.000000  0.250000  0.250000      2.000000
  0.250000  0.250000  0.250000      2.000000
  0.500000  0.250000  0.250000      2.000000
 -0.250000  0.250000  0.250000      2.000000
  0.000000  0.500000  0.250000      2.000000
  0.250000  0.500000  0.250000      2.000000
  0.500000  0.500000  0.250000      2.000000
 -0.250000  0.500000  0.250000      2.000000
  0.000000 -0.250000  0.250000      2.000000
  0.250000 -0.250000  0.250000      2.000000
  0.500000 -0.250000  0.250000      2.000000
 -0.250000 -0.250000  0.250000      2.000000
  0.000000  0.000000  0.500000      1.000000
  0.250000  0.000000  0.500000      2.000000
  0.500000  0.000000  0.500000      1.000000
  0.000000  0.250000  0.500000      2.000000
  0.250000  0.250000  0.500000      2.000000
  0.500000  0.250000  0.500000      2.000000
 -0.250000  0.250000  0.500000      2.000000
  0.000000  0.500000  0.500000      1.000000
  0.250000  0.500000  0.500000      2.000000
  0.500000  0.500000  0.500000      1.000000
 
 Following cartesian coordinates:
            Coordinates               Weight
  0.000000  0.000000  0.000000      1.000000
  0.031780  0.000000  0.000000      2.000000
  0.063559  0.000000  0.000000      1.000000
  0.000000  0.031780  0.000000      2.000000
  0.031780  0.031780  0.000000      2.000000
  0.063559  0.031780  0.000000      2.000000
 -0.031780  0.031780  0.000000      2.000000
  0.000000  0.063559  0.000000      1.000000
  0.031780  0.063559  0.000000      2.000000
  0.063559  0.063559  0.000000      1.000000
  0.000000  0.000000  0.031780      2.000000
  0.031780  0.000000  0.031780      2.000000
  0.063559  0.000000  0.031780      2.000000
 -0.031780  0.000000  0.031780      2.000000
  0.000000  0.031780  0.031780      2.000000
  0.031780  0.031780  0.031780      2.000000
  0.063559  0.031780  0.031780      2.000000
 -0.031780  0.031780  0.031780      2.000000
  0.000000  0.063559  0.031780      2.000000
  0.031780  0.063559  0.031780      2.000000
  0.063559  0.063559  0.031780      2.000000
 -0.031780  0.063559  0.031780      2.000000
  0.000000 -0.031780  0.031780      2.000000
  0.031780 -0.031780  0.031780      2.000000
  0.063559 -0.031780  0.031780      2.000000
 -0.031780 -0.031780  0.031780      2.000000
  0.000000  0.000000  0.063559      1.000000
  0.031780  0.000000  0.063559      2.000000
  0.063559  0.000000  0.063559      1.000000
  0.000000  0.031780  0.063559      2.000000
  0.031780  0.031780  0.063559      2.000000
  0.063559  0.031780  0.063559      2.000000
 -0.031780  0.031780  0.063559      2.000000
  0.000000  0.063559  0.063559      1.000000
  0.031780  0.063559  0.063559      2.000000
  0.063559  0.063559  0.063559      1.000000
 


--------------------------------------------------------------------------------------------------------




 Dimension of arrays:
   k-points           NKPTS =     36   k-points in BZ     NKDIM =     36   number of bands    NBANDS=    224
   number of dos      NEDOS =    301   number of ions     NIONS =     48
   non local maximal  LDIM  =      6   non local SUM 2l+1 LMDIM =     18
   total plane-waves  NPLWV = 216000
   max r-space proj   IRMAX =   6006   max aug-charges    IRDMAX=  14580
   dimension x,y,z NGX =    60 NGY =   60 NGZ =   60
   dimension x,y,z NGXF=   120 NGYF=  120 NGZF=  120
   support grid    NGXF=   120 NGYF=  120 NGZF=  120
   ions per type =              16  32
   NGX,Y,Z   is equivalent  to a cutoff of  12.68, 12.68, 12.68 a.u.
   NGXF,Y,Z  is equivalent  to a cutoff of  25.36, 25.36, 25.36 a.u.

 SYSTEM =  unknown system                          
 POSCAR =  NiO2_Fd-3m_scale_1_000_disp_0_12_round_2

 Startparameter for this run:
   NWRITE =      1    write-flag & timer
   PREC   = accura    normal or accurate (medium, high low for compatibility)
   ISTART =      0    job   : 0-new  1-cont  2-samecut
   ICHARG =      2    charge: 1-file 2-atom 10-const
   ISPIN  =      1    spin polarized calculation?
   LNONCOLLINEAR =      F non collinear calculations
   LSORBIT =      F    spin-orbit coupling
   INIWAV =      1    electr: 0-lowe 1-rand  2-diag
   LASPH  =      F    aspherical Exc in radial PAW
   METAGGA=      F    non-selfconsistent MetaGGA calc.

 Electronic Relaxation 1
   ENCUT  =  500.0 eV  36.75 Ry    6.06 a.u.  14.34 14.34 14.34*2*pi/ulx,y,z
   ENINI  =  500.0     initial cutoff
   ENAUG  =  605.4 eV  augmentation charge cutoff
   NELM   =    120;   NELMIN=  2; NELMDL= -5     # of ELM steps 
   EDIFF  = 0.1E-04   stopping-criterion for ELM
   LREAL  =      T    real-space projection
   NLSPLINE    = F    spline interpolate recip. space projectors
   LCOMPAT=      F    compatible to vasp.4.4
   GGA_COMPAT  = T    GGA compatible to vasp.4.4-vasp.4.6
   LMAXPAW     = -100 max onsite density
   LMAXMIX     =    2 max onsite mixed and CHGCAR
   VOSKOWN=      1    Vosko Wilk Nusair interpolation
   ROPT   =   -0.00025  -0.00025
 Ionic relaxation
   EDIFFG = 0.1E-03   stopping-criterion for IOM
   NSW    =      0    number of steps for IOM
   NBLOCK =      1;   KBLOCK =      1    inner block; outer block 
   IBRION =     -1    ionic relax: 0-MD 1-quasi-New 2-CG
   NFREE  =      0    steps in history (QN), initial steepest desc. (CG)
   ISIF   =      2    stress and relaxation
   IWAVPR =     10    prediction:  0-non 1-charg 2-wave 3-comb
   ISYM   =      2    0-nonsym 1-usesym 2-fastsym
   LCORR  =      T    Harris-Foulkes like correction to forces

   POTIM  = 0.5000    time-step for ionic-motion
   TEIN   =    0.0    initial temperature
   TEBEG  =    0.0;   TEEND  =   0.0 temperature during run
   SMASS  =  -3.00    Nose mass-parameter (am)
   estimated Nose-frequenzy (Omega)   =  0.10E-29 period in steps =****** mass=  -0.141E-26a.u.
   SCALEE = 1.0000    scale energy and forces
   NPACO  =    256;   APACO  = 16.0  distance and # of slots for P.C.
   PSTRESS=    0.0 pullay stress

  Mass of Ions in am
   POMASS =  58.69 16.00
  Ionic Valenz
   ZVAL   =  10.00  6.00
  Atomic Wigner-Seitz radii
   RWIGS  =   1.15  0.73
  virtual crystal weights 
   VCA    =   1.00  1.00
   NELECT =     352.0000    total number of electrons
   NUPDOWN=      -1.0000    fix difference up-down

 DOS related values:
   EMIN   =  10.00;   EMAX   =-10.00  energy-range for DOS
   EFERMI =   0.00
   ISMEAR =     0;   SIGMA  =   0.05  broadening in eV -4-tet -1-fermi 0-gaus

 Electronic relaxation 2 (details)
   IALGO  =     38    algorithm
   LDIAG  =      T    sub-space diagonalisation (order eigenvalues)
   LSUBROT=      F    optimize rotation matrix (better conditioning)
   TURBO    =      0    0=normal 1=particle mesh
   IRESTART =      0    0=no restart 2=restart with 2 vectors
   NREBOOT  =      0    no. of reboots
   NMIN     =      0    reboot dimension
   EREF     =   0.00    reference energy to select bands
   IMIX   =      4    mixing-type and parameters
     AMIX     =   0.40;   BMIX     =  1.00
     AMIX_MAG =   1.60;   BMIX_MAG =  1.00
     AMIN     =   0.10
     WC   =   100.;   INIMIX=   1;  MIXPRE=   1;  MAXMIX= -45

 Intra band minimization:
   WEIMIN = 0.0000     energy-eigenvalue tresh-hold
   EBREAK =  0.11E-07  absolut break condition
   DEPER  =   0.30     relativ break condition  

   TIME   =   0.40     timestep for ELM

  volume/ion in A,a.u.               =      10.14        68.44
  Fermi-wavevector in a.u.,A,eV,Ry     =   1.469369  2.776705 29.375595  2.159045
  Thomas-Fermi vector in A             =   2.584755
 
 Write flags
   LWAVE        =      F    write WAVECAR
   LDOWNSAMPLE  =      F    k-point downsampling of WAVECAR
   LCHARG       =      T    write CHGCAR
   LVTOT        =      F    write LOCPOT, total local potential
   LVHAR        =      F    write LOCPOT, Hartree potential only
   LELF         =      F    write electronic localiz. function (ELF)
   LORBIT       =      0    0 simple, 1 ext, 2 COOP (PROOUT), +10 PAW based schemes


 Dipole corrections
   LMONO  =      F    monopole corrections only (constant potential shift)
   LDIPOL =      F    correct potential (dipole corrections)
   IDIPOL =      0    1-x, 2-y, 3-z, 4-all directions 
   EPSILON=  1.0000000 bulk dielectric constant

 Exchange correlation treatment:
   GGA     =    PS    GGA type
   LEXCH   =    14    internal setting for exchange type
   VOSKOWN=      1    Vosko Wilk Nusair interpolation
   LHFCALC =     F    Hartree Fock is set to
   LHFONE  =     F    Hartree Fock one center treatment
   AEXX    =    0.0000 exact exchange contribution

 Linear response parameters
   LEPSILON=     F    determine dielectric tensor
   LRPA    =     F    only Hartree local field effects (RPA)
   LNABLA  =     F    use nabla operator in PAW spheres
   LVEL    =     F    velocity operator in full k-point grid
   LINTERFAST=   F  fast interpolation
   KINTER  =     0    interpolate to denser k-point grid
   CSHIFT  =0.1000    complex shift for real part using Kramers Kronig
   OMEGAMAX=  -1.0    maximum frequency
   DEG_THRESHOLD= 0.2000000E-02 threshold for treating states as degnerate
   RTIME   =   -0.100 relaxation time in fs
  (WPLASMAI=    0.000 imaginary part of plasma frequency in eV, 0.658/RTIME)
   DFIELD  = 0.0000000 0.0000000 0.0000000 field for delta impulse in time
 
 Orbital magnetization related:
   ORBITALMAG=     F  switch on orbital magnetization
   LCHIMAG   =     F  perturbation theory with respect to B field
   DQ        =  0.001000  dq finite difference perturbation B field
   LLRAUG    =     F  two centre corrections for induced B field



--------------------------------------------------------------------------------------------------------


 Static calculation
 charge density and potential will be updated during run
 non-spin polarized calculation
 Variant of blocked Davidson
 Davidson routine will perform the subspace rotation
 perform sub-space diagonalisation
    after iterative eigenvector-optimisation
 modified Broyden-mixing scheme, WC =      100.0
 initial mixing is a Kerker type mixing with AMIX =  0.4000 and BMIX =      1.0000
 Hartree-type preconditioning will be used
 using additional bands           48
 real space projection scheme for non local part
 use partial core corrections
 calculate Harris-corrections to forces 
   (improved forces if not selfconsistent)
 use gradient corrections 
 use of overlap-Matrix (Vanderbilt PP)
 Gauss-broadening in eV      SIGMA  =   0.05


--------------------------------------------------------------------------------------------------------


  energy-cutoff  :      500.00
  volume of cell :      486.83
      direct lattice vectors                 reciprocal lattice vectors
     7.866680420  0.000000000  0.000000000     0.127118422  0.000000000  0.000000000
     0.000000000  7.866680420  0.000000000     0.000000000  0.127118422  0.000000000
     0.000000000  0.000000000  7.866680420     0.000000000  0.000000000  0.127118422

  length of vectors
     7.866680420  7.866680420  7.866680420     0.127118422  0.127118422  0.127118422


 
 k-points in units of 2pi/SCALE and weight: Automatic mesh                          
   0.00000000  0.00000000  0.00000000       0.016
   0.03177961  0.00000000  0.00000000       0.031
   0.06355921  0.00000000  0.00000000       0.016
   0.00000000  0.03177961  0.00000000       0.031
   0.03177961  0.03177961  0.00000000       0.031
   0.06355921  0.03177961  0.00000000       0.031
  -0.03177961  0.03177961  0.00000000       0.031
   0.00000000  0.06355921  0.00000000       0.016
   0.03177961  0.06355921  0.00000000       0.031
   0.06355921  0.06355921  0.00000000       0.016
   0.00000000  0.00000000  0.03177961       0.031
   0.03177961  0.00000000  0.03177961       0.031
   0.06355921  0.00000000  0.03177961       0.031
  -0.03177961  0.00000000  0.03177961       0.031
   0.00000000  0.03177961  0.03177961       0.031
   0.03177961  0.03177961  0.03177961       0.031
   0.06355921  0.03177961  0.03177961       0.031
  -0.03177961  0.03177961  0.03177961       0.031
   0.00000000  0.06355921  0.03177961       0.031
   0.03177961  0.06355921  0.03177961       0.031
   0.06355921  0.06355921  0.03177961       0.031
  -0.03177961  0.06355921  0.03177961       0.031
   0.00000000 -0.03177961  0.03177961       0.031
   0.03177961 -0.03177961  0.03177961       0.031
   0.06355921 -0.03177961  0.03177961       0.031
  -0.03177961 -0.03177961  0.03177961       0.031
   0.00000000  0.00000000  0.06355921       0.016
   0.03177961  0.00000000  0.06355921       0.031
   0.06355921  0.00000000  0.06355921       0.016
   0.00000000  0.03177961  0.06355921       0.031
   0.03177961  0.03177961  0.06355921       0.031
   0.06355921  0.03177961  0.06355921       0.031
  -0.03177961  0.03177961  0.06355921       0.031
   0.00000000  0.06355921  0.06355921       0.016
   0.03177961  0.06355921  0.06355921       0.031
   0.06355921  0.06355921  0.06355921       0.016
 
 k-points in reciprocal lattice and weights: Automatic mesh                          
   0.00000000  0.00000000  0.00000000       0.016
   0.25000000  0.00000000  0.00000000       0.031
   0.50000000  0.00000000  0.00000000       0.016
   0.00000000  0.25000000  0.00000000       0.031
   0.25000000  0.25000000  0.00000000       0.031
   0.50000000  0.25000000  0.00000000       0.031
  -0.25000000  0.25000000  0.00000000       0.031
   0.00000000  0.50000000  0.00000000       0.016
   0.25000000  0.50000000  0.00000000       0.031
   0.50000000  0.50000000  0.00000000       0.016
   0.00000000  0.00000000  0.25000000       0.031
   0.25000000  0.00000000  0.25000000       0.031
   0.50000000  0.00000000  0.25000000       0.031
  -0.25000000  0.00000000  0.25000000       0.031
   0.00000000  0.25000000  0.25000000       0.031
   0.25000000  0.25000000  0.25000000       0.031
   0.50000000  0.25000000  0.25000000       0.031
  -0.25000000  0.25000000  0.25000000       0.031
   0.00000000  0.50000000  0.25000000       0.031
   0.25000000  0.50000000  0.25000000       0.031
   0.50000000  0.50000000  0.25000000       0.031
  -0.25000000  0.50000000  0.25000000       0.031
   0.00000000 -0.25000000  0.25000000       0.031
   0.25000000 -0.25000000  0.25000000       0.031
   0.50000000 -0.25000000  0.25000000       0.031
  -0.25000000 -0.25000000  0.25000000       0.031
   0.00000000  0.00000000  0.50000000       0.016
   0.25000000  0.00000000  0.50000000       0.031
   0.50000000  0.00000000  0.50000000       0.016
   0.00000000  0.25000000  0.50000000       0.031
   0.25000000  0.25000000  0.50000000       0.031
   0.50000000  0.25000000  0.50000000       0.031
  -0.25000000  0.25000000  0.50000000       0.031
   0.00000000  0.50000000  0.50000000       0.016
   0.25000000  0.50000000  0.50000000       0.031
   0.50000000  0.50000000  0.50000000       0.016
 
 position of ions in fractional coordinates (direct lattice) 
   0.09617356  0.61869098  0.11331488
   0.36090318  0.85331465  0.13728354
   0.39252498  0.64283871  0.36276598
   0.13602083  0.87580828  0.35697684
   0.11468585  0.12246434  0.63213035
   0.38009062  0.36203914  0.62604770
   0.37528345  0.14506742  0.89276772
   0.11980855  0.37585779  0.87844560
   0.61927021  0.63344036  0.60408794
   0.88998945  0.87940387  0.60063429
   0.86985864  0.61254044  0.89146986
   0.63154652  0.85596178  0.86459456
   0.63163425  0.14432044  0.13656156
   0.87482994  0.39511311  0.14221869
   0.86390035  0.11949657  0.38190812
   0.61604187  0.32898352  0.38998434
   0.84391358  0.13619556  0.12099534
   0.37424673  0.84627067  0.36374588
   0.35343221  0.13861274  0.13889559
   0.10520451  0.11626382  0.38727258
   0.42424231  0.38122075  0.36663721
   0.08991373  0.41080948  0.15044422
   0.64566886  0.14876901  0.38999884
   0.15283692  0.87469480  0.14180153
   0.84265919  0.62412020  0.63782174
   0.32551882  0.35537233  0.85954015
   0.39878193  0.60988839  0.61522440
   0.11006848  0.63443882  0.89649872
   0.39577441  0.88421070  0.91984731
   0.07292549  0.90137636  0.60491087
   0.63761899  0.64270781  0.87931011
   0.15634938  0.35444944  0.66784216
   0.34985834  0.14845975  0.64985834
   0.86126884  0.88969611  0.87720422
   0.90378220  0.09794600  0.58700504
   0.63098886  0.09570940  0.88231064
   0.89786625  0.37987041  0.90043018
   0.60939116  0.38922817  0.61127388
   0.13211908  0.12680440  0.86998722
   0.63115376  0.87964179  0.67327667
   0.36151312  0.62527487  0.16289495
   0.84540934  0.35112548  0.38966023
   0.87462358  0.62091039  0.09858366
   0.62549778  0.62591916  0.40530169
   0.91008417  0.89660018  0.35328711
   0.61202864  0.90080316  0.11293595
   0.14060775  0.64561443  0.37047301
   0.61687190  0.37582203  0.14497084
 
 position of ions in cartesian coordinates  (Angst):
   0.75656666  4.86704422  0.89141195
   2.83910998  6.71275365  1.07996574
   3.08786857  5.05700669  2.85376403
   1.07003240  6.88970385  2.80822272
   0.90219693  0.96338783  4.97276745
   2.99005144  2.84804621  4.92491718
   2.95223497  1.14119903  7.02311834
   0.94249557  2.95675312  6.91045080
   4.87160084  4.98307288  4.75216677
   7.00126258  6.91798921  4.72499801
   6.84289993  4.81865989  7.01290849
   4.96817464  6.73357777  6.80148910
   4.96886479  1.13532278  1.07428615
   6.88200756  3.10822857  1.11878898
   6.79602797  0.94004133  3.00434913
   4.84620452  2.58800822  3.06788217
   6.63879844  1.07140695  0.95183167
   2.94407942  6.65734091  2.86147259
   2.78033825  1.09042213  1.09264722
   0.82761026  0.91461032  3.04654962
   3.33737867  2.99894181  2.88421776
   0.70732258  3.23170689  1.18349660
   5.07927058  1.17031826  3.06799624
   1.20231921  6.88094446  1.11550732
   6.62893055  4.90975416  5.01753979
   2.56075253  2.79560055  6.76172767
   3.13709000  4.79779706  4.83977374
   0.86587356  4.99092744  7.05246893
   3.11343080  6.95580300  7.23614482
   0.57368152  7.09083976  4.75864050
   5.01594482  5.05597694  6.91725163
   1.22995061  2.78834047  5.25370084
   2.75222375  1.16788541  5.11222788
   6.77532672  6.99895497  6.90068526
   7.10976574  0.77050988  4.61778105
   4.96378771  0.75291526  6.94085584
   7.06322685  2.98831912  7.08339647
   4.79388551  3.06193362  4.80869626
   1.03933858  0.99752969  6.84391143
   4.96508493  6.91986085  5.29645240
   2.84390818  4.91883758  1.28144251
   6.65056510  2.76219194  3.06533250
   6.88038419  4.88450361  0.77552615
   4.92059114  4.92390600  3.18837887
   7.15934132  7.05326708  2.77919679
   4.81463372  7.08633058  0.88843103
   1.10611623  5.07884240  2.91439277
   4.85273410  2.95647180  1.14043927
 


--------------------------------------------------------------------------------------------------------


 k-point  1 :   0.0000 0.0000 0.0000  plane waves:   12293
 k-point  2 :   0.2500 0.0000 0.0000  plane waves:   12393
 k-point  3 :   0.5000 0.0000 0.0000  plane waves:   12356
 k-point  4 :   0.0000 0.2500 0.0000  plane waves:   12393
 k-point  5 :   0.2500 0.2500 0.0000  plane waves:   12392
 k-point  6 :   0.5000 0.2500 0.0000  plane waves:   12348
 k-point  7 :  -0.2500 0.2500 0.0000  plane waves:   12392
 k-point  8 :   0.0000 0.5000 0.0000  plane waves:   12356
 k-point  9 :   0.2500 0.5000 0.0000  plane waves:   12348
 k-point 10 :   0.5000 0.5000 0.0000  plane waves:   12408
 k-point 11 :   0.0000 0.0000 0.2500  plane waves:   12393
 k-point 12 :   0.2500 0.0000 0.2500  plane waves:   12392
 k-point 13 :   0.5000 0.0000 0.2500  plane waves:   12348
 k-point 14 :  -0.2500 0.0000 0.2500  plane waves:   12392
 k-point 15 :   0.0000 0.2500 0.2500  plane waves:   12392
 k-point 16 :   0.2500 0.2500 0.2500  plane waves:   12371
 k-point 17 :   0.5000 0.2500 0.2500  plane waves:   12338
 k-point 18 :  -0.2500 0.2500 0.2500  plane waves:   12371
 k-point 19 :   0.0000 0.5000 0.2500  plane waves:   12348
 k-point 20 :   0.2500 0.5000 0.2500  plane waves:   12338
 k-point 21 :   0.5000 0.5000 0.2500  plane waves:   12364
 k-point 22 :  -0.2500 0.5000 0.2500  plane waves:   12338
 k-point 23 :   0.0000-0.2500 0.2500  plane waves:   12392
 k-point 24 :   0.2500-0.2500 0.2500  plane waves:   12371
 k-point 25 :   0.5000-0.2500 0.2500  plane waves:   12338
 k-point 26 :  -0.2500-0.2500 0.2500  plane waves:   12371
 k-point 27 :   0.0000 0.0000 0.5000  plane waves:   12356
 k-point 28 :   0.2500 0.0000 0.5000  plane waves:   12348
 k-point 29 :   0.5000 0.0000 0.5000  plane waves:   12408
 k-point 30 :   0.0000 0.2500 0.5000  plane waves:   12348
 k-point 31 :   0.2500 0.2500 0.5000  plane waves:   12338
 k-point 32 :   0.5000 0.2500 0.5000  plane waves:   12364
 k-point 33 :  -0.2500 0.2500 0.5000  plane waves:   12338
 k-point 34 :   0.0000 0.5000 0.5000  plane waves:   12408
 k-point 35 :   0.2500 0.5000 0.5000  plane waves:   12364
 k-point 36 :   0.5000 0.5000 0.5000  plane waves:   12400

 maximum and minimum number of plane-waves per node :     12408    12293

 maximum number of plane-waves:     12408
 maximum index in each direction: 
   IXMAX=   14   IYMAX=   14   IZMAX=   14
   IXMIN=  -14   IYMIN=  -14   IZMIN=  -14

 The following grids will avoid any aliasing or wrap around errors in the Hartre
 e energy
  - symmetry arguments have not been applied
  - exchange correlation energies might require even more grid points
  - we recommend to set PREC=Normal or Accurate and rely on VASP defaults
 NGX is ok and might be reduce to    60
 NGY is ok and might be reduce to    60
 NGZ is ok and might be reduce to    60

 serial   3D FFT for wavefunctions
 parallel 3D FFT for charge:
    minimum data exchange during FFTs selected (reduces bandwidth)


 total amount of memory used by VASP MPI-rank0   180130. kBytes
=======================================================================

   base      :      30000. kBytes
   nonlr-proj:      24899. kBytes
   fftplans  :       4751. kBytes
   grid      :      15225. kBytes
   one-center:        746. kBytes
   wavefun   :     104509. kBytes
 
     INWAV:  cpu time    0.0000: real time    0.0000
 Broyden mixing: mesh for mixing (old mesh)
   NGX = 29   NGY = 29   NGZ = 29
  (NGX  =120   NGY  =120   NGZ  =120)
  gives a total of  24389 points

 initial charge density was supplied:
 charge density of overlapping atoms calculated
 number of electron     352.0000000 magnetization 
 keeping initial charge density in first step


--------------------------------------------------------------------------------------------------------


 Maximum index for non-local projection operator         5790
 Maximum index for augmentation-charges         1104 (set IRDMAX)


--------------------------------------------------------------------------------------------------------


 First call to EWALD:  gamma=   0.225
 Maximum number of real-space cells 3x 3x 3
 Maximum number of reciprocal cells 3x 3x 3

    FEWALD:  cpu time    0.0025: real time    0.0025


--------------------------------------- Iteration      1(   1)  ---------------------------------------


    POTLOK:  cpu time    0.0815: real time    0.1459
    SETDIJ:  cpu time    0.0073: real time    0.0073
     EDDAV:  cpu time   30.8637: real time   30.9369
    --------------------------------------------
      LOOP:  cpu time   30.9545: real time   31.0921

 eigenvalue-minimisations  : 16128
 total energy-change (2. order) : 0.4661622E+04  (-0.1562816E+05)
 number of electron     352.0000000 magnetization 
 augmentation part      352.0000000 magnetization 

 Free energy of the ion-electron system (eV)
  ---------------------------------------------------
  alpha Z        PSCENC =      1125.84681573
  Ewald energy   TEWEN  =    -20184.77215395
  -Hartree energ DENC   =    -11760.49643288
  -exchange      EXHF   =         0.00000000
  -V(xc)+E(xc)   XCENC  =      1415.95219874
  PAW double counting   =     26475.20327555   -27591.76617206
  entropy T*S    EENTRO =        -0.00857900
  eigenvalues    EBANDS =      4167.99049809
  atomic energy  EATOM  =     31013.67235384
  Solvation  Ediel_sol  =         0.00000000
  ---------------------------------------------------
  free energy    TOTEN  =      4661.62180407 eV

  energy without entropy =     4661.63038307  energy(sigma->0) =     4661.62609357


--------------------------------------------------------------------------------------------------------




--------------------------------------- Iteration      1(   2)  ---------------------------------------


     EDDAV:  cpu time   30.0677: real time   30.1392
    --------------------------------------------
      LOOP:  cpu time   30.0675: real time   30.1389

 eigenvalue-minimisations  : 16720
 total energy-change (2. order) :-0.4070246E+04  (-0.3708337E+04)
 number of electron     352.0000000 magnetization 
 augmentation part      352.0000000 magnetization 

 Free energy of the ion-electron system (eV)
  ---------------------------------------------------
  alpha Z        PSCENC =      1125.84681573
  Ewald energy   TEWEN  =    -20184.77215395
  -Hartree energ DENC   =    -11760.49643288
  -exchange      EXHF   =         0.00000000
  -V(xc)+E(xc)   XCENC  =      1415.95219874
  PAW double counting   =     26475.20327555   -27591.76617206
  entropy T*S    EENTRO =        -0.02616949
  eigenvalues    EBANDS =        97.76241642
  atomic energy  EATOM  =     31013.67235384
  Solvation  Ediel_sol  =         0.00000000
  ---------------------------------------------------
  free energy    TOTEN  =       591.37613191 eV

  energy without entropy =      591.40230140  energy(sigma->0) =      591.38921666


--------------------------------------------------------------------------------------------------------




--------------------------------------- Iteration      1(   3)  ---------------------------------------


     EDDAV:  cpu time   30.3946: real time   30.4691
    --------------------------------------------
      LOOP:  cpu time   30.3942: real time   30.4687

 eigenvalue-minimisations  : 17312
 total energy-change (2. order) :-0.9045018E+03  (-0.8007718E+03)
 number of electron     352.0000000 magnetization 
 augmentation part      352.0000000 magnetization 

 Free energy of the ion-electron system (eV)
  ---------------------------------------------------
  alpha Z        PSCENC =      1125.84681573
  Ewald energy   TEWEN  =    -20184.77215395
  -Hartree energ DENC   =    -11760.49643288
  -exchange      EXHF   =         0.00000000
  -V(xc)+E(xc)   XCENC  =      1415.95219874
  PAW double counting   =     26475.20327555   -27591.76617206
  entropy T*S    EENTRO =        -0.00000015
  eigenvalues    EBANDS =      -806.76555632
  atomic energy  EATOM  =     31013.67235384
  Solvation  Ediel_sol  =         0.00000000
  ---------------------------------------------------
  free energy    TOTEN  =      -313.12567149 eV

  energy without entropy =     -313.12567134  energy(sigma->0) =     -313.12567142


--------------------------------------------------------------------------------------------------------




--------------------------------------- Iteration      1(   4)  ---------------------------------------


     EDDAV:  cpu time   30.3362: real time   30.4082
    --------------------------------------------
      LOOP:  cpu time   30.3360: real time   30.4079

 eigenvalue-minimisations  : 17280
 total energy-change (2. order) :-0.8207894E+02  (-0.8046897E+02)
 number of electron     352.0000000 magnetization 
 augmentation part      352.0000000 magnetization 

 Free energy of the ion-electron system (eV)
  ---------------------------------------------------
  alpha Z        PSCENC =      1125.84681573
  Ewald energy   TEWEN  =    -20184.77215395
  -Hartree energ DENC   =    -11760.49643288
  -exchange      EXHF   =         0.00000000
  -V(xc)+E(xc)   XCENC  =      1415.95219874
  PAW double counting   =     26475.20327555   -27591.76617206
  entropy T*S    EENTRO =        -0.00000000
  eigenvalues    EBANDS =      -888.84449837
  atomic energy  EATOM  =     31013.67235384
  Solvation  Ediel_sol  =         0.00000000
  ---------------------------------------------------
  free energy    TOTEN  =      -395.20461339 eV

  energy without entropy =     -395.20461339  energy(sigma->0) =     -395.20461339


--------------------------------------------------------------------------------------------------------




--------------------------------------- Iteration      1(   5)  ---------------------------------------


     EDDAV:  cpu time   30.5639: real time   30.6364
    CHARGE:  cpu time    1.1172: real time    1.1199
    MIXING:  cpu time    0.0019: real time    0.0019
    --------------------------------------------
      LOOP:  cpu time   31.6820: real time   31.7572

 eigenvalue-minimisations  : 17440
 total energy-change (2. order) :-0.2208493E+01  (-0.2197917E+01)
 number of electron     352.0000003 magnetization 
 augmentation part      100.9885127 magnetization 

 Broyden mixing:
  rms(total) = 0.13005E+02    rms(broyden)= 0.12999E+02
  rms(prec ) = 0.16244E+02
  weight for this iteration     100.00

 Free energy of the ion-electron system (eV)
  ---------------------------------------------------
  alpha Z        PSCENC =      1125.84681573
  Ewald energy   TEWEN  =    -20184.77215395
  -Hartree energ DENC   =    -11760.49643288
  -exchange      EXHF   =         0.00000000
  -V(xc)+E(xc)   XCENC  =      1415.95219874
  PAW double counting   =     26475.20327555   -27591.76617206
  entropy T*S    EENTRO =        -0.00000000
  eigenvalues    EBANDS =      -891.05299131
  atomic energy  EATOM  =     31013.67235384
  Solvation  Ediel_sol  =         0.00000000
  ---------------------------------------------------
  free energy    TOTEN  =      -397.41310633 eV

  energy without entropy =     -397.41310633  energy(sigma->0) =     -397.41310633


--------------------------------------------------------------------------------------------------------




--------------------------------------- Iteration      1(   6)  ---------------------------------------


    POTLOK:  cpu time    0.0505: real time    0.0506
    SETDIJ:  cpu time    0.0061: real time    0.0061
     EDDAV:  cpu time   41.2262: real time   41.3240
    CHARGE:  cpu time    1.1272: real time    1.1299
    MIXING:  cpu time    0.0017: real time    0.0017
    --------------------------------------------
      LOOP:  cpu time   42.4117: real time   42.5123

 eigenvalue-minimisations  : 25312
 total energy-change (2. order) :-0.9288884E+02  (-0.9092809E+02)
 number of electron     352.0000013 magnetization 
 augmentation part      138.2718779 magnetization 

 Broyden mixing:
  rms(total) = 0.21149E+02    rms(broyden)= 0.21146E+02
  rms(prec ) = 0.24568E+02
  weight for this iteration     100.00

 eigenvalues of (default mixing * dielectric matrix)
  average eigenvalue GAMMA=   0.1792
  0.1792

 Free energy of the ion-electron system (eV)
  ---------------------------------------------------
  alpha Z        PSCENC =      1125.84681573
  Ewald energy   TEWEN  =    -20184.77215395
  -Hartree energ DENC   =    -11154.87009337
  -exchange      EXHF   =         0.00000000
  -V(xc)+E(xc)   XCENC  =      1413.44517778
  PAW double counting   =     30081.67429692   -31019.66899155
  entropy T*S    EENTRO =        -0.03562913
  eigenvalues    EBANDS =     -1765.59372505
  atomic energy  EATOM  =     31013.67235384
  Solvation  Ediel_sol  =         0.00000000
  ---------------------------------------------------
  free energy    TOTEN  =      -490.30194877 eV

  energy without entropy =     -490.26631964  energy(sigma->0) =     -490.28413421


--------------------------------------------------------------------------------------------------------




--------------------------------------- Iteration      1(   7)  ---------------------------------------


    POTLOK:  cpu time    0.0501: real time    0.0502
    SETDIJ:  cpu time    0.0059: real time    0.0059
     EDDAV:  cpu time   37.3434: real time   37.4319
    CHARGE:  cpu time    1.1245: real time    1.1271
    MIXING:  cpu time    0.0018: real time    0.0018
    --------------------------------------------
      LOOP:  cpu time   38.5257: real time   38.6170

 eigenvalue-minimisations  : 22528
 total energy-change (2. order) : 0.1898951E+03  (-0.2477577E+02)
 number of electron     352.0000007 magnetization 
 augmentation part      123.5086738 magnetization 

 Broyden mixing:
  rms(total) = 0.68953E+01    rms(broyden)= 0.68936E+01
  rms(prec ) = 0.91301E+01
  weight for this iteration     100.00

 eigenvalues of (default mixing * dielectric matrix)
  average eigenvalue GAMMA=   0.5735
  0.5735  0.5735

 Free energy of the ion-electron system (eV)
  ---------------------------------------------------
  alpha Z        PSCENC =      1125.84681573
  Ewald energy   TEWEN  =    -20184.77215395
  -Hartree energ DENC   =    -11429.46100567
  -exchange      EXHF   =         0.00000000
  -V(xc)+E(xc)   XCENC  =      1417.61328299
  PAW double counting   =     31619.12831431   -32694.00327667
  entropy T*S    EENTRO =        -0.02784950
  eigenvalues    EBANDS =     -1168.40335611
  atomic energy  EATOM  =     31013.67235384
  Solvation  Ediel_sol  =         0.00000000
  ---------------------------------------------------
  free energy    TOTEN  =      -300.40687504 eV

  energy without entropy =     -300.37902553  energy(sigma->0) =     -300.39295029


--------------------------------------------------------------------------------------------------------




--------------------------------------- Iteration      1(   8)  ---------------------------------------


    POTLOK:  cpu time    0.0530: real time    0.0532
    SETDIJ:  cpu time    0.0069: real time    0.0069
     EDDAV:  cpu time   45.3589: real time   45.4693
    CHARGE:  cpu time    1.7209: real time    1.7250
    MIXING:  cpu time    0.0021: real time    0.0021
    --------------------------------------------
      LOOP:  cpu time   47.1419: real time   47.2565

 eigenvalue-minimisations  : 25280
 total energy-change (2. order) :-0.3314739E+02  (-0.1265567E+02)
 number of electron     352.0000012 magnetization 
 augmentation part      115.1059885 magnetization 

 Broyden mixing:
  rms(total) = 0.13402E+02    rms(broyden)= 0.13400E+02
  rms(prec ) = 0.20695E+02
  weight for this iteration     100.00

 eigenvalues of (default mixing * dielectric matrix)
  average eigenvalue GAMMA=   0.5097
  0.8640  0.4941  0.1710

 Free energy of the ion-electron system (eV)
  ---------------------------------------------------
  alpha Z        PSCENC =      1125.84681573
  Ewald energy   TEWEN  =    -20184.77215395
  -Hartree energ DENC   =    -11459.51450589
  -exchange      EXHF   =         0.00000000
  -V(xc)+E(xc)   XCENC  =      1414.36344300
  PAW double counting   =     33071.14273549   -34224.07134707
  entropy T*S    EENTRO =        -0.01495249
  eigenvalues    EBANDS =     -1090.20665479
  atomic energy  EATOM  =     31013.67235384
  Solvation  Ediel_sol  =         0.00000000
  ---------------------------------------------------
  free energy    TOTEN  =      -333.55426612 eV

  energy without entropy =     -333.53931363  energy(sigma->0) =     -333.54678987


--------------------------------------------------------------------------------------------------------




--------------------------------------- Iteration      1(   9)  ---------------------------------------


    POTLOK:  cpu time    0.0634: real time    0.0635
    SETDIJ:  cpu time    0.0075: real time    0.0075
     EDDAV:  cpu time   47.9283: real time   48.0419
    CHARGE:  cpu time    1.7276: real time    1.7317
    MIXING:  cpu time    0.0027: real time    0.0027
    --------------------------------------------
      LOOP:  cpu time   49.7295: real time   49.8473

 eigenvalue-minimisations  : 20560
 total energy-change (2. order) : 0.1000051E+02  (-0.1263823E+02)
 number of electron     352.0000006 magnetization 
 augmentation part      112.7002350 magnetization 

 Broyden mixing:
  rms(total) = 0.83192E+01    rms(broyden)= 0.83171E+01
  rms(prec ) = 0.11801E+02
  weight for this iteration     100.00

 eigenvalues of (default mixing * dielectric matrix)
  average eigenvalue GAMMA=   0.5390
  1.3015  0.3608  0.3608  0.1330

 Free energy of the ion-electron system (eV)
  ---------------------------------------------------
  alpha Z        PSCENC =      1125.84681573
  Ewald energy   TEWEN  =    -20184.77215395
  -Hartree energ DENC   =    -11448.61220474
  -exchange      EXHF   =         0.00000000
  -V(xc)+E(xc)   XCENC  =      1412.65038608
  PAW double counting   =     33966.47281252   -35135.09933188
  entropy T*S    EENTRO =        -0.05496999
  eigenvalues    EBANDS =     -1073.65745982
  atomic energy  EATOM  =     31013.67235384
  Solvation  Ediel_sol  =         0.00000000
  ---------------------------------------------------
  free energy    TOTEN  =      -323.55375221 eV

  energy without entropy =     -323.49878222  energy(sigma->0) =     -323.52626722


--------------------------------------------------------------------------------------------------------




--------------------------------------- Iteration      1(  10)  ---------------------------------------


    POTLOK:  cpu time    0.0629: real time    0.0631
    SETDIJ:  cpu time    0.0077: real time    0.0077
     EDDAV:  cpu time   50.6022: real time   50.7222
    CHARGE:  cpu time    1.7358: real time    1.7399
    MIXING:  cpu time    0.0025: real time    0.0025
    --------------------------------------------
      LOOP:  cpu time   52.4111: real time   52.5353

 eigenvalue-minimisations  : 21872
 total energy-change (2. order) : 0.1753402E+02  (-0.6766967E+01)
 number of electron     352.0000000 magnetization 
 augmentation part      111.7611988 magnetization 

 Broyden mixing:
  rms(total) = 0.77064E+01    rms(broyden)= 0.77058E+01
  rms(prec ) = 0.11589E+02
  weight for this iteration     100.00

 eigenvalues of (default mixing * dielectric matrix)
  average eigenvalue GAMMA=   0.4978
  1.4601  0.3532  0.3532  0.1612  0.1612

 Free energy of the ion-electron system (eV)
  ---------------------------------------------------
  alpha Z        PSCENC =      1125.84681573
  Ewald energy   TEWEN  =    -20184.77215395
  -Hartree energ DENC   =    -11418.01252108
  -exchange      EXHF   =         0.00000000
  -V(xc)+E(xc)   XCENC  =      1411.22423180
  PAW double counting   =     35347.09036506   -36534.35229587
  entropy T*S    EENTRO =        -0.05645382
  eigenvalues    EBANDS =     -1066.66007639
  atomic energy  EATOM  =     31013.67235384
  Solvation  Ediel_sol  =         0.00000000
  ---------------------------------------------------
  free energy    TOTEN  =      -306.01973469 eV

  energy without entropy =     -305.96328088  energy(sigma->0) =     -305.99150778


--------------------------------------------------------------------------------------------------------




--------------------------------------- Iteration      1(  11)  ---------------------------------------


    POTLOK:  cpu time    0.0635: real time    0.0637
    SETDIJ:  cpu time    0.0073: real time    0.0073
     EDDAV:  cpu time   47.1932: real time   47.3050
    CHARGE:  cpu time    1.7426: real time    1.7468
    MIXING:  cpu time    0.0024: real time    0.0024
    --------------------------------------------
      LOOP:  cpu time   49.0091: real time   49.1252

 eigenvalue-minimisations  : 20096
 total energy-change (2. order) : 0.1965451E+02  (-0.4097783E+01)
 number of electron     352.0000007 magnetization 
 augmentation part      114.2891392 magnetization 

 Broyden mixing:
  rms(total) = 0.45374E+01    rms(broyden)= 0.45364E+01
  rms(prec ) = 0.67500E+01
  weight for this iteration     100.00

 eigenvalues of (default mixing * dielectric matrix)
  average eigenvalue GAMMA=   0.4571
  1.4628  0.3771  0.3187  0.3187  0.1326  0.1326

 Free energy of the ion-electron system (eV)
  ---------------------------------------------------
  alpha Z        PSCENC =      1125.84681573
  Ewald energy   TEWEN  =    -20184.77215395
  -Hartree energ DENC   =    -11396.52459495
  -exchange      EXHF   =         0.00000000
  -V(xc)+E(xc)   XCENC  =      1410.80563010
  PAW double counting   =     35896.73401727   -37086.64388494
  entropy T*S    EENTRO =        -0.05069008
  eigenvalues    EBANDS =     -1065.43271403
  atomic energy  EATOM  =     31013.67235384
  Solvation  Ediel_sol  =         0.00000000
  ---------------------------------------------------
  free energy    TOTEN  =      -286.36522102 eV

  energy without entropy =     -286.31453093  energy(sigma->0) =     -286.33987598


--------------------------------------------------------------------------------------------------------




--------------------------------------- Iteration      1(  12)  ---------------------------------------


    POTLOK:  cpu time    0.0640: real time    0.0641
    SETDIJ:  cpu time    0.0073: real time    0.0073
     EDDAV:  cpu time   49.9488: real time   50.0673
    CHARGE:  cpu time    1.6941: real time    1.6981
    MIXING:  cpu time    0.0025: real time    0.0025
    --------------------------------------------
      LOOP:  cpu time   51.7167: real time   51.8393

 eigenvalue-minimisations  : 21536
 total energy-change (2. order) : 0.8447155E+01  (-0.1524901E+01)
 number of electron     352.0000005 magnetization 
 augmentation part      114.4573398 magnetization 

 Broyden mixing:
  rms(total) = 0.21792E+01    rms(broyden)= 0.21774E+01
  rms(prec ) = 0.31536E+01
  weight for this iteration     100.00

 eigenvalues of (default mixing * dielectric matrix)
  average eigenvalue GAMMA=   0.4711
  1.5229  0.4545  0.4545  0.3872  0.1910  0.1439  0.1439

 Free energy of the ion-electron system (eV)
  ---------------------------------------------------
  alpha Z        PSCENC =      1125.84681573
  Ewald energy   TEWEN  =    -20184.77215395
  -Hartree energ DENC   =    -11397.33067868
  -exchange      EXHF   =         0.00000000
  -V(xc)+E(xc)   XCENC  =      1410.95980571
  PAW double counting   =     36050.30143461   -37241.33560381
  entropy T*S    EENTRO =        -0.00140720
  eigenvalues    EBANDS =     -1055.25863233
  atomic energy  EATOM  =     31013.67235384
  Solvation  Ediel_sol  =         0.00000000
  ---------------------------------------------------
  free energy    TOTEN  =      -277.91806608 eV

  energy without entropy =     -277.91665887  energy(sigma->0) =     -277.91736247


--------------------------------------------------------------------------------------------------------




--------------------------------------- Iteration      1(  13)  ---------------------------------------


    POTLOK:  cpu time    0.0637: real time    0.0639
    SETDIJ:  cpu time    0.0073: real time    0.0073
     EDDAV:  cpu time   55.4427: real time   55.5739
    CHARGE:  cpu time    1.7614: real time    1.7656
    MIXING:  cpu time    0.0028: real time    0.0028
    --------------------------------------------
      LOOP:  cpu time   57.2779: real time   57.4135

 eigenvalue-minimisations  : 24560
 total energy-change (2. order) : 0.2891753E+01  (-0.6995614E+00)
 number of electron     352.0000006 magnetization 
 augmentation part      114.3672560 magnetization 

 Broyden mixing:
  rms(total) = 0.15109E+01    rms(broyden)= 0.15104E+01
  rms(prec ) = 0.22135E+01
  weight for this iteration     100.00

 eigenvalues of (default mixing * dielectric matrix)
  average eigenvalue GAMMA=   0.4953
  1.6178  0.5692  0.5692  0.3674  0.3674  0.1900  0.1406  0.1406

 Free energy of the ion-electron system (eV)
  ---------------------------------------------------
  alpha Z        PSCENC =      1125.84681573
  Ewald energy   TEWEN  =    -20184.77215395
  -Hartree energ DENC   =    -11406.45518977
  -exchange      EXHF   =         0.00000000
  -V(xc)+E(xc)   XCENC  =      1411.47792433
  PAW double counting   =     36336.97752946   -37528.72300336
  entropy T*S    EENTRO =        -0.00775343
  eigenvalues    EBANDS =     -1043.04283630
  atomic energy  EATOM  =     31013.67235384
  Solvation  Ediel_sol  =         0.00000000
  ---------------------------------------------------
  free energy    TOTEN  =      -275.02631345 eV

  energy without entropy =     -275.01856002  energy(sigma->0) =     -275.02243673


--------------------------------------------------------------------------------------------------------




--------------------------------------- Iteration      1(  14)  ---------------------------------------


    POTLOK:  cpu time    0.0708: real time    0.0710
    SETDIJ:  cpu time    0.0100: real time    0.0100
     EDDAV:  cpu time   53.4917: real time   53.6186
    CHARGE:  cpu time    1.6742: real time    1.6781
    MIXING:  cpu time    0.0029: real time    0.0030
    --------------------------------------------
      LOOP:  cpu time   55.2496: real time   55.3806

 eigenvalue-minimisations  : 23680
 total energy-change (2. order) : 0.6952874E+00  (-0.3090801E+00)
 number of electron     352.0000006 magnetization 
 augmentation part      114.7419070 magnetization 

 Broyden mixing:
  rms(total) = 0.12610E+01    rms(broyden)= 0.12607E+01
  rms(prec ) = 0.17440E+01
  weight for this iteration     100.00

 eigenvalues of (default mixing * dielectric matrix)
  average eigenvalue GAMMA=   0.5260
  1.7879  0.7335  0.7335  0.3856  0.3856  0.2434  0.1830  0.1409  0.1409

 Free energy of the ion-electron system (eV)
  ---------------------------------------------------
  alpha Z        PSCENC =      1125.84681573
  Ewald energy   TEWEN  =    -20184.77215395
  -Hartree energ DENC   =    -11405.03812167
  -exchange      EXHF   =         0.00000000
  -V(xc)+E(xc)   XCENC  =      1411.68397422
  PAW double counting   =     36584.47018576   -37775.52175453
  entropy T*S    EENTRO =        -0.00059235
  eigenvalues    EBANDS =     -1044.67173306
  atomic energy  EATOM  =     31013.67235384
  Solvation  Ediel_sol  =         0.00000000
  ---------------------------------------------------
  free energy    TOTEN  =      -274.33102600 eV

  energy without entropy =     -274.33043365  energy(sigma->0) =     -274.33072983


--------------------------------------------------------------------------------------------------------




--------------------------------------- Iteration      1(  15)  ---------------------------------------


    POTLOK:  cpu time    0.0589: real time    0.0590
    SETDIJ:  cpu time    0.0073: real time    0.0073
     EDDAV:  cpu time   53.6338: real time   53.7609
    CHARGE:  cpu time    1.7335: real time    1.7376
    MIXING:  cpu time    0.0030: real time    0.0030
    --------------------------------------------
      LOOP:  cpu time   55.4365: real time   55.5678

 eigenvalue-minimisations  : 23584
 total energy-change (2. order) : 0.5873728E+00  (-0.1238063E+00)
 number of electron     352.0000006 magnetization 
 augmentation part      115.1907399 magnetization 

 Broyden mixing:
  rms(total) = 0.85934E+00    rms(broyden)= 0.85917E+00
  rms(prec ) = 0.11498E+01
  weight for this iteration     100.00

 eigenvalues of (default mixing * dielectric matrix)
  average eigenvalue GAMMA=   0.5790
  2.0800  0.9221  0.9221  0.3934  0.3934  0.3638  0.1408  0.1408  0.2491  0.1847

 Free energy of the ion-electron system (eV)
  ---------------------------------------------------
  alpha Z        PSCENC =      1125.84681573
  Ewald energy   TEWEN  =    -20184.77215395
  -Hartree energ DENC   =    -11404.42668536
  -exchange      EXHF   =         0.00000000
  -V(xc)+E(xc)   XCENC  =      1411.89588943
  PAW double counting   =     36891.28791016   -38083.18480550
  entropy T*S    EENTRO =        -0.00175821
  eigenvalues    EBANDS =     -1044.06121937
  atomic energy  EATOM  =     31013.67235384
  Solvation  Ediel_sol  =         0.00000000
  ---------------------------------------------------
  free energy    TOTEN  =      -273.74365324 eV

  energy without entropy =     -273.74189503  energy(sigma->0) =     -273.74277413


--------------------------------------------------------------------------------------------------------




--------------------------------------- Iteration      1(  16)  ---------------------------------------


    POTLOK:  cpu time    0.0643: real time    0.0644
    SETDIJ:  cpu time    0.0072: real time    0.0073
     EDDAV:  cpu time   54.8465: real time   54.9765
    CHARGE:  cpu time    1.7050: real time    1.7091
    MIXING:  cpu time    0.0033: real time    0.0033
    --------------------------------------------
      LOOP:  cpu time   56.6264: real time   56.7605

 eigenvalue-minimisations  : 24192
 total energy-change (2. order) : 0.1691032E+00  (-0.7458133E-01)
 number of electron     352.0000006 magnetization 
 augmentation part      115.6441689 magnetization 

 Broyden mixing:
  rms(total) = 0.61218E+00    rms(broyden)= 0.61200E+00
  rms(prec ) = 0.89822E+00
  weight for this iteration     100.00

 eigenvalues of (default mixing * dielectric matrix)
  average eigenvalue GAMMA=   0.5972
  2.1872  1.0078  1.0078  0.5866  0.3849  0.3849  0.3317  0.1409  0.1409  0.1888
  0.2073

 Free energy of the ion-electron system (eV)
  ---------------------------------------------------
  alpha Z        PSCENC =      1125.84681573
  Ewald energy   TEWEN  =    -20184.77215395
  -Hartree energ DENC   =    -11404.80014611
  -exchange      EXHF   =         0.00000000
  -V(xc)+E(xc)   XCENC  =      1412.21752282
  PAW double counting   =     37341.53334052   -38534.91100006
  entropy T*S    EENTRO =        -0.00332891
  eigenvalues    EBANDS =     -1042.35795389
  atomic energy  EATOM  =     31013.67235384
  Solvation  Ediel_sol  =         0.00000000
  ---------------------------------------------------
  free energy    TOTEN  =      -273.57455002 eV

  energy without entropy =     -273.57122110  energy(sigma->0) =     -273.57288556


--------------------------------------------------------------------------------------------------------




--------------------------------------- Iteration      1(  17)  ---------------------------------------


    POTLOK:  cpu time    0.0630: real time    0.0632
    SETDIJ:  cpu time    0.0074: real time    0.0074
     EDDAV:  cpu time   55.3180: real time   55.4492
    CHARGE:  cpu time    1.7077: real time    1.7118
    MIXING:  cpu time    0.0031: real time    0.0031
    --------------------------------------------
      LOOP:  cpu time   57.0992: real time   57.2346

 eigenvalue-minimisations  : 24400
 total energy-change (2. order) : 0.1029368E+00  (-0.4507767E-01)
 number of electron     352.0000006 magnetization 
 augmentation part      115.5705881 magnetization 

 Broyden mixing:
  rms(total) = 0.47155E+00    rms(broyden)= 0.47142E+00
  rms(prec ) = 0.68714E+00
  weight for this iteration     100.00

 eigenvalues of (default mixing * dielectric matrix)
  average eigenvalue GAMMA=   0.6067
  2.3185  1.2761  0.8060  0.8060  0.3957  0.3957  0.3724  0.1408  0.1408  0.1837
  0.2220  0.2220

 Free energy of the ion-electron system (eV)
  ---------------------------------------------------
  alpha Z        PSCENC =      1125.84681573
  Ewald energy   TEWEN  =    -20184.77215395
  -Hartree energ DENC   =    -11410.34300881
  -exchange      EXHF   =         0.00000000
  -V(xc)+E(xc)   XCENC  =      1412.46210980
  PAW double counting   =     37500.57224431   -38694.33000359
  entropy T*S    EENTRO =        -0.00680264
  eigenvalues    EBANDS =     -1036.57316788
  atomic energy  EATOM  =     31013.67235384
  Solvation  Ediel_sol  =         0.00000000
  ---------------------------------------------------
  free energy    TOTEN  =      -273.47161319 eV

  energy without entropy =     -273.46481055  energy(sigma->0) =     -273.46821187


--------------------------------------------------------------------------------------------------------




--------------------------------------- Iteration      1(  18)  ---------------------------------------


    POTLOK:  cpu time    0.0633: real time    0.0635
    SETDIJ:  cpu time    0.0072: real time    0.0073
     EDDAV:  cpu time   55.2598: real time   55.3907
    CHARGE:  cpu time    1.7218: real time    1.7259
    MIXING:  cpu time    0.0032: real time    0.0032
    --------------------------------------------
      LOOP:  cpu time   57.0554: real time   57.1906

 eigenvalue-minimisations  : 24576
 total energy-change (2. order) : 0.1032294E+00  (-0.2042026E-01)
 number of electron     352.0000006 magnetization 
 augmentation part      115.4510741 magnetization 

 Broyden mixing:
  rms(total) = 0.26022E+00    rms(broyden)= 0.26009E+00
  rms(prec ) = 0.37325E+00
  weight for this iteration     100.00

 eigenvalues of (default mixing * dielectric matrix)
  average eigenvalue GAMMA=   0.6114
  2.3865  1.4702  0.7316  0.7316  0.6063  0.3982  0.3982  0.3216  0.1409  0.1409
  0.2411  0.1907  0.1907

 Free energy of the ion-electron system (eV)
  ---------------------------------------------------
  alpha Z        PSCENC =      1125.84681573
  Ewald energy   TEWEN  =    -20184.77215395
  -Hartree energ DENC   =    -11415.11191757
  -exchange      EXHF   =         0.00000000
  -V(xc)+E(xc)   XCENC  =      1412.59485516
  PAW double counting   =     37591.16791911   -38784.76292492
  entropy T*S    EENTRO =        -0.00633818
  eigenvalues    EBANDS =     -1031.99699306
  atomic energy  EATOM  =     31013.67235384
  Solvation  Ediel_sol  =         0.00000000
  ---------------------------------------------------
  free energy    TOTEN  =      -273.36838384 eV

  energy without entropy =     -273.36204566  energy(sigma->0) =     -273.36521475


--------------------------------------------------------------------------------------------------------




--------------------------------------- Iteration      1(  19)  ---------------------------------------


    POTLOK:  cpu time    0.0656: real time    0.0657
    SETDIJ:  cpu time    0.0075: real time    0.0075
     EDDAV:  cpu time   54.4308: real time   54.5599
    CHARGE:  cpu time    1.7258: real time    1.7299
    MIXING:  cpu time    0.0033: real time    0.0033
    --------------------------------------------
      LOOP:  cpu time   56.2329: real time   56.3663

 eigenvalue-minimisations  : 24160
 total energy-change (2. order) : 0.2377071E-01  (-0.8001996E-02)
 number of electron     352.0000006 magnetization 
 augmentation part      115.4485651 magnetization 

 Broyden mixing:
  rms(total) = 0.18780E+00    rms(broyden)= 0.18775E+00
  rms(prec ) = 0.25106E+00
  weight for this iteration     100.00

 eigenvalues of (default mixing * dielectric matrix)
  average eigenvalue GAMMA=   0.6075
  2.3969  1.3855  0.9580  0.7074  0.7074  0.3982  0.3982  0.3348  0.3348  0.1409
  0.1409  0.2237  0.1846  0.1937

 Free energy of the ion-electron system (eV)
  ---------------------------------------------------
  alpha Z        PSCENC =      1125.84681573
  Ewald energy   TEWEN  =    -20184.77215395
  -Hartree energ DENC   =    -11415.83025961
  -exchange      EXHF   =         0.00000000
  -V(xc)+E(xc)   XCENC  =      1412.58293324
  PAW double counting   =     37636.34910347   -38829.29995536
  entropy T*S    EENTRO =        -0.00471826
  eigenvalues    EBANDS =     -1031.88873222
  atomic energy  EATOM  =     31013.67235384
  Solvation  Ediel_sol  =         0.00000000
  ---------------------------------------------------
  free energy    TOTEN  =      -273.34461312 eV

  energy without entropy =     -273.33989487  energy(sigma->0) =     -273.34225399


--------------------------------------------------------------------------------------------------------




--------------------------------------- Iteration      1(  20)  ---------------------------------------


    POTLOK:  cpu time    0.0623: real time    0.0625
    SETDIJ:  cpu time    0.0075: real time    0.0075
     EDDAV:  cpu time   52.7618: real time   52.8868
    CHARGE:  cpu time    1.7114: real time    1.7154
    MIXING:  cpu time    0.0035: real time    0.0035
    --------------------------------------------
      LOOP:  cpu time   54.5465: real time   54.6757

 eigenvalue-minimisations  : 23360
 total energy-change (2. order) : 0.4842431E-02  (-0.4523373E-02)
 number of electron     352.0000006 magnetization 
 augmentation part      115.5114365 magnetization 

 Broyden mixing:
  rms(total) = 0.16005E+00    rms(broyden)= 0.16003E+00
  rms(prec ) = 0.21026E+00
  weight for this iteration     100.00

 eigenvalues of (default mixing * dielectric matrix)
  average eigenvalue GAMMA=   0.6173
  2.3831  1.2807  1.2807  0.7860  0.7860  0.4760  0.3898  0.3898  0.3623  0.1409
  0.1409  0.2451  0.2243  0.1873  0.1873

 Free energy of the ion-electron system (eV)
  ---------------------------------------------------
  alpha Z        PSCENC =      1125.84681573
  Ewald energy   TEWEN  =    -20184.77215395
  -Hartree energ DENC   =    -11414.77970237
  -exchange      EXHF   =         0.00000000
  -V(xc)+E(xc)   XCENC  =      1412.54462454
  PAW double counting   =     37646.18999090   -38838.68467618
  entropy T*S    EENTRO =        -0.00567110
  eigenvalues    EBANDS =     -1033.35135211
  atomic energy  EATOM  =     31013.67235384
  Solvation  Ediel_sol  =         0.00000000
  ---------------------------------------------------
  free energy    TOTEN  =      -273.33977069 eV

  energy without entropy =     -273.33409959  energy(sigma->0) =     -273.33693514


--------------------------------------------------------------------------------------------------------




--------------------------------------- Iteration      1(  21)  ---------------------------------------


    POTLOK:  cpu time    0.0625: real time    0.0627
    SETDIJ:  cpu time    0.0073: real time    0.0074
     EDDAV:  cpu time   48.7367: real time   48.8523
    CHARGE:  cpu time    1.7258: real time    1.7299
    MIXING:  cpu time    0.0036: real time    0.0036
    --------------------------------------------
      LOOP:  cpu time   50.5359: real time   50.6558

 eigenvalue-minimisations  : 21088
 total energy-change (2. order) : 0.1791662E-02  (-0.1538668E-02)
 number of electron     352.0000006 magnetization 
 augmentation part      115.5438845 magnetization 

 Broyden mixing:
  rms(total) = 0.14143E+00    rms(broyden)= 0.14142E+00
  rms(prec ) = 0.18951E+00
  weight for this iteration     100.00

 eigenvalues of (default mixing * dielectric matrix)
  average eigenvalue GAMMA=   0.6320
  2.2976  1.4336  1.4336  0.8342  0.8342  0.6935  0.3970  0.3970  0.3881  0.2999
  0.1409  0.1409  0.2379  0.2104  0.1852  0.1885

 Free energy of the ion-electron system (eV)
  ---------------------------------------------------
  alpha Z        PSCENC =      1125.84681573
  Ewald energy   TEWEN  =    -20184.77215395
  -Hartree energ DENC   =    -11413.92404344
  -exchange      EXHF   =         0.00000000
  -V(xc)+E(xc)   XCENC  =      1412.51069332
  PAW double counting   =     37647.74730678   -38839.88040908
  entropy T*S    EENTRO =        -0.00495797
  eigenvalues    EBANDS =     -1034.53358426
  atomic energy  EATOM  =     31013.67235384
  Solvation  Ediel_sol  =         0.00000000
  ---------------------------------------------------
  free energy    TOTEN  =      -273.33797903 eV

  energy without entropy =     -273.33302106  energy(sigma->0) =     -273.33550004


--------------------------------------------------------------------------------------------------------




--------------------------------------- Iteration      1(  22)  ---------------------------------------


    POTLOK:  cpu time    0.0596: real time    0.0597
    SETDIJ:  cpu time    0.0073: real time    0.0073
     EDDAV:  cpu time   41.8520: real time   41.9511
    CHARGE:  cpu time    1.7196: real time    1.7236
    MIXING:  cpu time    0.0037: real time    0.0037
    --------------------------------------------
      LOOP:  cpu time   43.6421: real time   43.7455

 eigenvalue-minimisations  : 17376
 total energy-change (2. order) : 0.2094061E-02  (-0.6072503E-03)
 number of electron     352.0000006 magnetization 
 augmentation part      115.5363304 magnetization 

 Broyden mixing:
  rms(total) = 0.12373E+00    rms(broyden)= 0.12372E+00
  rms(prec ) = 0.17051E+00
  weight for this iteration     100.00

 eigenvalues of (default mixing * dielectric matrix)
  average eigenvalue GAMMA=   0.6554
  2.1594  1.7486  1.7486  0.9809  0.7914  0.7914  0.4467  0.3972  0.3972  0.3142
  0.2860  0.1409  0.1409  0.2259  0.2032  0.1848  0.1848

 Free energy of the ion-electron system (eV)
  ---------------------------------------------------
  alpha Z        PSCENC =      1125.84681573
  Ewald energy   TEWEN  =    -20184.77215395
  -Hartree energ DENC   =    -11413.60778725
  -exchange      EXHF   =         0.00000000
  -V(xc)+E(xc)   XCENC  =      1412.48750934
  PAW double counting   =     37642.62262113   -38834.52060212
  entropy T*S    EENTRO =        -0.00603239
  eigenvalues    EBANDS =     -1035.05860930
  atomic energy  EATOM  =     31013.67235384
  Solvation  Ediel_sol  =         0.00000000
  ---------------------------------------------------
  free energy    TOTEN  =      -273.33588497 eV

  energy without entropy =     -273.32985258  energy(sigma->0) =     -273.33286877


--------------------------------------------------------------------------------------------------------




--------------------------------------- Iteration      1(  23)  ---------------------------------------


    POTLOK:  cpu time    0.0630: real time    0.0631
    SETDIJ:  cpu time    0.0073: real time    0.0073
     EDDAV:  cpu time   51.8786: real time   52.0015
    CHARGE:  cpu time    1.7289: real time    1.7331
    MIXING:  cpu time    0.0040: real time    0.0040
    --------------------------------------------
      LOOP:  cpu time   53.6818: real time   53.8091

 eigenvalue-minimisations  : 22720
 total energy-change (2. order) : 0.3259602E-02  (-0.4443775E-03)
 number of electron     352.0000006 magnetization 
 augmentation part      115.5193408 magnetization 

 Broyden mixing:
  rms(total) = 0.92623E-01    rms(broyden)= 0.92611E-01
  rms(prec ) = 0.13290E+00
  weight for this iteration     100.00

 eigenvalues of (default mixing * dielectric matrix)
  average eigenvalue GAMMA=   0.6833
  2.3336  2.3336  1.5027  1.2272  0.7780  0.7780  0.5431  0.3954  0.3954  0.3458
  0.3458  0.1409  0.1409  0.2502  0.2254  0.1946  0.1863  0.1820

 Free energy of the ion-electron system (eV)
  ---------------------------------------------------
  alpha Z        PSCENC =      1125.84681573
  Ewald energy   TEWEN  =    -20184.77215395
  -Hartree energ DENC   =    -11413.53739731
  -exchange      EXHF   =         0.00000000
  -V(xc)+E(xc)   XCENC  =      1412.46768145
  PAW double counting   =     37642.33313005   -38834.06906597
  entropy T*S    EENTRO =        -0.00481241
  eigenvalues    EBANDS =     -1035.26917680
  atomic energy  EATOM  =     31013.67235384
  Solvation  Ediel_sol  =         0.00000000
  ---------------------------------------------------
  free energy    TOTEN  =      -273.33262537 eV

  energy without entropy =     -273.32781296  energy(sigma->0) =     -273.33021916


--------------------------------------------------------------------------------------------------------




--------------------------------------- Iteration      1(  24)  ---------------------------------------


    POTLOK:  cpu time    0.0638: real time    0.0639
    SETDIJ:  cpu time    0.0072: real time    0.0072
     EDDAV:  cpu time   54.4938: real time   54.6230
    CHARGE:  cpu time    1.7319: real time    1.7361
    MIXING:  cpu time    0.0042: real time    0.0042
    --------------------------------------------
      LOOP:  cpu time   56.3009: real time   56.4344

 eigenvalue-minimisations  : 24224
 total energy-change (2. order) : 0.2959800E-02  (-0.3786030E-03)
 number of electron     352.0000006 magnetization 
 augmentation part      115.5051372 magnetization 

 Broyden mixing:
  rms(total) = 0.60210E-01    rms(broyden)= 0.60195E-01
  rms(prec ) = 0.88134E-01
  weight for this iteration     100.00

 eigenvalues of (default mixing * dielectric matrix)
  average eigenvalue GAMMA=   0.6880
  2.5442  2.5442  1.4425  1.2469  0.7788  0.7788  0.6217  0.3962  0.3962  0.3811
  0.3551  0.2944  0.1409  0.1409  0.2337  0.2179  0.1919  0.1855  0.1810

 Free energy of the ion-electron system (eV)
  ---------------------------------------------------
  alpha Z        PSCENC =      1125.84681573
  Ewald energy   TEWEN  =    -20184.77215395
  -Hartree energ DENC   =    -11413.67771443
  -exchange      EXHF   =         0.00000000
  -V(xc)+E(xc)   XCENC  =      1412.45609488
  PAW double counting   =     37645.20989491   -38836.82486416
  entropy T*S    EENTRO =        -0.00551326
  eigenvalues    EBANDS =     -1035.23457914
  atomic energy  EATOM  =     31013.67235384
  Solvation  Ediel_sol  =         0.00000000
  ---------------------------------------------------
  free energy    TOTEN  =      -273.32966557 eV

  energy without entropy =     -273.32415231  energy(sigma->0) =     -273.32690894


--------------------------------------------------------------------------------------------------------




--------------------------------------- Iteration      1(  25)  ---------------------------------------


    POTLOK:  cpu time    0.0619: real time    0.0620
    SETDIJ:  cpu time    0.0071: real time    0.0071
     EDDAV:  cpu time   54.4781: real time   54.6072
    CHARGE:  cpu time    1.7251: real time    1.7292
    MIXING:  cpu time    0.0039: real time    0.0039
    --------------------------------------------
      LOOP:  cpu time   56.2762: real time   56.4095

 eigenvalue-minimisations  : 24160
 total energy-change (2. order) : 0.1418560E-02  (-0.2247608E-03)
 number of electron     352.0000006 magnetization 
 augmentation part      115.4991243 magnetization 

 Broyden mixing:
  rms(total) = 0.40029E-01    rms(broyden)= 0.40020E-01
  rms(prec ) = 0.57253E-01
  weight for this iteration     100.00

 eigenvalues of (default mixing * dielectric matrix)
  average eigenvalue GAMMA=   0.6789
  2.5401  2.5401  1.7091  1.0045  0.7770  0.7770  0.7591  0.3979  0.3979  0.4086
  0.4086  0.2987  0.1409  0.1409  0.2659  0.2258  0.2258  0.1919  0.1865  0.1807

 Free energy of the ion-electron system (eV)
  ---------------------------------------------------
  alpha Z        PSCENC =      1125.84681573
  Ewald energy   TEWEN  =    -20184.77215395
  -Hartree energ DENC   =    -11413.75843953
[...]
 total augmentation occupancy for first ion, spin component:           1
  8.622   0.037  -0.702  -0.547   0.351  -5.785  -0.060   0.679   0.487  -0.087  -0.511   0.174   0.076  -0.054   0.215  -0.053
  0.037   9.876  -0.172   0.236  -0.296  -0.055  -7.026   0.099  -0.301  -0.219   0.713  -0.067  -0.329   0.053  -0.099   0.032
 -0.702  -0.172   5.625   0.154   0.071   0.672   0.065  -5.898   0.020  -0.189  -0.018  -0.060  -0.524   0.902  -0.507   0.125
 -0.547   0.236   0.154   8.552   0.604   0.489  -0.298   0.015  -5.701  -0.721  -0.370   0.123  -0.064  -0.106   0.212   0.011
  0.351  -0.296   0.071   0.604   6.349  -0.087  -0.161  -0.193  -0.704  -6.565   0.399  -0.085  -0.892   0.157   0.766   0.189
 -5.785  -0.055   0.672   0.489  -0.087   4.953   0.076  -0.662  -0.434  -0.112   0.493  -0.164  -0.080   0.049  -0.194   0.036
 -0.060  -7.026   0.065  -0.298  -0.161   0.076   6.176  -0.005   0.355   0.576  -0.728   0.099   0.352  -0.050   0.082  -0.051
  0.679   0.099  -5.898   0.015  -0.193  -0.662  -0.005   7.466  -0.152   0.316   0.037   0.044   0.607  -1.030   0.573  -0.130
  0.487  -0.301   0.020  -5.701  -0.704  -0.434   0.355  -0.152   4.850   0.797   0.352  -0.120   0.060   0.113  -0.210  -0.010
 -0.087  -0.219  -0.189  -0.721  -6.565  -0.112   0.576   0.316   0.797   8.090  -0.468   0.100   1.031  -0.188  -0.848  -0.200
 -0.511   0.713  -0.018  -0.370   0.399   0.493  -0.728   0.037   0.352  -0.468   3.514  -0.794  -0.420  -0.294  -0.319   0.089
  0.174  -0.067  -0.060   0.123  -0.085  -0.164   0.099   0.044  -0.120   0.100  -0.794   0.247   0.110   0.074   0.089  -0.031
  0.076  -0.329  -0.524  -0.064  -0.892  -0.080   0.352   0.607   0.060   1.031  -0.420   0.110   0.655  -0.049   0.043  -0.113
 -0.054   0.053   0.902  -0.106   0.157   0.049  -0.050  -1.030   0.113  -0.188  -0.294   0.074  -0.049   0.639   0.033   0.010
  0.215  -0.099  -0.507   0.212   0.766  -0.194   0.082   0.573  -0.210  -0.848  -0.319   0.089   0.043   0.033   0.570  -0.010
 -0.053   0.032   0.125   0.011   0.189   0.036  -0.051  -0.130  -0.010  -0.200   0.089  -0.031  -0.113   0.010  -0.010   0.028
  0.013  -0.029  -0.196  -0.031  -0.045  -0.012   0.016   0.209   0.009   0.049   0.062  -0.022   0.010  -0.108  -0.008  -0.003
 -0.054   0.011   0.103  -0.058  -0.155   0.040  -0.010  -0.111   0.047   0.165   0.071  -0.025  -0.010  -0.008  -0.101   0.003


------------------------ aborting loop because EDIFF is reached ----------------------------------------


    CHARGE:  cpu time    1.7210: real time    1.7251
    FORLOC:  cpu time    0.0244: real time    0.0260
    FORNL :  cpu time   12.0126: real time   12.0411
    STRESS:  cpu time   36.0062: real time   36.0925
    FORCOR:  cpu time    0.0807: real time    0.0809
    FORHAR:  cpu time    0.0369: real time    0.0369
    MIXING:  cpu time    0.0050: real time    0.0050
    OFIELD:  cpu time    0.0001: real time    0.0001

  FORCE on cell =-STRESS in cart. coord.  units (eV):
  Direction    XX          YY          ZZ          XY          YZ          ZX
  --------------------------------------------------------------------------------------
  Alpha Z  1125.84682  1125.84682  1125.84682
  Ewald   -6291.69155 -6986.34112 -6906.85794  -419.54507   157.09277  -154.98067
  Hartree  3994.24795  3695.12002  3725.02215  -271.10949   153.14108  -122.72451
  E(xc)   -1804.59271 -1803.95825 -1804.05523    -0.00328     0.12340    -0.14010
  Local   -4614.95334 -3657.26694 -3771.75231   670.32154  -319.37598   278.37129
  n-local  -719.30059  -736.37355  -739.04291    -3.08814    -2.18608     0.64678
  augment  2974.02634  2992.03341  2995.52929     9.31597     3.97922    -0.56820
  Kinetic  5420.09592  5425.68665  5433.26121     7.03207     3.53018     4.30137
  Fock        0.00000     0.00000     0.00000     0.00000     0.00000     0.00000
  -------------------------------------------------------------------------------------
  Total       83.6788253     54.7470337     57.9510752     -7.0763916     -3.6954218      4.9059746
  in kB      275.3921996    180.1758805    190.7205795    -23.2888432    -12.1618623     16.1458665
  external PRESSURE =     215.4295532 kB  Pullay stress =       0.0000000 kB


 VOLUME and BASIS-vectors are now :
 -----------------------------------------------------------------------------
  energy-cutoff  :      500.00
  volume of cell :      486.83
      direct lattice vectors                 reciprocal lattice vectors
     7.866680420  0.000000000  0.000000000     0.127118422  0.000000000  0.000000000
     0.000000000  7.866680420  0.000000000     0.000000000  0.127118422  0.000000000
     0.000000000  0.000000000  7.866680420     0.000000000  0.000000000  0.127118422

  length of vectors
     7.866680420  7.866680420  7.866680420     0.127118422  0.127118422  0.127118422


 FORCES acting on ions
    electron-ion (+dipol)            ewald-force                    non-local-force                 convergence-correction
 -----------------------------------------------------------------------------------------------
   -.126E+03 -.129E+03 -.856E+02   0.132E+03 0.134E+03 0.902E+02   -.649E+00 0.190E+00 0.390E+00   0.120E-01 0.223E-01 -.579E-02
   -.155E+03 -.964E+02 0.143E+03   0.163E+03 0.101E+03 -.148E+03   -.695E+00 0.113E+00 0.288E+01   0.629E-01 0.643E-01 -.353E-01
   -.217E+02 0.134E+03 -.139E+03   0.228E+02 -.142E+03 0.148E+03   -.139E+01 -.762E+00 -.124E+01   0.430E-01 0.671E-02 0.512E-01
   -.432E+02 -.407E+02 -.127E+03   0.417E+02 0.420E+02 0.131E+03   0.791E+00 0.351E+00 0.922E+00   -.814E-02 0.461E-01 0.479E-01
   -.920E+02 -.313E+02 -.417E+02   0.966E+02 0.337E+02 0.423E+02   -.807E+00 -.110E+01 -.150E+01   0.172E-03 -.250E-01 0.103E-01
   -.109E+02 -.881E+02 0.634E+02   0.123E+02 0.928E+02 -.650E+02   -.213E+01 -.874E-01 0.112E+01   0.324E-01 -.799E-02 0.179E-01
   -.128E+03 0.830E+02 -.682E+02   0.129E+03 -.883E+02 0.709E+02   -.138E+01 0.223E+00 -.228E+01   0.399E-01 -.264E-01 -.199E-02
   0.548E+02 -.543E+02 -.685E+02   -.603E+02 0.546E+02 0.716E+02   0.264E+01 -.596E+00 0.416E+00   0.197E-01 -.543E-01 -.401E-01
   -.223E+02 -.848E+02 -.130E+03   0.241E+02 0.848E+02 0.138E+03   -.668E+00 -.537E+00 0.867E-01   0.125E-02 0.159E-01 0.249E-01
   0.224E+03 0.265E+03 -.815E+02   -.243E+03 -.273E+03 0.851E+02   0.216E+01 0.353E+01 -.118E+01   -.231E-01 0.889E-02 0.224E-01
   0.508E+02 -.448E+02 0.222E+03   -.538E+02 0.467E+02 -.232E+03   0.166E+01 0.937E+00 0.234E+01   -.654E-01 0.364E-01 -.741E-01
   0.104E+03 -.221E+02 -.109E+03   -.106E+03 0.261E+02 0.123E+03   0.883E+00 0.662E+00 -.134E+01   -.836E-02 0.355E-01 -.108E-01
   0.167E+03 0.679E+02 0.119E+03   -.172E+03 -.716E+02 -.125E+03   -.464E+00 -.116E+00 0.388E+01   -.875E-02 -.422E-01 -.375E-01
   0.925E+02 0.541E+02 -.922E+02   -.976E+02 -.585E+02 0.940E+02   0.424E+00 0.577E+00 -.164E+01   -.552E-01 -.705E-01 -.216E-03
   -.183E+02 0.269E+01 0.117E+03   0.234E+02 -.174E+01 -.123E+03   -.101E+01 -.146E+00 0.373E+00   -.173E-01 -.249E-01 0.305E-02
   0.363E+02 -.120E+03 -.605E+02   -.344E+02 0.141E+03 0.617E+02   0.106E+01 -.268E+01 -.167E+01   -.501E-02 -.235E-01 0.178E-01
   -.250E+03 0.153E+03 0.199E+03   0.273E+03 -.165E+03 -.214E+03   -.201E+02 0.139E+02 0.173E+02   -.460E-01 -.338E-01 -.943E-02
   -.195E+03 -.293E+03 -.272E+03   0.210E+03 0.321E+03 0.291E+03   -.164E+02 -.218E+02 -.181E+02   0.166E-01 0.269E-01 0.185E-01
   0.133E+03 -.126E+03 -.156E+03   -.144E+03 0.133E+03 0.170E+03   0.135E+02 -.851E+01 -.155E+02   0.316E-01 -.770E-02 -.241E-01
   -.237E+03 -.233E+03 0.186E+03   0.250E+03 0.249E+03 -.200E+03   -.125E+02 -.159E+02 0.140E+02   -.814E-03 -.917E-02 0.114E-01
   0.336E+03 0.826E+02 0.154E+03   -.365E+03 -.848E+02 -.170E+03   0.212E+02 0.356E+01 0.171E+02   0.181E-02 -.154E-01 0.128E-01
   -.256E+03 0.257E+03 -.206E+03   0.279E+03 -.280E+03 0.221E+03   -.203E+02 0.188E+02 -.166E+02   0.248E-01 -.704E-01 0.866E-02
   0.219E+03 0.378E+03 -.176E+03   -.234E+03 -.423E+03 0.189E+03   0.155E+02 0.273E+02 -.143E+02   0.230E-02 -.306E-01 -.133E-01
   0.235E+03 -.184E+03 0.269E+03   -.257E+03 0.199E+03 -.291E+03   0.180E+02 -.164E+02 0.199E+02   0.617E-02 0.565E-01 -.135E-03
   -.243E+03 0.162E+03 0.130E+03   0.260E+03 -.175E+03 -.140E+03   -.154E+02 0.152E+02 0.105E+02   -.273E-01 0.151E-01 -.737E-03
   -.260E+03 -.247E+03 -.192E+03   0.281E+03 0.268E+03 0.204E+03   -.152E+02 -.181E+02 -.104E+02   0.288E-01 -.369E-01 -.108E-01
   0.273E+03 -.171E+03 -.209E+03   -.294E+03 0.182E+03 0.223E+03   0.186E+02 -.114E+02 -.147E+02   0.274E-01 0.408E-02 0.160E-01
   -.234E+03 -.205E+03 0.297E+03   0.250E+03 0.220E+03 -.318E+03   -.164E+02 -.176E+02 0.194E+02   0.907E-02 0.172E-01 -.710E-01
   0.176E+03 0.126E+03 0.236E+03   -.189E+03 -.133E+03 -.255E+03   0.114E+02 0.768E+01 0.170E+02   0.352E-01 0.308E-01 -.202E-01
   -.358E+03 0.254E+03 -.207E+03   0.398E+03 -.270E+03 0.219E+03   -.225E+02 0.151E+02 -.119E+02   -.109E-01 0.996E-02 0.773E-02
   0.224E+03 0.257E+03 -.135E+03   -.242E+03 -.279E+03 0.145E+03   0.179E+02 0.190E+02 -.109E+02   -.118E-01 0.289E-01 -.262E-01
   0.207E+03 -.237E+03 0.265E+03   -.222E+03 0.252E+03 -.287E+03   0.126E+02 -.141E+02 0.171E+02   0.892E-02 -.140E-01 -.234E-02
   -.189E+03 0.284E+03 0.170E+03   0.203E+03 -.307E+03 -.181E+03   -.125E+02 0.190E+02 0.120E+02   0.130E-01 -.804E-02 0.232E-01
   -.226E+03 -.148E+03 -.131E+03   0.241E+03 0.160E+03 0.141E+03   -.152E+02 -.146E+02 -.110E+02   -.349E-01 0.209E-01 -.154E-01
   0.217E+03 -.230E+03 -.266E+03   -.236E+03 0.249E+03 0.289E+03   0.155E+02 -.160E+02 -.180E+02   -.758E-02 -.148E-01 0.934E-02
   -.123E+03 -.209E+03 0.164E+03   0.136E+03 0.221E+03 -.175E+03   -.148E+02 -.103E+02 0.122E+02   -.123E-01 -.154E-01 0.126E-01
   0.227E+03 0.224E+03 0.216E+03   -.246E+03 -.244E+03 -.228E+03   0.172E+02 0.198E+02 0.131E+02   -.212E-01 -.282E-01 -.377E-01
   -.201E+03 0.135E+03 -.279E+03   0.219E+03 -.142E+03 0.298E+03   -.181E+02 0.597E+01 -.179E+02   -.521E-02 0.752E-02 0.212E-01
   0.177E+03 0.223E+03 -.200E+03   -.190E+03 -.238E+03 0.216E+03   0.132E+02 0.157E+02 -.158E+02   0.158E-01 -.133E-01 -.847E-02
   0.172E+03 -.187E+03 0.287E+03   -.183E+03 0.204E+03 -.317E+03   0.109E+02 -.175E+02 0.186E+02   0.116E-02 -.968E-03 0.245E-01
   -.130E+03 0.256E+03 0.294E+03   0.137E+03 -.278E+03 -.321E+03   -.839E+01 0.217E+02 0.205E+02   0.481E-01 0.329E-02 -.949E-02
   -.250E+03 -.256E+03 -.182E+03   0.266E+03 0.275E+03 0.198E+03   -.148E+02 -.183E+02 -.164E+02   -.824E-02 -.204E-01 0.310E-01
   0.246E+03 -.231E+03 -.253E+03   -.267E+03 0.252E+03 0.276E+03   0.203E+02 -.201E+02 -.181E+02   -.676E-01 0.357E-01 -.132E-01
   -.224E+03 -.138E+03 0.273E+03   0.243E+03 0.140E+03 -.303E+03   -.189E+02 -.183E+01 0.225E+02   0.603E-02 0.137E-01 0.358E-01
   0.220E+03 0.233E+03 0.209E+03   -.236E+03 -.250E+03 -.227E+03   0.147E+02 0.157E+02 0.181E+02   -.160E-01 0.204E-01 0.178E-01
   -.140E+03 0.148E+03 -.168E+03   0.151E+03 -.160E+03 0.177E+03   -.119E+02 0.115E+02 -.904E+01   0.579E-02 0.383E-01 -.232E-01
   0.177E+03 0.249E+03 -.243E+03   -.187E+03 -.267E+03 0.256E+03   0.108E+02 0.172E+02 -.150E+02   0.470E-03 0.159E-01 0.555E-01
   0.169E+03 -.225E+03 0.235E+03   -.183E+03 0.245E+03 -.247E+03   0.162E+02 -.196E+02 0.119E+02   -.202E-01 -.440E-01 -.177E-01
 -----------------------------------------------------------------------------------------------
   0.533E+01 -.555E+01 -.290E+02   -.142E-12 -.284E-12 0.227E-12   -.535E+01 0.561E+01 0.290E+02   0.133E-01 -.567E-01 -.787E-02
 
 
 POSITION                                       TOTAL-FORCE (eV/Angst)
 -----------------------------------------------------------------------------------
      0.75657      4.86704      0.89141         4.988577      5.900402      5.045710
      2.83911      6.71275      1.07997         7.082509      4.677004     -2.384725
      3.08787      5.05701      2.85376        -0.178713     -8.797570      7.528607
      1.07003      6.88970      2.80822        -0.719625      1.604553      4.373035
      0.90220      0.96339      4.97277         3.770953      1.260725     -0.835953
      2.99005      2.84805      4.92492        -0.637096      4.592329     -0.488503
      2.95223      1.14120      7.02312        -0.401067     -5.087597      0.432699
      0.94250      2.95675      6.91045        -2.776895     -0.283376      3.430071
      4.87160      4.98307      4.75217         1.134630     -0.548256      8.861394
      7.00126      6.91799      4.72500       -17.236870     -5.180824      2.478201
      6.84290      4.81866      7.01291        -1.425969      2.830914     -7.459032
      4.96817      6.73358      6.80149        -0.378780      4.771836     12.636723
      4.96886      1.13532      1.07429        -5.126181     -3.841263     -2.110506
      6.88201      3.10823      1.11879        -4.733038     -3.920835      0.132565
      6.79603      0.94004      3.00435         4.070211      0.779009     -5.887461
      4.84620      2.58801      3.06788         2.974202     18.652390     -0.427528
      6.63880      1.07141      0.95183         2.815153      1.658400      2.066303
      2.94408      6.65734      2.86147        -1.084640      6.158710      1.333856
      2.78034      1.09042      1.09265         2.544655     -1.394459     -1.456372
      0.82761      0.91461      3.04655         0.822258      0.183140     -0.058900
      3.33738      2.99894      2.88422        -7.783245      1.339145      1.439532
      0.70732      3.23171      1.18350         2.244153     -3.587507     -1.181692
      5.07927      1.17032      3.06800        -0.000538    -17.310837     -1.119292
      1.20232      6.88094      1.11551        -4.011258     -1.382737     -2.450222
      6.62893      4.90975      5.01754         1.959948      1.699443      0.674220
      2.56075      2.79560      6.76173         6.461604      2.606318      1.594372
      3.13709      4.79780      4.83977        -1.746146     -0.321776     -0.922863
      0.86587      4.99093      7.05247        -0.253667     -2.137500     -1.939502
      3.11343      6.95580      7.23614        -1.101855      0.864282     -2.496816
      0.57368      7.09084      4.75864        17.402522     -1.232736      0.101783
      5.01594      5.05598      6.91725        -0.008726     -3.111205     -0.747608
      1.22995      2.78834      5.25370        -2.730761      0.759920     -5.042268
      2.75222      1.16789      5.11223         0.870946     -3.754765      0.195035
      6.77533      6.99895      6.90069         0.198148     -2.346061     -1.644355
      7.10977      0.77051      4.61778        -4.172004      2.765117      4.771910
      4.96379      0.75292      6.94086        -1.842908      1.665785      1.054980
      7.06323      2.98832      7.08340        -1.518210      0.617257      0.479142
      4.79389      3.06193      4.80870         0.168498     -0.564923      0.915842
      1.03934      0.99753      6.84391         0.126467      0.727477      0.474703
      4.96508      6.91986      5.29645         0.516838     -0.412027    -11.650787
      2.84391      4.91884      1.28144        -1.103703     -0.464363     -6.690042
      6.65057      2.76219      3.06533         1.241502      0.765133     -0.893165
      6.88038      4.88450      0.77553        -1.025563      0.815916      4.751678
      4.92059      4.92391      3.18838         0.237869      0.344387     -7.118821
      7.15934      7.05327      2.77920        -1.769394     -1.503635      0.680370
      4.81463      7.08633      0.88843        -0.254247     -0.294591      0.716576
      1.10612      5.07884      2.91439         0.119606     -0.307899     -1.211968
      4.85273      2.95647      1.14044         2.269850     -0.252848      0.049075
 -----------------------------------------------------------------------------------
    total drift:                               -0.004086     -0.002478     -0.000147


--------------------------------------------------------------------------------------------------------



  FREE ENERGIE OF THE ION-ELECTRON SYSTEM (eV)
  ---------------------------------------------------
  free  energy   TOTEN  =      -273.3272467779 eV

  energy  without entropy=     -273.3222051503  energy(sigma->0) =     -273.32472596
 


--------------------------------------------------------------------------------------------------------


    POTLOK:  cpu time    0.0692: real time    0.0694


--------------------------------------------------------------------------------------------------------


     LOOP+:  cpu time 1586.1825: real time 1590.2578
    4ORBIT:  cpu time    0.0000: real time    0.0000

volume of typ            1:    20.9 %

volume of typ            2:    10.7 %
 
total charge     
 
# of ion       s       p       d       tot
------------------------------------------
    1        0.332   0.444   7.905   8.681
    2        0.338   0.483   7.875   8.696
    3        0.359   0.495   7.917   8.771
    4        0.322   0.447   7.867   8.636
    5        0.319   0.450   7.863   8.631
    6        0.310   0.425   7.857   8.593
    7        0.279   0.356   7.819   8.454
    8        0.333   0.475   7.897   8.705
    9        0.351   0.483   7.887   8.721
   10        0.354   0.484   7.967   8.804
   11        0.315   0.431   7.867   8.613
   12        0.379   0.569   7.887   8.834
   13        0.294   0.381   7.851   8.527
   14        0.294   0.390   7.858   8.542
   15        0.341   0.497   7.897   8.735
   16        0.437   0.661   8.003   9.101
   17        1.298   2.694   0.009   4.002
   18        1.283   2.804   0.016   4.102
   19        1.301   2.622   0.004   3.926
   20        1.291   2.703   0.007   4.000
   21        1.292   2.754   0.012   4.058
   22        1.290   2.767   0.014   4.071
   23        1.293   2.855   0.027   4.175
   24        1.289   2.777   0.015   4.081
   25        1.282   2.712   0.006   4.000
   26        1.283   2.808   0.016   4.106
   27        1.282   2.735   0.008   4.025
   28        1.292   2.717   0.010   4.018
   29        1.283   2.721   0.008   4.011
   30        1.291   2.848   0.024   4.164
   31        1.286   2.743   0.010   4.039
   32        1.283   2.780   0.013   4.076
   33        1.280   2.762   0.010   4.053
   34        1.306   2.631   0.005   3.943
   35        1.279   2.844   0.018   4.142
   36        1.299   2.655   0.005   3.959
   37        1.285   2.741   0.010   4.036
   38        1.289   2.733   0.009   4.032
   39        1.296   2.678   0.007   3.982
   40        1.290   2.782   0.016   4.088
   41        1.291   2.762   0.014   4.067
   42        1.288   2.730   0.008   4.027
   43        1.288   2.794   0.017   4.098
   44        1.292   2.765   0.014   4.071
   45        1.289   2.732   0.010   4.031
   46        1.286   2.689   0.005   3.980
   47        1.292   2.694   0.006   3.992
   48        1.293   2.694   0.007   3.994
--------------------------------------------------
tot          46.62   95.20  126.57  268.39
 

 total amount of memory used by VASP MPI-rank0   180130. kBytes
=======================================================================

   base      :      30000. kBytes
   nonlr-proj:      24899. kBytes
   fftplans  :       4751. kBytes
   grid      :      15225. kBytes
   one-center:        746. kBytes
   wavefun   :     104509. kBytes
 
  
  
 General timing and accounting informations for this job:
 ========================================================
  
                  Total CPU time used (sec):     1614.836
                            User time (sec):     1612.275
                          System time (sec):        2.561
                         Elapsed time (sec):     1622.400
  
                   Maximum memory used (kb):      235300.
                   Average memory used (kb):           0.
  
                          Minor page faults:        37286
                          Major page faults:           18
                 Voluntary context switches:         1140
