 vasp.5.4.4.18Apr17-6-g9f103f2a35 (build May 12 2020 04:58:55) complex          
  
 MD_VERSION_INFO: Compiled 2020-05-12T11:58:55-UTC in devlin.sd.materialsdesign.
 com:/home/medea2/data/build/wwolf/vasp-gpu5.4.4/13047/x86_64/src/src/build/std 
 from svn 13047
 
 This VASP executable licensed from Materials Design, Inc.
 
 executed on                        Lin64 date 2023.04.27  00:18:46
 running on   16 total cores
 distrk:  each k-point on   16 cores,    1 groups
 distr:  one band on NCORES_PER_BAND=   1 cores,   16 groups


--------------------------------------------------------------------------------------------------------


 INCAR:
 POTCAR:    PAW_PBE Ni 02Aug2007                  
 POTCAR:    PAW_PBE O 08Apr2002                   

 ----------------------------------------------------------------------------- 
|                                                                             |
|           W    W    AA    RRRRR   N    N  II  N    N   GGGG   !!!           |
|           W    W   A  A   R    R  NN   N  II  NN   N  G    G  !!!           |
|           W    W  A    A  R    R  N N  N  II  N N  N  G       !!!           |
|           W WW W  AAAAAA  RRRRR   N  N N  II  N  N N  G  GGG   !            |
|           WW  WW  A    A  R   R   N   NN  II  N   NN  G    G                |
|           W    W  A    A  R    R  N    N  II  N    N   GGGG   !!!           |
|                                                                             |
|      For optimal performance we recommend to set                            |
|        NCORE= 4 - approx SQRT( number of cores)                             |
|      NCORE specifies how many cores store one orbital (NPAR=cpu/NCORE).     |
|      This setting can  greatly improve the performance of VASP for DFT.     |
|      The default,   NCORE=1            might be grossly inefficient         |
|      on modern multi-core architectures or massively parallel machines.     |
|      Do your own testing !!!!                                               |
|      Unfortunately you need to use the default for GW and RPA calculations. |
|      (for HF NCORE is supported but not extensively tested yet)             |
|                                                                             |
 ----------------------------------------------------------------------------- 

 POTCAR:    PAW_PBE Ni 02Aug2007                  
  local pseudopotential read in
  partial core-charges read in
  partial kinetic energy density read in
  atomic valenz-charges read in
  non local Contribution for L=           2  read in
    real space projection operators read in
  non local Contribution for L=           2  read in
    real space projection operators read in
  non local Contribution for L=           0  read in
    real space projection operators read in
  non local Contribution for L=           0  read in
    real space projection operators read in
  non local Contribution for L=           1  read in
    real space projection operators read in
  non local Contribution for L=           1  read in
    real space projection operators read in
    PAW grid and wavefunctions read in
 
   number of l-projection  operators is LMAX  =           6
   number of lm-projection operators is LMMAX =          18
 
 POTCAR:    PAW_PBE O 08Apr2002                   
  local pseudopotential read in
  partial core-charges read in
  partial kinetic energy density read in
  kinetic energy density of atom read in
  atomic valenz-charges read in
  non local Contribution for L=           0  read in
    real space projection operators read in
  non local Contribution for L=           0  read in
    real space projection operators read in
  non local Contribution for L=           1  read in
    real space projection operators read in
  non local Contribution for L=           1  read in
    real space projection operators read in
    PAW grid and wavefunctions read in
 
   number of l-projection  operators is LMAX  =           4
   number of lm-projection operators is LMMAX =           8
 
 Optimization of the real space projectors (new method)

 maximal supplied QI-value         = 16.25
 optimisation between [QCUT,QGAM] = [ 11.38, 22.75] = [ 36.24,144.96] Ry 
 Optimized for a Real-space Cutoff    1.47 Angstroem

   l    n(q)    QCUT    max X(q) W(low)/X(q) W(high)/X(q)  e(spline) 
   2      9    11.376    60.317    0.17E-03    0.16E-04    0.16E-06
   2      9    11.376    55.921    0.17E-03    0.16E-04    0.17E-06
   0     10    11.376    51.690    0.45E-04    0.60E-04    0.21E-06
   0     10    11.376    30.015    0.37E-04    0.55E-04    0.19E-06
   1     10    11.376    18.849    0.83E-04    0.11E-03    0.92E-07
   1     10    11.376    14.624    0.69E-04    0.92E-04    0.82E-07
 Optimization of the real space projectors (new method)

 maximal supplied QI-value         = 24.76
 optimisation between [QCUT,QGAM] = [ 11.39, 22.77] = [ 36.31,145.25] Ry 
 Optimized for a Real-space Cutoff    1.10 Angstroem

   l    n(q)    QCUT    max X(q) W(low)/X(q) W(high)/X(q)  e(spline) 
   0      7    11.387    20.381    0.22E-03    0.48E-03    0.18E-06
   0      7    11.387    15.268    0.22E-03    0.52E-03    0.19E-06
   1      7    11.387     5.964    0.22E-03    0.73E-03    0.24E-06
   1      7    11.387     5.382    0.19E-03    0.60E-03    0.21E-06

 ----------------------------------------------------------------------------- 
|                                                                             |
|  ADVICE TO THIS USER RUNNING 'VASP/VAMP'   (HEAR YOUR MASTER'S VOICE ...):  |
|                                                                             |
|      You enforced a specific xc-type in the INCAR file,                     |
|      a different type was found on the POTCAR file                          |
|          I HOPE YOU KNOW, WHAT YOU ARE  DOING                               |
|                                                                             |
 ----------------------------------------------------------------------------- 

  PAW_PBE Ni 02Aug2007                  :
 energy of atom  1       EATOM=-1077.6739
 kinetic energy error for atom=    0.0030 (will be added to EATOM!!)
  PAW_PBE O 08Apr2002                   :
 energy of atom  2       EATOM= -432.3788
 kinetic energy error for atom=    0.0224 (will be added to EATOM!!)
 
 
 POSCAR: NiO2_Fd-3m_scale_1_000_disp_0_08_round_1
  positions in direct lattice
  No initial velocities read in
 exchange correlation table for  LEXCH =       14
   RHO(1)=    0.500       N(1)  =     2000
   RHO(2)=  100.500       N(2)  =     4000
 


--------------------------------------------------------------------------------------------------------


 ion  position               nearest neighbor table
   1  0.138  0.622  0.131-  22 1.82  41 1.85  28 1.89  24 1.89  47 1.89  43 1.96   3 2.71   2 2.76
                            11 2.76  14 2.78   8 2.81   4 2.82
   2  0.379  0.877  0.124-  29 1.75  41 1.81  19 1.89  18 1.89  46 1.99  24 1.99  12 2.72   4 2.76
                             1 2.76   7 2.77  13 2.79   3 2.83
   3  0.373  0.627  0.383-  27 1.79  18 1.83  44 1.85  21 1.93  47 1.98  41 2.07   1 2.71   4 2.72
                             6 2.75   9 2.79   2 2.83  16 2.94
   4  0.137  0.881  0.379-  20 1.81  18 1.83  30 1.89  47 1.93  24 2.02  45 2.06   3 2.72   5 2.75
                             2 2.76  15 2.76   1 2.82  10 2.94
   5  0.119  0.115  0.637-  39 1.69  35 1.73  30 1.91  33 1.93  32 1.94  20 1.97   7 2.70   4 2.75
                             8 2.76  15 2.77  10 2.81   6 2.83
   6  0.370  0.372  0.622-  38 1.73  32 1.75  21 1.82  33 1.88  27 1.93  26 1.95   8 2.72   3 2.75
                             7 2.78   9 2.78  16 2.81   5 2.83
   7  0.373  0.120  0.869-  19 1.81  39 1.82  29 1.85  33 1.91  36 1.92  26 1.98   5 2.70  12 2.75
                             2 2.77   6 2.78   8 2.78  13 2.81
   8  0.130  0.377  0.871-  32 1.81  28 1.87  22 1.87  39 1.88  26 1.92  37 1.92   6 2.72  14 2.76
                             5 2.76   7 2.78   1 2.81  11 2.91
   9  0.629  0.613  0.629-  25 1.78  44 1.87  38 1.89  27 1.90  40 1.92  31 1.92  10 2.74   6 2.78
                            16 2.79   3 2.79  12 2.86  11 2.89
  10  0.848  0.882  0.616-  45 1.61  40 1.63  25 1.88  30 1.90  35 1.96  34 1.99  15 2.71  12 2.73
                             9 2.74   5 2.81  11 2.94   4 2.94
  11  0.873  0.642  0.901-  34 1.65  43 1.67  31 1.85  28 1.94  37 1.98  25 2.06  14 2.62  12 2.70
                             1 2.76   9 2.89   8 2.91  10 2.94
  12  0.623  0.876  0.880-  34 1.79  31 1.82  40 1.84  46 1.87  29 1.91  36 1.91  11 2.70   2 2.72
                            10 2.73   7 2.75   9 2.86  13 2.86
  13  0.616  0.141  0.130-  19 1.75  48 1.77  23 1.81  36 1.91  46 1.97  17 2.08  16 2.63   2 2.79
                             7 2.81  14 2.82  12 2.86  15 2.87
  14  0.877  0.385  0.113-  37 1.73  43 1.83  22 1.84  48 1.86  17 1.88  42 2.11  11 2.62   8 2.76
                             1 2.78  13 2.82  16 2.86  15 2.90
  15  0.886  0.126  0.375-  17 1.77  42 1.87  45 1.88  35 1.92  20 1.98  23 2.06  16 2.71  10 2.71
                             4 2.76   5 2.77  13 2.87  14 2.90
  16  0.633  0.360  0.381-  23 1.76  48 1.86  38 1.87  42 1.91  21 1.98  44 2.02  13 2.63  15 2.71
                             9 2.79   6 2.81  14 2.86   3 2.94
  17  0.879  0.149  0.151-  15 1.77  14 1.88  13 2.08
  18  0.369  0.859  0.364-   3 1.83   4 1.83   2 1.89
  19  0.397  0.115  0.098-  13 1.75   7 1.81   2 1.89
  20  0.136  0.111  0.387-   4 1.81   5 1.97  15 1.98
  21  0.383  0.383  0.392-   6 1.82   3 1.93  16 1.98
  22  0.110  0.393  0.107-   1 1.82  14 1.84   8 1.87
  23  0.625  0.137  0.359-  16 1.76  13 1.81  15 2.06
  24  0.126  0.862  0.124-   1 1.89   2 1.99   4 2.02
  25  0.853  0.645  0.639-   9 1.78  10 1.88  11 2.06
  26  0.374  0.371  0.870-   8 1.92   6 1.95   7 1.98
  27  0.388  0.617  0.611-   3 1.79   9 1.90   6 1.93
  28  0.118  0.613  0.892-   8 1.87   1 1.89  11 1.94
  29  0.382  0.887  0.902-   2 1.75   7 1.85  12 1.91
  30  0.090  0.875  0.614-   4 1.89  10 1.90   5 1.91
  31  0.641  0.645  0.871-  12 1.82  11 1.85   9 1.92
  32  0.149  0.360  0.642-   6 1.75   8 1.81   5 1.94
  33  0.364  0.133  0.628-   6 1.88   7 1.91   5 1.93
  34  0.848  0.848  0.867-  11 1.65  12 1.79  10 1.99
  35  0.900  0.126  0.619-   5 1.73  15 1.92  10 1.96
  36  0.616  0.118  0.888-  13 1.91  12 1.91   7 1.92
  37  0.887  0.391  0.894-  14 1.73   8 1.92  11 1.98
  38  0.589  0.376  0.614-   6 1.73  16 1.87   9 1.89
  39  0.143  0.140  0.850-   5 1.69   7 1.82   8 1.88
  40  0.646  0.855  0.647-  10 1.63  12 1.84   9 1.92
  41  0.372  0.647  0.120-   2 1.81   1 1.85   3 2.07
  42  0.876  0.363  0.380-  15 1.87  16 1.91  14 2.11
  43  0.889  0.617  0.112-  11 1.67  14 1.83   1 1.96
  44  0.608  0.615  0.392-   3 1.85   9 1.87  16 2.02
  45  0.878  0.890  0.413-  10 1.61  15 1.88   4 2.06
  46  0.631  0.890  0.117-  12 1.87  13 1.97   2 1.99
  47  0.121  0.636  0.371-   1 1.89   4 1.93   3 1.98
  48  0.644  0.363  0.145-  13 1.77  14 1.86  16 1.86
 
  LATTYP: Found a simple cubic cell.
 ALAT       =     7.8666804200
  
  Lattice vectors:
  
 A1 = (   7.8666804200,   0.0000000000,   0.0000000000)
 A2 = (   0.0000000000,   7.8666804200,   0.0000000000)
 A3 = (   0.0000000000,   0.0000000000,   7.8666804200)


Analysis of symmetry for initial positions (statically):
=====================================================================
 Subroutine PRICEL returns:
 Original cell was already a primitive cell.
 

 Routine SETGRP: Setting up the symmetry group for a 
 simple cubic supercell.


 Subroutine GETGRP returns: Found  1 space group operations
 (whereof  1 operations were pure point group operations)
 out of a pool of 48 trial point group operations.


The static configuration has the point symmetry C_1 .


Analysis of symmetry for dynamics (positions and initial velocities):
=====================================================================
 Subroutine PRICEL returns:
 Original cell was already a primitive cell.
 

 Routine SETGRP: Setting up the symmetry group for a 
 simple cubic supercell.


 Subroutine GETGRP returns: Found  1 space group operations
 (whereof  1 operations were pure point group operations)
 out of a pool of 48 trial point group operations.


The dynamic configuration has the point symmetry C_1 .


 Subroutine INISYM returns: Found  1 space group operations
 (whereof  1 operations are pure point group operations),
 and found     1 'primitive' translations

 
 
 KPOINTS: Automatic mesh                          

Automatic generation of k-mesh.
Space group operators:
 irot       det(A)        alpha          n_x          n_y          n_z        tau_x        tau_y        tau_z
    1     1.000000     0.000000     1.000000     0.000000     0.000000     0.000000     0.000000     0.000000
 
 Subroutine IBZKPT returns following result:
 ===========================================
 
 Found     36 irreducible k-points:
 
 Following reciprocal coordinates:
            Coordinates               Weight
  0.000000  0.000000  0.000000      1.000000
  0.250000  0.000000  0.000000      2.000000
  0.500000  0.000000  0.000000      1.000000
  0.000000  0.250000  0.000000      2.000000
  0.250000  0.250000  0.000000      2.000000
  0.500000  0.250000  0.000000      2.000000
 -0.250000  0.250000  0.000000      2.000000
  0.000000  0.500000  0.000000      1.000000
  0.250000  0.500000  0.000000      2.000000
  0.500000  0.500000  0.000000      1.000000
  0.000000  0.000000  0.250000      2.000000
  0.250000  0.000000  0.250000      2.000000
  0.500000  0.000000  0.250000      2.000000
 -0.250000  0.000000  0.250000      2.000000
  0.000000  0.250000  0.250000      2.000000
  0.250000  0.250000  0.250000      2.000000
  0.500000  0.250000  0.250000      2.000000
 -0.250000  0.250000  0.250000      2.000000
  0.000000  0.500000  0.250000      2.000000
  0.250000  0.500000  0.250000      2.000000
  0.500000  0.500000  0.250000      2.000000
 -0.250000  0.500000  0.250000      2.000000
  0.000000 -0.250000  0.250000      2.000000
  0.250000 -0.250000  0.250000      2.000000
  0.500000 -0.250000  0.250000      2.000000
 -0.250000 -0.250000  0.250000      2.000000
  0.000000  0.000000  0.500000      1.000000
  0.250000  0.000000  0.500000      2.000000
  0.500000  0.000000  0.500000      1.000000
  0.000000  0.250000  0.500000      2.000000
  0.250000  0.250000  0.500000      2.000000
  0.500000  0.250000  0.500000      2.000000
 -0.250000  0.250000  0.500000      2.000000
  0.000000  0.500000  0.500000      1.000000
  0.250000  0.500000  0.500000      2.000000
  0.500000  0.500000  0.500000      1.000000
 
 Following cartesian coordinates:
            Coordinates               Weight
  0.000000  0.000000  0.000000      1.000000
  0.031780  0.000000  0.000000      2.000000
  0.063559  0.000000  0.000000      1.000000
  0.000000  0.031780  0.000000      2.000000
  0.031780  0.031780  0.000000      2.000000
  0.063559  0.031780  0.000000      2.000000
 -0.031780  0.031780  0.000000      2.000000
  0.000000  0.063559  0.000000      1.000000
  0.031780  0.063559  0.000000      2.000000
  0.063559  0.063559  0.000000      1.000000
  0.000000  0.000000  0.031780      2.000000
  0.031780  0.000000  0.031780      2.000000
  0.063559  0.000000  0.031780      2.000000
 -0.031780  0.000000  0.031780      2.000000
  0.000000  0.031780  0.031780      2.000000
  0.031780  0.031780  0.031780      2.000000
  0.063559  0.031780  0.031780      2.000000
 -0.031780  0.031780  0.031780      2.000000
  0.000000  0.063559  0.031780      2.000000
  0.031780  0.063559  0.031780      2.000000
  0.063559  0.063559  0.031780      2.000000
 -0.031780  0.063559  0.031780      2.000000
  0.000000 -0.031780  0.031780      2.000000
  0.031780 -0.031780  0.031780      2.000000
  0.063559 -0.031780  0.031780      2.000000
 -0.031780 -0.031780  0.031780      2.000000
  0.000000  0.000000  0.063559      1.000000
  0.031780  0.000000  0.063559      2.000000
  0.063559  0.000000  0.063559      1.000000
  0.000000  0.031780  0.063559      2.000000
  0.031780  0.031780  0.063559      2.000000
  0.063559  0.031780  0.063559      2.000000
 -0.031780  0.031780  0.063559      2.000000
  0.000000  0.063559  0.063559      1.000000
  0.031780  0.063559  0.063559      2.000000
  0.063559  0.063559  0.063559      1.000000
 


--------------------------------------------------------------------------------------------------------




 Dimension of arrays:
   k-points           NKPTS =     36   k-points in BZ     NKDIM =     36   number of bands    NBANDS=    224
   number of dos      NEDOS =    301   number of ions     NIONS =     48
   non local maximal  LDIM  =      6   non local SUM 2l+1 LMDIM =     18
   total plane-waves  NPLWV = 216000
   max r-space proj   IRMAX =   6006   max aug-charges    IRDMAX=  14580
   dimension x,y,z NGX =    60 NGY =   60 NGZ =   60
   dimension x,y,z NGXF=   120 NGYF=  120 NGZF=  120
   support grid    NGXF=   120 NGYF=  120 NGZF=  120
   ions per type =              16  32
   NGX,Y,Z   is equivalent  to a cutoff of  12.68, 12.68, 12.68 a.u.
   NGXF,Y,Z  is equivalent  to a cutoff of  25.36, 25.36, 25.36 a.u.

 SYSTEM =  unknown system                          
 POSCAR =  NiO2_Fd-3m_scale_1_000_disp_0_08_round_1

 Startparameter for this run:
   NWRITE =      1    write-flag & timer
   PREC   = accura    normal or accurate (medium, high low for compatibility)
   ISTART =      0    job   : 0-new  1-cont  2-samecut
   ICHARG =      2    charge: 1-file 2-atom 10-const
   ISPIN  =      1    spin polarized calculation?
   LNONCOLLINEAR =      F non collinear calculations
   LSORBIT =      F    spin-orbit coupling
   INIWAV =      1    electr: 0-lowe 1-rand  2-diag
   LASPH  =      F    aspherical Exc in radial PAW
   METAGGA=      F    non-selfconsistent MetaGGA calc.

 Electronic Relaxation 1
   ENCUT  =  500.0 eV  36.75 Ry    6.06 a.u.  14.34 14.34 14.34*2*pi/ulx,y,z
   ENINI  =  500.0     initial cutoff
   ENAUG  =  605.4 eV  augmentation charge cutoff
   NELM   =    120;   NELMIN=  2; NELMDL= -5     # of ELM steps 
   EDIFF  = 0.1E-04   stopping-criterion for ELM
   LREAL  =      T    real-space projection
   NLSPLINE    = F    spline interpolate recip. space projectors
   LCOMPAT=      F    compatible to vasp.4.4
   GGA_COMPAT  = T    GGA compatible to vasp.4.4-vasp.4.6
   LMAXPAW     = -100 max onsite density
   LMAXMIX     =    2 max onsite mixed and CHGCAR
   VOSKOWN=      1    Vosko Wilk Nusair interpolation
   ROPT   =   -0.00025  -0.00025
 Ionic relaxation
   EDIFFG = 0.1E-03   stopping-criterion for IOM
   NSW    =      0    number of steps for IOM
   NBLOCK =      1;   KBLOCK =      1    inner block; outer block 
   IBRION =     -1    ionic relax: 0-MD 1-quasi-New 2-CG
   NFREE  =      0    steps in history (QN), initial steepest desc. (CG)
   ISIF   =      2    stress and relaxation
   IWAVPR =     10    prediction:  0-non 1-charg 2-wave 3-comb
   ISYM   =      2    0-nonsym 1-usesym 2-fastsym
   LCORR  =      T    Harris-Foulkes like correction to forces

   POTIM  = 0.5000    time-step for ionic-motion
   TEIN   =    0.0    initial temperature
   TEBEG  =    0.0;   TEEND  =   0.0 temperature during run
   SMASS  =  -3.00    Nose mass-parameter (am)
   estimated Nose-frequenzy (Omega)   =  0.10E-29 period in steps =****** mass=  -0.141E-26a.u.
   SCALEE = 1.0000    scale energy and forces
   NPACO  =    256;   APACO  = 16.0  distance and # of slots for P.C.
   PSTRESS=    0.0 pullay stress

  Mass of Ions in am
   POMASS =  58.69 16.00
  Ionic Valenz
   ZVAL   =  10.00  6.00
  Atomic Wigner-Seitz radii
   RWIGS  =   1.15  0.73
  virtual crystal weights 
   VCA    =   1.00  1.00
   NELECT =     352.0000    total number of electrons
   NUPDOWN=      -1.0000    fix difference up-down

 DOS related values:
   EMIN   =  10.00;   EMAX   =-10.00  energy-range for DOS
   EFERMI =   0.00
   ISMEAR =     0;   SIGMA  =   0.05  broadening in eV -4-tet -1-fermi 0-gaus

 Electronic relaxation 2 (details)
   IALGO  =     38    algorithm
   LDIAG  =      T    sub-space diagonalisation (order eigenvalues)
   LSUBROT=      F    optimize rotation matrix (better conditioning)
   TURBO    =      0    0=normal 1=particle mesh
   IRESTART =      0    0=no restart 2=restart with 2 vectors
   NREBOOT  =      0    no. of reboots
   NMIN     =      0    reboot dimension
   EREF     =   0.00    reference energy to select bands
   IMIX   =      4    mixing-type and parameters
     AMIX     =   0.40;   BMIX     =  1.00
     AMIX_MAG =   1.60;   BMIX_MAG =  1.00
     AMIN     =   0.10
     WC   =   100.;   INIMIX=   1;  MIXPRE=   1;  MAXMIX= -45

 Intra band minimization:
   WEIMIN = 0.0000     energy-eigenvalue tresh-hold
   EBREAK =  0.11E-07  absolut break condition
   DEPER  =   0.30     relativ break condition  

   TIME   =   0.40     timestep for ELM

  volume/ion in A,a.u.               =      10.14        68.44
  Fermi-wavevector in a.u.,A,eV,Ry     =   1.469369  2.776705 29.375595  2.159045
  Thomas-Fermi vector in A             =   2.584755
 
 Write flags
   LWAVE        =      F    write WAVECAR
   LDOWNSAMPLE  =      F    k-point downsampling of WAVECAR
   LCHARG       =      T    write CHGCAR
   LVTOT        =      F    write LOCPOT, total local potential
   LVHAR        =      F    write LOCPOT, Hartree potential only
   LELF         =      F    write electronic localiz. function (ELF)
   LORBIT       =      0    0 simple, 1 ext, 2 COOP (PROOUT), +10 PAW based schemes


 Dipole corrections
   LMONO  =      F    monopole corrections only (constant potential shift)
   LDIPOL =      F    correct potential (dipole corrections)
   IDIPOL =      0    1-x, 2-y, 3-z, 4-all directions 
   EPSILON=  1.0000000 bulk dielectric constant

 Exchange correlation treatment:
   GGA     =    PS    GGA type
   LEXCH   =    14    internal setting for exchange type
   VOSKOWN=      1    Vosko Wilk Nusair interpolation
   LHFCALC =     F    Hartree Fock is set to
   LHFONE  =     F    Hartree Fock one center treatment
   AEXX    =    0.0000 exact exchange contribution

 Linear response parameters
   LEPSILON=     F    determine dielectric tensor
   LRPA    =     F    only Hartree local field effects (RPA)
   LNABLA  =     F    use nabla operator in PAW spheres
   LVEL    =     F    velocity operator in full k-point grid
   LINTERFAST=   F  fast interpolation
   KINTER  =     0    interpolate to denser k-point grid
   CSHIFT  =0.1000    complex shift for real part using Kramers Kronig
   OMEGAMAX=  -1.0    maximum frequency
   DEG_THRESHOLD= 0.2000000E-02 threshold for treating states as degnerate
   RTIME   =   -0.100 relaxation time in fs
  (WPLASMAI=    0.000 imaginary part of plasma frequency in eV, 0.658/RTIME)
   DFIELD  = 0.0000000 0.0000000 0.0000000 field for delta impulse in time
 
 Orbital magnetization related:
   ORBITALMAG=     F  switch on orbital magnetization
   LCHIMAG   =     F  perturbation theory with respect to B field
   DQ        =  0.001000  dq finite difference perturbation B field
   LLRAUG    =     F  two centre corrections for induced B field



--------------------------------------------------------------------------------------------------------


 Static calculation
 charge density and potential will be updated during run
 non-spin polarized calculation
 Variant of blocked Davidson
 Davidson routine will perform the subspace rotation
 perform sub-space diagonalisation
    after iterative eigenvector-optimisation
 modified Broyden-mixing scheme, WC =      100.0
 initial mixing is a Kerker type mixing with AMIX =  0.4000 and BMIX =      1.0000
 Hartree-type preconditioning will be used
 using additional bands           48
 real space projection scheme for non local part
 use partial core corrections
 calculate Harris-corrections to forces 
   (improved forces if not selfconsistent)
 use gradient corrections 
 use of overlap-Matrix (Vanderbilt PP)
 Gauss-broadening in eV      SIGMA  =   0.05


--------------------------------------------------------------------------------------------------------


  energy-cutoff  :      500.00
  volume of cell :      486.83
      direct lattice vectors                 reciprocal lattice vectors
     7.866680420  0.000000000  0.000000000     0.127118422  0.000000000  0.000000000
     0.000000000  7.866680420  0.000000000     0.000000000  0.127118422  0.000000000
     0.000000000  0.000000000  7.866680420     0.000000000  0.000000000  0.127118422

  length of vectors
     7.866680420  7.866680420  7.866680420     0.127118422  0.127118422  0.127118422


 
 k-points in units of 2pi/SCALE and weight: Automatic mesh                          
   0.00000000  0.00000000  0.00000000       0.016
   0.03177961  0.00000000  0.00000000       0.031
   0.06355921  0.00000000  0.00000000       0.016
   0.00000000  0.03177961  0.00000000       0.031
   0.03177961  0.03177961  0.00000000       0.031
   0.06355921  0.03177961  0.00000000       0.031
  -0.03177961  0.03177961  0.00000000       0.031
   0.00000000  0.06355921  0.00000000       0.016
   0.03177961  0.06355921  0.00000000       0.031
   0.06355921  0.06355921  0.00000000       0.016
   0.00000000  0.00000000  0.03177961       0.031
   0.03177961  0.00000000  0.03177961       0.031
   0.06355921  0.00000000  0.03177961       0.031
  -0.03177961  0.00000000  0.03177961       0.031
   0.00000000  0.03177961  0.03177961       0.031
   0.03177961  0.03177961  0.03177961       0.031
   0.06355921  0.03177961  0.03177961       0.031
  -0.03177961  0.03177961  0.03177961       0.031
   0.00000000  0.06355921  0.03177961       0.031
   0.03177961  0.06355921  0.03177961       0.031
   0.06355921  0.06355921  0.03177961       0.031
  -0.03177961  0.06355921  0.03177961       0.031
   0.00000000 -0.03177961  0.03177961       0.031
   0.03177961 -0.03177961  0.03177961       0.031
   0.06355921 -0.03177961  0.03177961       0.031
  -0.03177961 -0.03177961  0.03177961       0.031
   0.00000000  0.00000000  0.06355921       0.016
   0.03177961  0.00000000  0.06355921       0.031
   0.06355921  0.00000000  0.06355921       0.016
   0.00000000  0.03177961  0.06355921       0.031
   0.03177961  0.03177961  0.06355921       0.031
   0.06355921  0.03177961  0.06355921       0.031
  -0.03177961  0.03177961  0.06355921       0.031
   0.00000000  0.06355921  0.06355921       0.016
   0.03177961  0.06355921  0.06355921       0.031
   0.06355921  0.06355921  0.06355921       0.016
 
 k-points in reciprocal lattice and weights: Automatic mesh                          
   0.00000000  0.00000000  0.00000000       0.016
   0.25000000  0.00000000  0.00000000       0.031
   0.50000000  0.00000000  0.00000000       0.016
   0.00000000  0.25000000  0.00000000       0.031
   0.25000000  0.25000000  0.00000000       0.031
   0.50000000  0.25000000  0.00000000       0.031
  -0.25000000  0.25000000  0.00000000       0.031
   0.00000000  0.50000000  0.00000000       0.016
   0.25000000  0.50000000  0.00000000       0.031
   0.50000000  0.50000000  0.00000000       0.016
   0.00000000  0.00000000  0.25000000       0.031
   0.25000000  0.00000000  0.25000000       0.031
   0.50000000  0.00000000  0.25000000       0.031
  -0.25000000  0.00000000  0.25000000       0.031
   0.00000000  0.25000000  0.25000000       0.031
   0.25000000  0.25000000  0.25000000       0.031
   0.50000000  0.25000000  0.25000000       0.031
  -0.25000000  0.25000000  0.25000000       0.031
   0.00000000  0.50000000  0.25000000       0.031
   0.25000000  0.50000000  0.25000000       0.031
   0.50000000  0.50000000  0.25000000       0.031
  -0.25000000  0.50000000  0.25000000       0.031
   0.00000000 -0.25000000  0.25000000       0.031
   0.25000000 -0.25000000  0.25000000       0.031
   0.50000000 -0.25000000  0.25000000       0.031
  -0.25000000 -0.25000000  0.25000000       0.031
   0.00000000  0.00000000  0.50000000       0.016
   0.25000000  0.00000000  0.50000000       0.031
   0.50000000  0.00000000  0.50000000       0.016
   0.00000000  0.25000000  0.50000000       0.031
   0.25000000  0.25000000  0.50000000       0.031
   0.50000000  0.25000000  0.50000000       0.031
  -0.25000000  0.25000000  0.50000000       0.031
   0.00000000  0.50000000  0.50000000       0.016
   0.25000000  0.50000000  0.50000000       0.031
   0.50000000  0.50000000  0.50000000       0.016
 
 position of ions in fractional coordinates (direct lattice) 
   0.13807393  0.62191302  0.13129567
   0.37902710  0.87727192  0.12444740
   0.37317685  0.62746947  0.38334971
   0.13737680  0.88068930  0.37883128
   0.11929351  0.11475239  0.63746964
   0.36960554  0.37219848  0.62203821
   0.37258582  0.11981004  0.86944896
   0.12966503  0.37698905  0.87075267
   0.62882602  0.61266062  0.62927034
   0.84833879  0.88235316  0.61589404
   0.87326516  0.64248269  0.90115454
   0.62303343  0.87582893  0.87964060
   0.61642481  0.14052628  0.12950015
   0.87718670  0.38513717  0.11332990
   0.88574586  0.12557785  0.37479028
   0.63325437  0.35953010  0.38131423
   0.87935356  0.14934860  0.15063810
   0.36895389  0.85906584  0.36395392
   0.39734748  0.11484247  0.09754194
   0.13622988  0.11058866  0.38738898
   0.38263978  0.38265763  0.39158234
   0.11040247  0.39319712  0.10732214
   0.62510604  0.13721638  0.35939710
   0.12608130  0.86175334  0.12353591
   0.85316430  0.64493275  0.63947122
   0.37403163  0.37131578  0.87049460
   0.38757762  0.61696739  0.61057566
   0.11822655  0.61307138  0.89228915
   0.38192086  0.88739787  0.90188902
   0.08970432  0.87453464  0.61371024
   0.64061992  0.64476930  0.87145929
   0.14882577  0.35958222  0.64230222
   0.36426464  0.13339106  0.62770662
   0.84840754  0.84805989  0.86708804
   0.90025872  0.12628995  0.61869393
   0.61623953  0.11830021  0.88816383
   0.88673806  0.39136299  0.89383812
   0.58892587  0.37635723  0.61385890
   0.14314392  0.13983913  0.84967506
   0.64584925  0.85493174  0.64717929
   0.37173710  0.64745498  0.12040105
   0.87621903  0.36294554  0.38029543
   0.88943539  0.61709961  0.11190975
   0.60798780  0.61467483  0.39187398
   0.87848647  0.89026134  0.41314898
   0.63127327  0.89036508  0.11711532
   0.12135447  0.63599316  0.37093921
   0.64407746  0.36279999  0.14483593
 
 position of ions in cartesian coordinates  (Angst):
   1.08618348  4.89239098  1.03286108
   2.98168507  6.90121784  0.97898792
   2.93566302  4.93610179  3.01568966
   1.08069938  6.92810127  2.98014461
   0.93844392  0.90272038  5.01476994
   2.90756866  2.92796649  4.89337581
   2.93101357  0.94250730  6.83967711
   1.02003335  2.96565238  6.84993298
   4.94677334  4.81960530  4.95026866
   6.67361015  6.94119033  4.84504159
   6.86969794  5.05420600  7.08909478
   4.90120488  6.88986629  6.91985148
   4.84921698  1.10547534  1.01873629
   6.90054744  3.02975103  0.89153011
   6.96787961  0.98788081  2.94835536
   4.98160975  2.82830840  2.99967719
   6.91759343  1.17487771  1.18502179
   2.90244234  6.75799642  2.86310918
   3.12580564  0.90342901  0.76733127
   1.07167693  0.86996565  3.04746530
   3.01010487  3.01024529  3.08045313
   0.86850095  3.09315609  0.84426898
   4.91750945  1.07943741  2.82726213
   0.99184129  6.77913813  0.97181752
   6.71157089  5.07347984  5.03051573
   2.94238730  2.92102258  6.84790283
   3.04894927  4.85348529  4.80320359
   0.93005049  4.82283662  7.01935359
   3.00444935  6.98087545  7.09487269
   0.70567522  6.87968453  4.82786233
   5.03955218  5.07219403  6.85549173
   1.17076477  2.82871841  5.05278630
   2.86555351  1.04934484  4.93796738
   6.67415098  6.67141613  6.82110451
   7.08204765  0.99348268  4.86706743
   4.84775944  0.93062995  6.98690101
   6.97568493  3.07872757  7.03153884
   4.63289161  2.96068205  4.82903179
   1.12606747  1.10006975  6.68412216
   5.08068965  6.72547478  5.09115265
   2.92433697  5.09332141  0.94715658
   6.89293509  2.85517657  2.99166261
   6.99690397  4.85452542  0.88035824
   4.78284572  4.83545045  3.08274737
   6.91077231  7.00340145  3.25011099
   4.96602507  7.00421754  0.92130879
   0.95465683  5.00315494  2.91806022
   5.06675154  2.85403158  1.13937797
 


--------------------------------------------------------------------------------------------------------


 k-point  1 :   0.0000 0.0000 0.0000  plane waves:   12293
 k-point  2 :   0.2500 0.0000 0.0000  plane waves:   12393
 k-point  3 :   0.5000 0.0000 0.0000  plane waves:   12356
 k-point  4 :   0.0000 0.2500 0.0000  plane waves:   12393
 k-point  5 :   0.2500 0.2500 0.0000  plane waves:   12392
 k-point  6 :   0.5000 0.2500 0.0000  plane waves:   12348
 k-point  7 :  -0.2500 0.2500 0.0000  plane waves:   12392
 k-point  8 :   0.0000 0.5000 0.0000  plane waves:   12356
 k-point  9 :   0.2500 0.5000 0.0000  plane waves:   12348
 k-point 10 :   0.5000 0.5000 0.0000  plane waves:   12408
 k-point 11 :   0.0000 0.0000 0.2500  plane waves:   12393
 k-point 12 :   0.2500 0.0000 0.2500  plane waves:   12392
 k-point 13 :   0.5000 0.0000 0.2500  plane waves:   12348
 k-point 14 :  -0.2500 0.0000 0.2500  plane waves:   12392
 k-point 15 :   0.0000 0.2500 0.2500  plane waves:   12392
 k-point 16 :   0.2500 0.2500 0.2500  plane waves:   12371
 k-point 17 :   0.5000 0.2500 0.2500  plane waves:   12338
 k-point 18 :  -0.2500 0.2500 0.2500  plane waves:   12371
 k-point 19 :   0.0000 0.5000 0.2500  plane waves:   12348
 k-point 20 :   0.2500 0.5000 0.2500  plane waves:   12338
 k-point 21 :   0.5000 0.5000 0.2500  plane waves:   12364
 k-point 22 :  -0.2500 0.5000 0.2500  plane waves:   12338
 k-point 23 :   0.0000-0.2500 0.2500  plane waves:   12392
 k-point 24 :   0.2500-0.2500 0.2500  plane waves:   12371
 k-point 25 :   0.5000-0.2500 0.2500  plane waves:   12338
 k-point 26 :  -0.2500-0.2500 0.2500  plane waves:   12371
 k-point 27 :   0.0000 0.0000 0.5000  plane waves:   12356
 k-point 28 :   0.2500 0.0000 0.5000  plane waves:   12348
 k-point 29 :   0.5000 0.0000 0.5000  plane waves:   12408
 k-point 30 :   0.0000 0.2500 0.5000  plane waves:   12348
 k-point 31 :   0.2500 0.2500 0.5000  plane waves:   12338
 k-point 32 :   0.5000 0.2500 0.5000  plane waves:   12364
 k-point 33 :  -0.2500 0.2500 0.5000  plane waves:   12338
 k-point 34 :   0.0000 0.5000 0.5000  plane waves:   12408
 k-point 35 :   0.2500 0.5000 0.5000  plane waves:   12364
 k-point 36 :   0.5000 0.5000 0.5000  plane waves:   12400

 maximum and minimum number of plane-waves per node :     12408    12293

 maximum number of plane-waves:     12408
 maximum index in each direction: 
   IXMAX=   14   IYMAX=   14   IZMAX=   14
   IXMIN=  -14   IYMIN=  -14   IZMIN=  -14

 The following grids will avoid any aliasing or wrap around errors in the Hartre
 e energy
  - symmetry arguments have not been applied
  - exchange correlation energies might require even more grid points
  - we recommend to set PREC=Normal or Accurate and rely on VASP defaults
 NGX is ok and might be reduce to    60
 NGY is ok and might be reduce to    60
 NGZ is ok and might be reduce to    60

 serial   3D FFT for wavefunctions
 parallel 3D FFT for charge:
    minimum data exchange during FFTs selected (reduces bandwidth)


 total amount of memory used by VASP MPI-rank0   180146. kBytes
=======================================================================

   base      :      30000. kBytes
   nonlr-proj:      24915. kBytes
   fftplans  :       4751. kBytes
   grid      :      15225. kBytes
   one-center:        746. kBytes
   wavefun   :     104509. kBytes
 
     INWAV:  cpu time    0.0000: real time    0.0000
 Broyden mixing: mesh for mixing (old mesh)
   NGX = 29   NGY = 29   NGZ = 29
  (NGX  =120   NGY  =120   NGZ  =120)
  gives a total of  24389 points

 initial charge density was supplied:
 charge density of overlapping atoms calculated
 number of electron     352.0000000 magnetization 
 keeping initial charge density in first step


--------------------------------------------------------------------------------------------------------


 Maximum index for non-local projection operator         5799
 Maximum index for augmentation-charges         1069 (set IRDMAX)


--------------------------------------------------------------------------------------------------------


 First call to EWALD:  gamma=   0.225
 Maximum number of real-space cells 3x 3x 3
 Maximum number of reciprocal cells 3x 3x 3

    FEWALD:  cpu time    0.0023: real time    0.0023


--------------------------------------- Iteration      1(   1)  ---------------------------------------


    POTLOK:  cpu time    0.0767: real time    0.0865
    SETDIJ:  cpu time    0.0070: real time    0.0071
     EDDAV:  cpu time   31.5732: real time   31.6660
    --------------------------------------------
      LOOP:  cpu time   31.6589: real time   31.7616

 eigenvalue-minimisations  : 16128
 total energy-change (2. order) : 0.4603256E+04  (-0.1558901E+05)
 number of electron     352.0000000 magnetization 
 augmentation part      352.0000000 magnetization 

 Free energy of the ion-electron system (eV)
  ---------------------------------------------------
  alpha Z        PSCENC =      1125.84681573
  Ewald energy   TEWEN  =    -20826.70632791
  -Hartree energ DENC   =    -11202.57145585
  -exchange      EXHF   =         0.00000000
  -V(xc)+E(xc)   XCENC  =      1411.57540075
  PAW double counting   =     26475.20327555   -27591.76617206
  entropy T*S    EENTRO =        -0.00541835
  eigenvalues    EBANDS =      4198.00747410
  atomic energy  EATOM  =     31013.67235384
  Solvation  Ediel_sol  =         0.00000000
  ---------------------------------------------------
  free energy    TOTEN  =      4603.25594579 eV

  energy without entropy =     4603.26136414  energy(sigma->0) =     4603.25865497


--------------------------------------------------------------------------------------------------------




--------------------------------------- Iteration      1(   2)  ---------------------------------------


     EDDAV:  cpu time   35.4969: real time   35.5812
    --------------------------------------------
      LOOP:  cpu time   35.4968: real time   35.5811

 eigenvalue-minimisations  : 16896
 total energy-change (2. order) :-0.4058667E+04  (-0.3691164E+04)
 number of electron     352.0000000 magnetization 
 augmentation part      352.0000000 magnetization 

 Free energy of the ion-electron system (eV)
  ---------------------------------------------------
  alpha Z        PSCENC =      1125.84681573
  Ewald energy   TEWEN  =    -20826.70632791
  -Hartree energ DENC   =    -11202.57145585
  -exchange      EXHF   =         0.00000000
  -V(xc)+E(xc)   XCENC  =      1411.57540075
  PAW double counting   =     26475.20327555   -27591.76617206
  entropy T*S    EENTRO =        -0.02653824
  eigenvalues    EBANDS =       139.36164442
  atomic energy  EATOM  =     31013.67235384
  Solvation  Ediel_sol  =         0.00000000
  ---------------------------------------------------
  free energy    TOTEN  =       544.58899623 eV

  energy without entropy =      544.61553447  energy(sigma->0) =      544.60226535


--------------------------------------------------------------------------------------------------------




--------------------------------------- Iteration      1(   3)  ---------------------------------------


     EDDAV:  cpu time   34.3226: real time   34.4039
    --------------------------------------------
      LOOP:  cpu time   34.3217: real time   34.4031

 eigenvalue-minimisations  : 17088
 total energy-change (2. order) :-0.8811737E+03  (-0.7786862E+03)
 number of electron     352.0000000 magnetization 
 augmentation part      352.0000000 magnetization 

 Free energy of the ion-electron system (eV)
  ---------------------------------------------------
  alpha Z        PSCENC =      1125.84681573
  Ewald energy   TEWEN  =    -20826.70632791
  -Hartree energ DENC   =    -11202.57145585
  -exchange      EXHF   =         0.00000000
  -V(xc)+E(xc)   XCENC  =      1411.57540075
  PAW double counting   =     26475.20327555   -27591.76617206
  entropy T*S    EENTRO =        -0.00000000
  eigenvalues    EBANDS =      -741.83857884
  atomic energy  EATOM  =     31013.67235384
  Solvation  Ediel_sol  =         0.00000000
  ---------------------------------------------------
  free energy    TOTEN  =      -336.58468879 eV

  energy without entropy =     -336.58468879  energy(sigma->0) =     -336.58468879


--------------------------------------------------------------------------------------------------------




--------------------------------------- Iteration      1(   4)  ---------------------------------------


     EDDAV:  cpu time   33.6074: real time   33.6870
    --------------------------------------------
      LOOP:  cpu time   33.6074: real time   33.6870

 eigenvalue-minimisations  : 17280
 total energy-change (2. order) :-0.7735216E+02  (-0.7598516E+02)
 number of electron     352.0000000 magnetization 
 augmentation part      352.0000000 magnetization 

 Free energy of the ion-electron system (eV)
  ---------------------------------------------------
  alpha Z        PSCENC =      1125.84681573
  Ewald energy   TEWEN  =    -20826.70632791
  -Hartree energ DENC   =    -11202.57145585
  -exchange      EXHF   =         0.00000000
  -V(xc)+E(xc)   XCENC  =      1411.57540075
  PAW double counting   =     26475.20327555   -27591.76617206
  entropy T*S    EENTRO =        -0.00000000
  eigenvalues    EBANDS =      -819.19074007
  atomic energy  EATOM  =     31013.67235384
  Solvation  Ediel_sol  =         0.00000000
  ---------------------------------------------------
  free energy    TOTEN  =      -413.93685002 eV

  energy without entropy =     -413.93685002  energy(sigma->0) =     -413.93685002


--------------------------------------------------------------------------------------------------------




--------------------------------------- Iteration      1(   5)  ---------------------------------------


     EDDAV:  cpu time   34.8676: real time   34.9505
    CHARGE:  cpu time    1.2900: real time    1.2931
    MIXING:  cpu time    0.0040: real time    0.0058
    --------------------------------------------
      LOOP:  cpu time   36.1606: real time   36.2485

 eigenvalue-minimisations  : 17456
 total energy-change (2. order) :-0.2108422E+01  (-0.2098515E+01)
 number of electron     352.0000018 magnetization 
 augmentation part      100.3568543 magnetization 

 Broyden mixing:
  rms(total) = 0.11444E+02    rms(broyden)= 0.11437E+02
  rms(prec ) = 0.15067E+02
  weight for this iteration     100.00

 Free energy of the ion-electron system (eV)
  ---------------------------------------------------
  alpha Z        PSCENC =      1125.84681573
  Ewald energy   TEWEN  =    -20826.70632791
  -Hartree energ DENC   =    -11202.57145585
  -exchange      EXHF   =         0.00000000
  -V(xc)+E(xc)   XCENC  =      1411.57540075
  PAW double counting   =     26475.20327555   -27591.76617206
  entropy T*S    EENTRO =        -0.00000000
  eigenvalues    EBANDS =      -821.29916203
  atomic energy  EATOM  =     31013.67235384
  Solvation  Ediel_sol  =         0.00000000
  ---------------------------------------------------
  free energy    TOTEN  =      -416.04527198 eV

  energy without entropy =     -416.04527198  energy(sigma->0) =     -416.04527198


--------------------------------------------------------------------------------------------------------




--------------------------------------- Iteration      1(   6)  ---------------------------------------


    POTLOK:  cpu time    0.0551: real time    0.0553
    SETDIJ:  cpu time    0.0069: real time    0.0069
     EDDAV:  cpu time   47.4003: real time   47.5126
    CHARGE:  cpu time    1.2229: real time    1.2258
    MIXING:  cpu time    0.0019: real time    0.0019
    --------------------------------------------
      LOOP:  cpu time   48.6871: real time   48.8025

 eigenvalue-minimisations  : 25120
 total energy-change (2. order) :-0.9691469E+02  (-0.9788857E+02)
 number of electron     352.0000044 magnetization 
 augmentation part      138.0573906 magnetization 

 Broyden mixing:
  rms(total) = 0.19548E+02    rms(broyden)= 0.19545E+02
  rms(prec ) = 0.22724E+02
  weight for this iteration     100.00

 eigenvalues of (default mixing * dielectric matrix)
  average eigenvalue GAMMA=   0.2057
  0.2057

 Free energy of the ion-electron system (eV)
  ---------------------------------------------------
  alpha Z        PSCENC =      1125.84681573
  Ewald energy   TEWEN  =    -20826.70632791
  -Hartree energ DENC   =    -10571.85001998
  -exchange      EXHF   =         0.00000000
  -V(xc)+E(xc)   XCENC  =      1407.54477224
  PAW double counting   =     29303.01020903   -30231.12327304
  entropy T*S    EENTRO =        -0.04305732
  eigenvalues    EBANDS =     -1733.31142978
  atomic energy  EATOM  =     31013.67235384
  Solvation  Ediel_sol  =         0.00000000
  ---------------------------------------------------
  free energy    TOTEN  =      -512.95995719 eV

  energy without entropy =     -512.91689987  energy(sigma->0) =     -512.93842853


--------------------------------------------------------------------------------------------------------




--------------------------------------- Iteration      1(   7)  ---------------------------------------


    POTLOK:  cpu time    0.0547: real time    0.0549
    SETDIJ:  cpu time    0.0072: real time    0.0073
     EDDAV:  cpu time   41.8712: real time   41.9704
    CHARGE:  cpu time    1.0598: real time    1.0624
    MIXING:  cpu time    0.0020: real time    0.0020
    --------------------------------------------
      LOOP:  cpu time   42.9949: real time   43.0969

 eigenvalue-minimisations  : 23024
 total energy-change (2. order) : 0.2060389E+03  (-0.2564126E+02)
 number of electron     352.0000035 magnetization 
 augmentation part      122.2365871 magnetization 

 Broyden mixing:
  rms(total) = 0.50013E+01    rms(broyden)= 0.50001E+01
  rms(prec ) = 0.65884E+01
  weight for this iteration     100.00

 eigenvalues of (default mixing * dielectric matrix)
  average eigenvalue GAMMA=   0.6075
  0.6075  0.6075

 Free energy of the ion-electron system (eV)
  ---------------------------------------------------
  alpha Z        PSCENC =      1125.84681573
  Ewald energy   TEWEN  =    -20826.70632791
  -Hartree energ DENC   =    -10849.94620909
  -exchange      EXHF   =         0.00000000
  -V(xc)+E(xc)   XCENC  =      1411.57067478
  PAW double counting   =     30742.46347265   -31816.83730844
  entropy T*S    EENTRO =        -0.00295950
  eigenvalues    EBANDS =     -1106.98156659
  atomic energy  EATOM  =     31013.67235384
  Solvation  Ediel_sol  =         0.00000000
  ---------------------------------------------------
  free energy    TOTEN  =      -306.92105453 eV

  energy without entropy =     -306.91809503  energy(sigma->0) =     -306.91957478


--------------------------------------------------------------------------------------------------------




--------------------------------------- Iteration      1(   8)  ---------------------------------------


    POTLOK:  cpu time    0.0506: real time    0.0507
    SETDIJ:  cpu time    0.0065: real time    0.0065
     EDDAV:  cpu time   49.0045: real time   49.1205
    CHARGE:  cpu time    1.1727: real time    1.1755
    MIXING:  cpu time    0.0020: real time    0.0020
    --------------------------------------------
      LOOP:  cpu time   50.2364: real time   50.3554

 eigenvalue-minimisations  : 25424
 total energy-change (2. order) : 0.4518720E+01  (-0.9360092E+01)
 number of electron     352.0000026 magnetization 
 augmentation part      113.4949850 magnetization 

 Broyden mixing:
  rms(total) = 0.39412E+01    rms(broyden)= 0.39390E+01
  rms(prec ) = 0.55202E+01
  weight for this iteration     100.00

 eigenvalues of (default mixing * dielectric matrix)
  average eigenvalue GAMMA=   0.5780
  0.9398  0.3972  0.3972

 Free energy of the ion-electron system (eV)
  ---------------------------------------------------
  alpha Z        PSCENC =      1125.84681573
  Ewald energy   TEWEN  =    -20826.70632791
  -Hartree energ DENC   =    -10876.34091424
  -exchange      EXHF   =         0.00000000
  -V(xc)+E(xc)   XCENC  =      1407.12207733
  PAW double counting   =     32068.87673067   -33210.98983227
  entropy T*S    EENTRO =        -0.00000000
  eigenvalues    EBANDS =     -1003.88323812
  atomic energy  EATOM  =     31013.67235384
  Solvation  Ediel_sol  =         0.00000000
  ---------------------------------------------------
  free energy    TOTEN  =      -302.40233498 eV

  energy without entropy =     -302.40233498  energy(sigma->0) =     -302.40233498


--------------------------------------------------------------------------------------------------------




--------------------------------------- Iteration      1(   9)  ---------------------------------------


    POTLOK:  cpu time    0.0594: real time    0.0595
    SETDIJ:  cpu time    0.0077: real time    0.0077
     EDDAV:  cpu time   43.3001: real time   43.4028
    CHARGE:  cpu time    1.3120: real time    1.3152
    MIXING:  cpu time    0.0022: real time    0.0022
    --------------------------------------------
      LOOP:  cpu time   44.6814: real time   44.7874

 eigenvalue-minimisations  : 23808
 total energy-change (2. order) : 0.5342959E+01  (-0.4365650E+01)
 number of electron     352.0000031 magnetization 
 augmentation part      112.9240527 magnetization 

 Broyden mixing:
  rms(total) = 0.30190E+01    rms(broyden)= 0.30180E+01
  rms(prec ) = 0.43426E+01
  weight for this iteration     100.00

 eigenvalues of (default mixing * dielectric matrix)
  average eigenvalue GAMMA=   0.5785
  1.2087  0.4136  0.4136  0.2782

 Free energy of the ion-electron system (eV)
  ---------------------------------------------------
  alpha Z        PSCENC =      1125.84681573
  Ewald energy   TEWEN  =    -20826.70632791
  -Hartree energ DENC   =    -10846.65037972
  -exchange      EXHF   =         0.00000000
  -V(xc)+E(xc)   XCENC  =      1405.15759390
  PAW double counting   =     32925.12570079   -34077.45866799
  entropy T*S    EENTRO =        -0.01218120
  eigenvalues    EBANDS =     -1016.03428347
  atomic energy  EATOM  =     31013.67235384
  Solvation  Ediel_sol  =         0.00000000
  ---------------------------------------------------
  free energy    TOTEN  =      -297.05937603 eV

  energy without entropy =     -297.04719484  energy(sigma->0) =     -297.05328544


--------------------------------------------------------------------------------------------------------




--------------------------------------- Iteration      1(  10)  ---------------------------------------


    POTLOK:  cpu time    0.0587: real time    0.0589
    SETDIJ:  cpu time    0.0075: real time    0.0075
     EDDAV:  cpu time   46.0663: real time   46.1755
    CHARGE:  cpu time    1.2761: real time    1.2791
    MIXING:  cpu time    0.0021: real time    0.0021
    --------------------------------------------
      LOOP:  cpu time   47.4107: real time   47.5231

 eigenvalue-minimisations  : 24752
 total energy-change (2. order) : 0.3435500E+01  (-0.1314027E+01)
 number of electron     352.0000027 magnetization 
 augmentation part      113.7624095 magnetization 

 Broyden mixing:
  rms(total) = 0.17876E+01    rms(broyden)= 0.17869E+01
  rms(prec ) = 0.24936E+01
  weight for this iteration     100.00

 eigenvalues of (default mixing * dielectric matrix)
  average eigenvalue GAMMA=   0.6575
  1.6644  0.5187  0.5187  0.3964  0.1892

 Free energy of the ion-electron system (eV)
  ---------------------------------------------------
  alpha Z        PSCENC =      1125.84681573
  Ewald energy   TEWEN  =    -20826.70632791
  -Hartree energ DENC   =    -10830.78867104
  -exchange      EXHF   =         0.00000000
  -V(xc)+E(xc)   XCENC  =      1404.90337319
  PAW double counting   =     33441.43197310   -34597.20132702
  entropy T*S    EENTRO =        -0.00000000
  eigenvalues    EBANDS =     -1024.78206548
  atomic energy  EATOM  =     31013.67235384
  Solvation  Ediel_sol  =         0.00000000
  ---------------------------------------------------
  free energy    TOTEN  =      -293.62387559 eV

  energy without entropy =     -293.62387559  energy(sigma->0) =     -293.62387559


--------------------------------------------------------------------------------------------------------




--------------------------------------- Iteration      1(  11)  ---------------------------------------


    POTLOK:  cpu time    0.0570: real time    0.0572
    SETDIJ:  cpu time    0.0069: real time    0.0069
     EDDAV:  cpu time   45.6206: real time   45.7288
    CHARGE:  cpu time    1.1381: real time    1.1408
    MIXING:  cpu time    0.0025: real time    0.0025
    --------------------------------------------
      LOOP:  cpu time   46.8251: real time   46.9361

 eigenvalue-minimisations  : 24192
 total energy-change (2. order) : 0.1687056E+01  (-0.5397414E+00)
 number of electron     352.0000029 magnetization 
 augmentation part      115.2227206 magnetization 

 Broyden mixing:
  rms(total) = 0.82889E+00    rms(broyden)= 0.82832E+00
  rms(prec ) = 0.11485E+01
  weight for this iteration     100.00

 eigenvalues of (default mixing * dielectric matrix)
  average eigenvalue GAMMA=   0.6494
  1.8650  0.5332  0.5332  0.4312  0.3422  0.1916

 Free energy of the ion-electron system (eV)
  ---------------------------------------------------
  alpha Z        PSCENC =      1125.84681573
  Ewald energy   TEWEN  =    -20826.70632791
  -Hartree energ DENC   =    -10824.27915265
  -exchange      EXHF   =         0.00000000
  -V(xc)+E(xc)   XCENC  =      1405.62182234
  PAW double counting   =     34256.24535614   -35419.43150452
  entropy T*S    EENTRO =        -0.00000000
  eigenvalues    EBANDS =     -1022.90618296
  atomic energy  EATOM  =     31013.67235384
  Solvation  Ediel_sol  =         0.00000000
  ---------------------------------------------------
  free energy    TOTEN  =      -291.93682000 eV

  energy without entropy =     -291.93682000  energy(sigma->0) =     -291.93682000


--------------------------------------------------------------------------------------------------------




--------------------------------------- Iteration      1(  12)  ---------------------------------------


    POTLOK:  cpu time    0.0560: real time    0.0561
    SETDIJ:  cpu time    0.0069: real time    0.0069
     EDDAV:  cpu time   42.6339: real time   42.7349
    CHARGE:  cpu time    1.0745: real time    1.0771
    MIXING:  cpu time    0.0026: real time    0.0026
    --------------------------------------------
      LOOP:  cpu time   43.7739: real time   43.8776

 eigenvalue-minimisations  : 23712
 total energy-change (2. order) : 0.2566520E+00  (-0.2350179E+00)
 number of electron     352.0000030 magnetization 
 augmentation part      115.5018582 magnetization 

 Broyden mixing:
  rms(total) = 0.52336E+00    rms(broyden)= 0.52301E+00
  rms(prec ) = 0.68539E+00
  weight for this iteration     100.00

 eigenvalues of (default mixing * dielectric matrix)
  average eigenvalue GAMMA=   0.6324
  1.9740  0.5243  0.5243  0.4715  0.4715  0.1890  0.2720

 Free energy of the ion-electron system (eV)
  ---------------------------------------------------
  alpha Z        PSCENC =      1125.84681573
  Ewald energy   TEWEN  =    -20826.70632791
  -Hartree energ DENC   =    -10829.52534054
  -exchange      EXHF   =         0.00000000
  -V(xc)+E(xc)   XCENC  =      1406.29508707
  PAW double counting   =     34715.93238523   -35883.96028421
  entropy T*S    EENTRO =        -0.00000000
  eigenvalues    EBANDS =     -1013.23485719
  atomic energy  EATOM  =     31013.67235384
  Solvation  Ediel_sol  =         0.00000000
  ---------------------------------------------------
  free energy    TOTEN  =      -291.68016797 eV

  energy without entropy =     -291.68016797  energy(sigma->0) =     -291.68016797


--------------------------------------------------------------------------------------------------------




--------------------------------------- Iteration      1(  13)  ---------------------------------------


    POTLOK:  cpu time    0.0564: real time    0.0565
    SETDIJ:  cpu time    0.0067: real time    0.0067
     EDDAV:  cpu time   46.5424: real time   46.6528
    CHARGE:  cpu time    1.2281: real time    1.2310
    MIXING:  cpu time    0.0025: real time    0.0025
    --------------------------------------------
      LOOP:  cpu time   47.8360: real time   47.9496

 eigenvalue-minimisations  : 23792
 total energy-change (2. order) : 0.7257148E-01  (-0.7581664E-01)
 number of electron     352.0000029 magnetization 
 augmentation part      115.4320437 magnetization 

 Broyden mixing:
  rms(total) = 0.31497E+00    rms(broyden)= 0.31485E+00
  rms(prec ) = 0.37841E+00
  weight for this iteration     100.00

 eigenvalues of (default mixing * dielectric matrix)
  average eigenvalue GAMMA=   0.6664
  2.1912  0.6141  0.6141  0.5508  0.5508  0.3649  0.1905  0.2550

 Free energy of the ion-electron system (eV)
  ---------------------------------------------------
  alpha Z        PSCENC =      1125.84681573
  Ewald energy   TEWEN  =    -20826.70632791
  -Hartree energ DENC   =    -10833.74970910
  -exchange      EXHF   =         0.00000000
  -V(xc)+E(xc)   XCENC  =      1406.55261645
  PAW double counting   =     34960.43076719   -36131.47112124
  entropy T*S    EENTRO =        -0.00000000
  eigenvalues    EBANDS =     -1006.18299145
  atomic energy  EATOM  =     31013.67235384
  Solvation  Ediel_sol  =         0.00000000
  ---------------------------------------------------
  free energy    TOTEN  =      -291.60759649 eV

  energy without entropy =     -291.60759649  energy(sigma->0) =     -291.60759649


--------------------------------------------------------------------------------------------------------




--------------------------------------- Iteration      1(  14)  ---------------------------------------


    POTLOK:  cpu time    0.0597: real time    0.0598
    SETDIJ:  cpu time    0.0077: real time    0.0077
     EDDAV:  cpu time   38.7662: real time   38.8581
    CHARGE:  cpu time    1.2619: real time    1.2649
    MIXING:  cpu time    0.0025: real time    0.0025
    --------------------------------------------
      LOOP:  cpu time   40.0979: real time   40.1930

 eigenvalue-minimisations  : 20720
 total energy-change (2. order) : 0.8608643E-02  (-0.1866807E-01)
 number of electron     352.0000030 magnetization 
 augmentation part      115.3874710 magnetization 

 Broyden mixing:
  rms(total) = 0.22003E+00    rms(broyden)= 0.21999E+00
  rms(prec ) = 0.27467E+00
  weight for this iteration     100.00

 eigenvalues of (default mixing * dielectric matrix)
  average eigenvalue GAMMA=   0.6746
  2.2975  0.7770  0.7770  0.5314  0.5314  0.3652  0.3558  0.1896  0.2461

 Free energy of the ion-electron system (eV)
  ---------------------------------------------------
  alpha Z        PSCENC =      1125.84681573
  Ewald energy   TEWEN  =    -20826.70632791
  -Hartree energ DENC   =    -10835.54378644
  -exchange      EXHF   =         0.00000000
  -V(xc)+E(xc)   XCENC  =      1406.59240793
  PAW double counting   =     35220.60244287   -36394.36134938
  entropy T*S    EENTRO =        -0.00000000
  eigenvalues    EBANDS =     -1001.70154449
  atomic energy  EATOM  =     31013.67235384
  Solvation  Ediel_sol  =         0.00000000
  ---------------------------------------------------
  free energy    TOTEN  =      -291.59898785 eV

  energy without entropy =     -291.59898785  energy(sigma->0) =     -291.59898785


--------------------------------------------------------------------------------------------------------




--------------------------------------- Iteration      1(  15)  ---------------------------------------


    POTLOK:  cpu time    0.0577: real time    0.0578
    SETDIJ:  cpu time    0.0073: real time    0.0073
     EDDAV:  cpu time   36.1250: real time   36.2105
    CHARGE:  cpu time    1.2884: real time    1.2915
    MIXING:  cpu time    0.0024: real time    0.0024
    --------------------------------------------
      LOOP:  cpu time   37.4808: real time   37.5696

 eigenvalue-minimisations  : 18864
 total energy-change (2. order) : 0.7838669E-02  (-0.6876288E-02)
 number of electron     352.0000029 magnetization 
 augmentation part      115.3749406 magnetization 

 Broyden mixing:
  rms(total) = 0.14302E+00    rms(broyden)= 0.14297E+00
  rms(prec ) = 0.19029E+00
  weight for this iteration     100.00

 eigenvalues of (default mixing * dielectric matrix)
  average eigenvalue GAMMA=   0.7089
  2.4083  1.0189  1.0189  0.5339  0.5339  0.4654  0.3937  0.1900  0.2848  0.2415

 Free energy of the ion-electron system (eV)
  ---------------------------------------------------
  alpha Z        PSCENC =      1125.84681573
  Ewald energy   TEWEN  =    -20826.70632791
  -Hartree energ DENC   =    -10836.05490407
  -exchange      EXHF   =         0.00000000
  -V(xc)+E(xc)   XCENC  =      1406.56324951
  PAW double counting   =     35352.45688708   -36527.16885498
  entropy T*S    EENTRO =        -0.00000000
  eigenvalues    EBANDS =     -1000.20036839
  atomic energy  EATOM  =     31013.67235384
  Solvation  Ediel_sol  =         0.00000000
  ---------------------------------------------------
  free energy    TOTEN  =      -291.59114918 eV

  energy without entropy =     -291.59114918  energy(sigma->0) =     -291.59114918


--------------------------------------------------------------------------------------------------------




--------------------------------------- Iteration      1(  16)  ---------------------------------------


    POTLOK:  cpu time    0.0554: real time    0.0555
    SETDIJ:  cpu time    0.0066: real time    0.0066
     EDDAV:  cpu time   43.3123: real time   43.4151
    CHARGE:  cpu time    1.2334: real time    1.2363
    MIXING:  cpu time    0.0033: real time    0.0139
    --------------------------------------------
      LOOP:  cpu time   44.6111: real time   44.7275

 eigenvalue-minimisations  : 22048
 total energy-change (2. order) : 0.5896556E-02  (-0.2864308E-02)
 number of electron     352.0000030 magnetization 
 augmentation part      115.3740889 magnetization 

 Broyden mixing:
  rms(total) = 0.90469E-01    rms(broyden)= 0.90421E-01
  rms(prec ) = 0.12545E+00
  weight for this iteration     100.00

 eigenvalues of (default mixing * dielectric matrix)
  average eigenvalue GAMMA=   0.7271
  2.3914  1.2499  1.2499  0.5418  0.5418  0.4846  0.4846  0.3677  0.1899  0.2625
  0.2344

 Free energy of the ion-electron system (eV)
  ---------------------------------------------------
  alpha Z        PSCENC =      1125.84681573
  Ewald energy   TEWEN  =    -20826.70632791
  -Hartree energ DENC   =    -10837.02920879
  -exchange      EXHF   =         0.00000000
  -V(xc)+E(xc)   XCENC  =      1406.55103908
  PAW double counting   =     35447.03019506   -36622.10271385
  entropy T*S    EENTRO =        -0.00000000
  eigenvalues    EBANDS =      -998.84740578
  atomic energy  EATOM  =     31013.67235384
  Solvation  Ediel_sol  =         0.00000000
  ---------------------------------------------------
  free energy    TOTEN  =      -291.58525263 eV

  energy without entropy =     -291.58525263  energy(sigma->0) =     -291.58525263


--------------------------------------------------------------------------------------------------------




--------------------------------------- Iteration      1(  17)  ---------------------------------------


    POTLOK:  cpu time    0.0612: real time    0.0613
    SETDIJ:  cpu time    0.0070: real time    0.0070
     EDDAV:  cpu time   42.2136: real time   42.3136
    CHARGE:  cpu time    1.1855: real time    1.1883
    MIXING:  cpu time    0.0029: real time    0.0029
    --------------------------------------------
      LOOP:  cpu time   43.4702: real time   43.5732

 eigenvalue-minimisations  : 23152
 total energy-change (2. order) : 0.2639953E-02  (-0.1489328E-02)
 number of electron     352.0000029 magnetization 
 augmentation part      115.3671131 magnetization 

 Broyden mixing:
  rms(total) = 0.59027E-01    rms(broyden)= 0.58992E-01
  rms(prec ) = 0.86012E-01
  weight for this iteration     100.00

 eigenvalues of (default mixing * dielectric matrix)
  average eigenvalue GAMMA=   0.7287
  2.3380  1.8163  1.0507  0.5526  0.5526  0.5310  0.5310  0.3787  0.3149  0.1899
  0.2561  0.2321

 Free energy of the ion-electron system (eV)
  ---------------------------------------------------
  alpha Z        PSCENC =      1125.84681573
  Ewald energy   TEWEN  =    -20826.70632791
  -Hartree energ DENC   =    -10838.31041594
  -exchange      EXHF   =         0.00000000
  -V(xc)+E(xc)   XCENC  =      1406.57064029
  PAW double counting   =     35472.41528051   -36647.15190489
  entropy T*S    EENTRO =        -0.00000000
  eigenvalues    EBANDS =      -997.91905431
  atomic energy  EATOM  =     31013.67235384
  Solvation  Ediel_sol  =         0.00000000
  ---------------------------------------------------
  free energy    TOTEN  =      -291.58261267 eV

  energy without entropy =     -291.58261267  energy(sigma->0) =     -291.58261267


--------------------------------------------------------------------------------------------------------




--------------------------------------- Iteration      1(  18)  ---------------------------------------


    POTLOK:  cpu time    0.0554: real time    0.0555
    SETDIJ:  cpu time    0.0071: real time    0.0071
     EDDAV:  cpu time   41.5361: real time   41.6345
    CHARGE:  cpu time    1.2784: real time    1.2815
    MIXING:  cpu time    0.0030: real time    0.0030
    --------------------------------------------
      LOOP:  cpu time   42.8800: real time   42.9816

 eigenvalue-minimisations  : 21712
 total energy-change (2. order) : 0.1559042E-02  (-0.7797878E-03)
 number of electron     352.0000030 magnetization 
 augmentation part      115.3683992 magnetization 

 Broyden mixing:
  rms(total) = 0.35529E-01    rms(broyden)= 0.35499E-01
  rms(prec ) = 0.50830E-01
  weight for this iteration     100.00

 eigenvalues of (default mixing * dielectric matrix)
  average eigenvalue GAMMA=   0.7304
  2.2276  2.2276  0.9814  0.6417  0.6417  0.5279  0.5279  0.4112  0.3682  0.1899
  0.2773  0.2464  0.2262

 Free energy of the ion-electron system (eV)
  ---------------------------------------------------
  alpha Z        PSCENC =      1125.84681573
  Ewald energy   TEWEN  =    -20826.70632791
  -Hartree energ DENC   =    -10839.28845335
  -exchange      EXHF   =         0.00000000
  -V(xc)+E(xc)   XCENC  =      1406.60531959
  PAW double counting   =     35476.94976111   -36651.44227729
  entropy T*S    EENTRO =        -0.00000000
  eigenvalues    EBANDS =      -997.21824535
  atomic energy  EATOM  =     31013.67235384
  Solvation  Ediel_sol  =         0.00000000
  ---------------------------------------------------
  free energy    TOTEN  =      -291.58105363 eV

  energy without entropy =     -291.58105363  energy(sigma->0) =     -291.58105363


--------------------------------------------------------------------------------------------------------




--------------------------------------- Iteration      1(  19)  ---------------------------------------


    POTLOK:  cpu time    0.0573: real time    0.0574
    SETDIJ:  cpu time    0.0070: real time    0.0071
     EDDAV:  cpu time   46.1143: real time   46.2236
    CHARGE:  cpu time    1.1356: real time    1.1383
    MIXING:  cpu time    0.0031: real time    0.0031
    --------------------------------------------
      LOOP:  cpu time   47.3174: real time   47.4295

 eigenvalue-minimisations  : 24528
 total energy-change (2. order) : 0.5850178E-03  (-0.2721025E-03)
 number of electron     352.0000030 magnetization 
 augmentation part      115.3695058 magnetization 

 Broyden mixing:
  rms(total) = 0.19319E-01    rms(broyden)= 0.19308E-01
  rms(prec ) = 0.26841E-01
  weight for this iteration     100.00

 eigenvalues of (default mixing * dielectric matrix)
  average eigenvalue GAMMA=   0.7510
  2.3676  2.3676  0.9339  0.9339  0.7089  0.5300  0.5300  0.4783  0.3825  0.3631
  0.1899  0.2663  0.2392  0.2222

 Free energy of the ion-electron system (eV)
  ---------------------------------------------------
  alpha Z        PSCENC =      1125.84681573
  Ewald energy   TEWEN  =    -20826.70632791
  -Hartree energ DENC   =    -10839.92746038
  -exchange      EXHF   =         0.00000000
  -V(xc)+E(xc)   XCENC  =      1406.63815932
  PAW double counting   =     35477.17888684   -36651.54955056
  entropy T*S    EENTRO =        -0.00000000
  eigenvalues    EBANDS =      -996.73334550
  atomic energy  EATOM  =     31013.67235384
  Solvation  Ediel_sol  =         0.00000000
  ---------------------------------------------------
  free energy    TOTEN  =      -291.58046861 eV

  energy without entropy =     -291.58046861  energy(sigma->0) =     -291.58046861


--------------------------------------------------------------------------------------------------------




--------------------------------------- Iteration      1(  20)  ---------------------------------------


    POTLOK:  cpu time    0.0548: real time    0.0549
    SETDIJ:  cpu time    0.0072: real time    0.0072
     EDDAV:  cpu time   42.6492: real time   42.7502
    CHARGE:  cpu time    1.0390: real time    1.0415
    MIXING:  cpu time    0.0031: real time    0.0031
    --------------------------------------------
      LOOP:  cpu time   43.7533: real time   43.8569

 eigenvalue-minimisations  : 23680
 total energy-change (2. order) : 0.1243053E-03  (-0.9578171E-04)
 number of electron     352.0000030 magnetization 
 augmentation part      115.3708394 magnetization 

 Broyden mixing:
  rms(total) = 0.12809E-01    rms(broyden)= 0.12806E-01
  rms(prec ) = 0.17882E-01
  weight for this iteration     100.00

 eigenvalues of (default mixing * dielectric matrix)
  average eigenvalue GAMMA=   0.7625
  2.4725  2.4725  1.0921  1.0921  0.6366  0.5355  0.5355  0.5178  0.4453  0.3872
  0.3334  0.1899  0.2658  0.2399  0.2206

 Free energy of the ion-electron system (eV)
  ---------------------------------------------------
  alpha Z        PSCENC =      1125.84681573
  Ewald energy   TEWEN  =    -20826.70632791
  -Hartree energ DENC   =    -10840.72166715
  -exchange      EXHF   =         0.00000000
  -V(xc)+E(xc)   XCENC  =      1406.68659013
  PAW double counting   =     35480.90557782   -36655.22234104
  entropy T*S    EENTRO =        -0.00000000
  eigenvalues    EBANDS =      -996.04134573
  atomic energy  EATOM  =     31013.67235384
  Solvation  Ediel_sol  =         0.00000000
  ---------------------------------------------------
  free energy    TOTEN  =      -291.58034431 eV

  energy without entropy =     -291.58034431  energy(sigma->0) =     -291.58034431


--------------------------------------------------------------------------------------------------------




--------------------------------------- Iteration      1(  21)  ---------------------------------------


    POTLOK:  cpu time    0.0513: real time    0.0514
    SETDIJ:  cpu time    0.0066: real time    0.0066
     EDDAV:  cpu time   47.1000: real time   47.2118
    CHARGE:  cpu time    1.2279: real time    1.2308
    MIXING:  cpu time    0.0033: real time    0.0033
    --------------------------------------------
      LOOP:  cpu time   48.3890: real time   48.5038

 eigenvalue-minimisations  : 24192
 total energy-change (2. order) : 0.5683797E-04  (-0.5457072E-04)
 number of electron     352.0000030 magnetization 
 augmentation part      115.3728938 magnetization 

 Broyden mixing:
  rms(total) = 0.86721E-02    rms(broyden)= 0.86686E-02
  rms(prec ) = 0.12268E-01
  weight for this iteration     100.00

 eigenvalues of (default mixing * dielectric matrix)
  average eigenvalue GAMMA=   0.7670
  2.6584  2.3359  1.2449  1.2449  0.6359  0.6359  0.5361  0.5361  0.4787  0.3770
  0.3770  0.1899  0.3013  0.2630  0.2370  0.2202

 Free energy of the ion-electron system (eV)
  ---------------------------------------------------
  alpha Z        PSCENC =      1125.84681573
  Ewald energy   TEWEN  =    -20826.70632791
  -Hartree energ DENC   =    -10841.20211356
  -exchange      EXHF   =         0.00000000
  -V(xc)+E(xc)   XCENC  =      1406.72076168
  PAW double counting   =     35482.33749101   -36656.61562762
  entropy T*S    EENTRO =        -0.00000000
  eigenvalues    EBANDS =      -995.63364063
  atomic energy  EATOM  =     31013.67235384
  Solvation  Ediel_sol  =         0.00000000
  ---------------------------------------------------
  free energy    TOTEN  =      -291.58028747 eV

  energy without entropy =     -291.58028747  energy(sigma->0) =     -291.58028747


--------------------------------------------------------------------------------------------------------




--------------------------------------- Iteration      1(  22)  ---------------------------------------


    POTLOK:  cpu time    0.0593: real time    0.0595
    SETDIJ:  cpu time    0.0079: real time    0.0079
     EDDAV:  cpu time   43.4742: real time   43.5771
    CHARGE:  cpu time    1.2667: real time    1.2697
    MIXING:  cpu time    0.0038: real time    0.0038
    --------------------------------------------
      LOOP:  cpu time   44.8119: real time   44.9181

 eigenvalue-minimisations  : 24000
 total energy-change (2. order) : 0.2954273E-04  (-0.3025392E-04)
 number of electron     352.0000030 magnetization 
 augmentation part      115.3764960 magnetization 

 Broyden mixing:
  rms(total) = 0.43468E-02    rms(broyden)= 0.43417E-02
  rms(prec ) = 0.67365E-02
  weight for this iteration     100.00

 eigenvalues of (default mixing * dielectric matrix)
  average eigenvalue GAMMA=   0.7676
  2.6387  2.2519  1.7515  1.0008  0.7275  0.7275  0.5347  0.5347  0.4810  0.4810
  0.3862  0.3536  0.1899  0.2708  0.2612  0.2381  0.2199

 Free energy of the ion-electron system (eV)
  ---------------------------------------------------
  alpha Z        PSCENC =      1125.84681573
  Ewald energy   TEWEN  =    -20826.70632791
  -Hartree energ DENC   =    -10841.45383744
  -exchange      EXHF   =         0.00000000
  -V(xc)+E(xc)   XCENC  =      1406.74244894
  PAW double counting   =     35484.42649267   -36658.69199871
  entropy T*S    EENTRO =        -0.00000000
  eigenvalues    EBANDS =      -995.41620507
  atomic energy  EATOM  =     31013.67235384
  Solvation  Ediel_sol  =         0.00000000
  ---------------------------------------------------
  free energy    TOTEN  =      -291.58025793 eV

  energy without entropy =     -291.58025793  energy(sigma->0) =     -291.58025793


--------------------------------------------------------------------------------------------------------




--------------------------------------- Iteration      1(  23)  ---------------------------------------


    POTLOK:  cpu time    0.0573: real time    0.0575
    SETDIJ:  cpu time    0.0074: real time    0.0074
     EDDAV:  cpu time   43.2930: real time   43.3955
    CHARGE:  cpu time    1.2835: real time    1.2865
    MIXING:  cpu time    0.0035: real time    0.0035
    --------------------------------------------
      LOOP:  cpu time   44.6448: real time   44.7505

 eigenvalue-minimisations  : 23152
 total energy-change (2. order) : 0.7100083E-05  (-0.1024867E-04)
 number of electron     352.0000030 magnetization 
 augmentation part      115.3787389 magnetization 

 Broyden mixing:
  rms(total) = 0.28409E-02    rms(broyden)= 0.28391E-02
  rms(prec ) = 0.40934E-02
  weight for this iteration     100.00

 eigenvalues of (default mixing * dielectric matrix)
  average eigenvalue GAMMA=   0.7638
  2.5856  2.0814  2.0814  0.8920  0.8417  0.8417  0.5408  0.5408  0.5182  0.5182
  0.4037  0.3657  0.3657  0.1899  0.2698  0.2557  0.2369  0.2199

 Free energy of the ion-electron system (eV)
  ---------------------------------------------------
  alpha Z        PSCENC =      1125.84681573
  Ewald energy   TEWEN  =    -20826.70632791
  -Hartree energ DENC   =    -10841.41377758
  -exchange      EXHF   =         0.00000000
  -V(xc)+E(xc)   XCENC  =      1406.74387701
  PAW double counting   =     35484.49773535   -36658.74427166
  entropy T*S    EENTRO =        -0.00000000
  eigenvalues    EBANDS =      -995.47665560
  atomic energy  EATOM  =     31013.67235384
  Solvation  Ediel_sol  =         0.00000000
  ---------------------------------------------------
  free energy    TOTEN  =      -291.58025083 eV

  energy without entropy =     -291.58025083  energy(sigma->0) =     -291.58025083


--------------------------------------------------------------------------------------------------------




--------------------------------------- Iteration      1(  24)  ---------------------------------------


    POTLOK:  cpu time    0.0562: real time    0.0564
    SETDIJ:  cpu time    0.0071: real time    0.0071
     EDDAV:  cpu time   24.6007: real time   24.6591
    --------------------------------------------
      LOOP:  cpu time   24.6653: real time   24.7238

 eigenvalue-minimisations  :  9904
 total energy-change (2. order) : 0.3667701E-05  (-0.2014232E-05)
 number of electron     352.0000030 magnetization 
 augmentation part      115.3787389 magnetization 

 Free energy of the ion-electron system (eV)
  ---------------------------------------------------
  alpha Z        PSCENC =      1125.84681573
  Ewald energy   TEWEN  =    -20826.70632791
  -Hartree energ DENC   =    -10841.31645466
  -exchange      EXHF   =         0.00000000
  -V(xc)+E(xc)   XCENC  =      1406.73829003
  PAW double counting   =     35484.47332358   -36658.70504619
  entropy T*S    EENTRO =        -0.00000000
  eigenvalues    EBANDS =      -995.58320158
  atomic energy  EATOM  =     31013.67235384
  Solvation  Ediel_sol  =         0.00000000
  ---------------------------------------------------
  free energy    TOTEN  =      -291.58024716 eV

  energy without entropy =     -291.58024716  energy(sigma->0) =     -291.58024716


--------------------------------------------------------------------------------------------------------




 average (electrostatic) potential at core
  the test charge radii are     0.9791  0.7215
  (the norm of the test charge is              1.0000)
       1 -88.9488       2 -89.0498       3 -88.9950       4 -88.8729       5 -89.1788
       6 -89.1842       7 -89.0393       8 -88.9806       9 -88.9997      10 -89.4616
      11 -89.3280      12 -89.1057      13 -89.1195      14 -89.0947      15 -88.8967
      16 -88.9852      17 -71.8953      18 -72.1993      19 -72.3865      20 -72.0011
      21 -72.0248      22 -72.1299      23 -72.3249      24 -71.8865      25 -72.0592
      26 -71.8345      27 -72.1953      28 -71.9962      29 -72.2614      30 -72.0364
      31 -72.2098      32 -72.2120      33 -71.9213      34 -72.3750      35 -72.0449
      36 -71.9261      37 -72.1374      38 -72.1943      39 -72.4728      40 -72.5512
      41 -72.0428      42 -71.8380      43 -72.5008      44 -72.0262      45 -72.4355
      46 -71.9304      47 -71.7715      48 -72.2483
 
 
 
 E-fermi :   3.3653     XC(G=0): -11.2471     alpha+bet :-10.8090


 k-point     1 :       0.0000    0.0000    0.0000
  band No.  band energies     occupation 
      1     -16.9698      2.00000
      2     -16.4426      2.00000
      3     -16.1901      2.00000
      4     -16.0992      2.00000
      5     -15.9927      2.00000
      6     -15.9758      2.00000
      7     -15.6924      2.00000
      8     -15.2566      2.00000
      9     -15.2414      2.00000
     10     -15.0241      2.00000
     11     -14.9279      2.00000
     12     -14.8488      2.00000
     13     -14.8201      2.00000
     14     -14.8041      2.00000
     15     -14.7271      2.00000
     16     -14.6836      2.00000
     17     -14.6695      2.00000
     18     -14.5922      2.00000
[...]
 total augmentation occupancy for first ion, spin component:           1
  7.808   0.041  -0.245   0.025  -0.080  -4.847  -0.099   0.415  -0.054   0.020  -0.569   0.124   0.273   0.029  -0.139  -0.035
  0.041   7.922   0.125   0.043  -0.164  -0.098  -4.915  -0.181  -0.087   0.286  -0.450   0.100   0.254  -0.019   0.028  -0.033
 -0.245   0.125   3.577   0.114   0.045   0.366  -0.163  -3.707  -0.117  -0.130   0.107  -0.034  -0.052   0.003   0.069   0.012
  0.025   0.043   0.114   8.048   0.317  -0.055  -0.087  -0.121  -4.991  -0.274  -0.218   0.092   0.039   0.197   0.159  -0.003
 -0.080  -0.164   0.045   0.317   3.899   0.019   0.254  -0.132  -0.266  -4.046   0.215  -0.040  -0.160  -0.034  -0.184   0.035
 -4.847  -0.098   0.366  -0.055   0.019   3.887   0.148  -0.509   0.080   0.025   0.556  -0.127  -0.262  -0.028   0.135   0.039
 -0.099  -4.915  -0.163  -0.087   0.254   0.148   3.916   0.209   0.124  -0.358   0.441  -0.102  -0.246   0.018  -0.028   0.037
  0.415  -0.181  -3.707  -0.121  -0.132  -0.509   0.209   5.088   0.127   0.216  -0.109   0.033   0.059   0.012  -0.103  -0.012
 -0.054  -0.087  -0.117  -4.991  -0.266   0.080   0.124   0.127   3.957   0.240   0.208  -0.079  -0.037  -0.188  -0.155   0.004
  0.020   0.286  -0.130  -0.274  -4.046   0.025  -0.358   0.216   0.240   5.437  -0.252   0.053   0.179   0.033   0.241  -0.037
 -0.569  -0.450   0.107  -0.218   0.215   0.556   0.441  -0.109   0.208  -0.252   2.924  -0.611  -0.034  -0.060   0.027   0.006
  0.124   0.100  -0.034   0.092  -0.040  -0.127  -0.102   0.033  -0.079   0.053  -0.611   0.182   0.008   0.019   0.000  -0.002
  0.273   0.254  -0.052   0.039  -0.160  -0.262  -0.246   0.059  -0.037   0.179  -0.034   0.008   0.602   0.039   0.048  -0.100
  0.029  -0.019   0.003   0.197  -0.034  -0.028   0.018   0.012  -0.188   0.033  -0.060   0.019   0.039   0.552   0.018  -0.008
 -0.139   0.028   0.069   0.159  -0.184   0.135  -0.028  -0.103  -0.155   0.241   0.027   0.000   0.048   0.018   0.528  -0.010
 -0.035  -0.033   0.012  -0.003   0.035   0.039   0.037  -0.012   0.004  -0.037   0.006  -0.002  -0.100  -0.008  -0.010   0.023
 -0.004  -0.003   0.006  -0.028   0.005   0.005   0.000  -0.007   0.030  -0.005   0.017  -0.005  -0.008  -0.091  -0.004   0.002
  0.014  -0.003  -0.022  -0.023   0.045  -0.018   0.004   0.027   0.026  -0.054  -0.002   0.000  -0.010  -0.004  -0.090   0.003


------------------------ aborting loop because EDIFF is reached ----------------------------------------


    CHARGE:  cpu time    1.2578: real time    1.2609
    FORLOC:  cpu time    0.0277: real time    0.0278
    FORNL :  cpu time    9.8241: real time    9.8473
    STRESS:  cpu time   29.8098: real time   29.8805
    FORCOR:  cpu time    0.0801: real time    0.0803
    FORHAR:  cpu time    0.0373: real time    0.0374
    MIXING:  cpu time    0.0036: real time    0.0036
    OFIELD:  cpu time    0.0001: real time    0.0000

  FORCE on cell =-STRESS in cart. coord.  units (eV):
  Direction    XX          YY          ZZ          XY          YZ          ZX
  --------------------------------------------------------------------------------------
  Alpha Z  1125.84682  1125.84682  1125.84682
  Ewald   -7019.43909 -6972.81878 -6834.56961   290.73252  -106.50912  -123.28474
  Hartree  3583.19597  3612.05132  3646.05918   196.44486   -68.40504   -78.03289
  E(xc)   -1796.75050 -1796.69063 -1797.01782     0.11487    -0.01157    -0.02765
  Local   -3511.21422 -3591.77108 -3745.78874  -476.55451   169.93024   195.26418
  n-local  -765.77522  -767.16074  -760.51712     0.92511    -0.48688    -0.99811
  augment  2995.81047  2997.01856  2989.22308    -4.53708     2.60165     2.96942
  Kinetic  5392.19411  5396.21160  5394.20423    -8.73768     2.15738     3.78794
  Fock        0.00000     0.00000     0.00000     0.00000     0.00000     0.00000
  -------------------------------------------------------------------------------------
  Total        3.8683401      2.6870625     17.4400173     -1.6119217     -0.7233538     -0.3218467
  in kB       12.7309471      8.8432891     57.3961776     -5.3049341     -2.3806021     -1.0592174
  external PRESSURE =      26.3234713 kB  Pullay stress =       0.0000000 kB


 VOLUME and BASIS-vectors are now :
 -----------------------------------------------------------------------------
  energy-cutoff  :      500.00
  volume of cell :      486.83
      direct lattice vectors                 reciprocal lattice vectors
     7.866680420  0.000000000  0.000000000     0.127118422  0.000000000  0.000000000
     0.000000000  7.866680420  0.000000000     0.000000000  0.127118422  0.000000000
     0.000000000  0.000000000  7.866680420     0.000000000  0.000000000  0.127118422

  length of vectors
     7.866680420  7.866680420  7.866680420     0.127118422  0.127118422  0.127118422


 FORCES acting on ions
    electron-ion (+dipol)            ewald-force                    non-local-force                 convergence-correction
 -----------------------------------------------------------------------------------------------
   -.286E+02 0.196E+02 -.547E+02   0.284E+02 -.188E+02 0.544E+02   -.184E+01 0.434E+00 -.929E+00   -.151E-01 -.118E-01 0.547E-02
   0.158E+02 -.200E+02 -.856E+02   -.159E+02 0.195E+02 0.870E+02   0.172E+00 0.765E+00 -.156E+00   0.568E-02 0.963E-02 -.111E-02
   0.367E+02 0.164E+02 0.588E+02   -.364E+02 -.170E+02 -.597E+02   -.222E-01 -.473E+00 -.109E+01   -.227E-02 0.614E-02 0.133E-01
   0.131E+02 0.678E+01 0.322E+02   -.140E+02 -.794E+01 -.322E+02   -.182E+01 -.424E+00 -.463E+00   0.145E-02 -.626E-02 0.887E-02
   -.607E+01 0.561E+02 0.178E+02   0.768E+01 -.565E+02 -.214E+02   0.117E+01 0.117E+01 -.780E+00   -.127E-01 0.542E-02 0.227E-01
   0.278E+02 -.272E+02 -.719E+01   -.281E+02 0.268E+02 0.767E+01   0.675E+00 0.472E+00 0.513E+00   0.112E-02 0.654E-02 0.218E-02
   -.846E+01 0.292E+01 0.356E+02   0.101E+02 -.168E+01 -.365E+02   0.972E-01 0.211E+00 0.530E+00   -.141E-01 -.162E-03 0.103E-01
   0.256E+02 -.157E+02 -.749E+01   -.254E+02 0.172E+02 0.847E+01   -.183E+00 -.787E+00 0.260E+00   -.542E-02 -.193E-01 -.198E-02
   -.974E+01 0.711E+02 -.172E+02   0.902E+01 -.714E+02 0.173E+02   -.105E+01 0.147E+01 0.472E+00   -.113E-01 -.209E-02 0.465E-02
   -.117E+02 -.733E+02 -.254E+02   0.171E+02 0.732E+02 0.299E+02   0.132E+01 -.533E+00 0.172E+01   -.154E-02 0.101E-01 -.459E-02
   -.483E+02 0.297E+02 0.470E+02   0.495E+02 -.331E+02 -.513E+02   -.337E+00 -.139E+01 -.181E+01   -.805E-02 -.261E-02 0.188E-01
   0.569E+02 -.566E+02 -.223E+01   -.580E+02 0.578E+02 0.386E+01   0.712E+00 -.544E+00 -.118E+01   0.224E-02 -.338E-02 -.397E-02
   -.436E+02 0.143E+02 0.241E+02   0.457E+02 -.165E+02 -.259E+02   0.150E+01 -.973E+00 0.856E-01   -.126E-01 0.418E-02 0.547E-02
   0.492E+02 0.486E+02 -.833E+02   -.497E+02 -.512E+02 0.869E+02   0.702E+00 0.125E+01 0.117E+01   0.284E-04 0.137E-01 -.822E-02
   -.844E+01 0.508E+01 0.320E+02   0.952E+01 -.366E+01 -.321E+02   -.107E+01 -.568E+00 0.148E+01   -.891E-02 -.615E-02 0.942E-02
   -.231E+02 -.693E+02 -.371E+02   0.225E+02 0.722E+02 0.381E+02   -.862E+00 0.645E+00 -.888E+00   -.421E-02 -.115E-01 0.236E-02
   -.174E+03 0.204E+03 0.212E+03   0.185E+03 -.220E+03 -.230E+03   -.129E+02 0.152E+02 0.172E+02   0.753E-02 0.314E-02 -.902E-02
   -.201E+03 -.192E+03 -.182E+03   0.219E+03 0.209E+03 0.196E+03   -.181E+02 -.163E+02 -.150E+02   0.105E-01 0.793E-02 0.730E-02
   0.230E+03 -.192E+03 -.206E+03   -.250E+03 0.207E+03 0.222E+03   0.180E+02 -.149E+02 -.146E+02   -.979E-02 0.677E-02 0.265E-02
   -.178E+03 -.207E+03 0.198E+03   0.193E+03 0.226E+03 -.210E+03   -.167E+02 -.190E+02 0.131E+02   0.725E-02 0.800E-02 -.326E-02
   0.184E+03 0.164E+03 0.245E+03   -.197E+03 -.178E+03 -.263E+03   0.137E+02 0.145E+02 0.181E+02   -.642E-02 -.628E-02 0.360E-03
   -.207E+03 0.222E+03 -.208E+03   0.222E+03 -.241E+03 0.224E+03   -.144E+02 0.180E+02 -.154E+02   -.394E-02 -.122E-01 -.105E-02
   0.156E+03 0.239E+03 -.202E+03   -.168E+03 -.261E+03 0.219E+03   0.138E+02 0.203E+02 -.165E+02   -.869E-02 -.139E-01 0.112E-01
   0.198E+03 -.211E+03 0.159E+03   -.213E+03 0.225E+03 -.172E+03   0.167E+02 -.145E+02 0.153E+02   -.645E-02 0.916E-02 -.607E-02
   -.244E+03 0.230E+03 0.165E+03   0.265E+03 -.244E+03 -.175E+03   -.203E+02 0.138E+02 0.103E+02   0.587E-02 0.116E-02 0.430E-03
   -.199E+03 -.186E+03 -.202E+03   0.215E+03 0.199E+03 0.216E+03   -.170E+02 -.146E+02 -.158E+02   -.713E-03 0.476E-03 0.243E-03
   0.195E+03 -.206E+03 -.216E+03   -.209E+03 0.221E+03 0.235E+03   0.144E+02 -.157E+02 -.181E+02   -.532E-02 0.190E-02 0.786E-02
   -.178E+03 -.198E+03 0.226E+03   0.191E+03 0.214E+03 -.242E+03   -.142E+02 -.157E+02 0.164E+02   -.167E-02 -.270E-02 -.999E-02
   0.198E+03 0.200E+03 0.232E+03   -.213E+03 -.218E+03 -.250E+03   0.162E+02 0.176E+02 0.162E+02   -.516E-02 -.242E-02 -.668E-02
   -.190E+03 0.214E+03 -.198E+03   0.201E+03 -.231E+03 0.213E+03   -.100E+02 0.188E+02 -.155E+02   -.301E-02 -.478E-02 0.587E-02
   0.217E+03 0.236E+03 -.171E+03   -.235E+03 -.254E+03 0.185E+03   0.164E+02 0.164E+02 -.138E+02   0.777E-03 -.671E-02 0.650E-02
   0.238E+03 -.201E+03 0.211E+03   -.258E+03 0.214E+03 -.229E+03   0.176E+02 -.134E+02 0.176E+02   -.212E-02 0.364E-02 0.218E-02
   -.196E+03 0.217E+03 0.195E+03   0.210E+03 -.232E+03 -.211E+03   -.151E+02 0.151E+02 0.177E+02   0.562E-02 -.500E-03 -.273E-02
   -.239E+03 -.268E+03 -.156E+03   0.257E+03 0.293E+03 0.165E+03   -.171E+02 -.199E+02 -.846E+01   0.694E-02 0.147E-02 0.120E-02
   0.230E+03 -.204E+03 -.189E+03   -.249E+03 0.221E+03 0.203E+03   0.169E+02 -.173E+02 -.140E+02   -.764E-02 0.318E-02 0.978E-02
   -.216E+03 -.196E+03 0.194E+03   0.231E+03 0.211E+03 -.209E+03   -.155E+02 -.158E+02 0.153E+02   0.417E-02 0.653E-02 -.769E-02
   0.190E+03 0.190E+03 0.260E+03   -.205E+03 -.202E+03 -.282E+03   0.154E+02 0.127E+02 0.205E+02   -.164E-02 -.318E-02 0.131E-02
   -.242E+03 0.182E+03 -.196E+03   0.259E+03 -.198E+03 0.213E+03   -.146E+02 0.160E+02 -.166E+02   0.348E-04 -.623E-02 0.930E-02
   0.210E+03 0.187E+03 -.256E+03   -.227E+03 -.201E+03 0.280E+03   0.161E+02 0.132E+02 -.201E+02   -.683E-02 0.111E-02 0.838E-02
   0.281E+03 -.181E+03 0.192E+03   -.308E+03 0.192E+03 -.206E+03   0.217E+02 -.106E+02 0.135E+02   -.144E-02 0.804E-02 -.826E-02
   -.204E+03 0.221E+03 0.146E+03   0.221E+03 -.238E+03 -.159E+03   -.178E+02 0.162E+02 0.155E+02   0.111E-01 -.456E-02 -.526E-02
   -.190E+03 -.215E+03 -.168E+03   0.205E+03 0.231E+03 0.180E+03   -.164E+02 -.168E+02 -.133E+02   0.872E-02 0.550E-02 -.126E-02
   0.173E+03 -.197E+03 -.283E+03   -.185E+03 0.212E+03 0.309E+03   0.125E+02 -.154E+02 -.224E+02   -.121E-01 -.173E-02 0.300E-02
   -.203E+03 -.164E+03 0.216E+03   0.219E+03 0.177E+03 -.232E+03   -.158E+02 -.142E+02 0.166E+02   0.589E-02 0.768E-02 -.461E-02
   0.144E+03 0.188E+03 0.290E+03   -.153E+03 -.205E+03 -.317E+03   0.100E+02 0.173E+02 0.206E+02   -.864E-02 -.805E-02 0.655E-03
   -.200E+03 0.165E+03 -.224E+03   0.215E+03 -.177E+03 0.240E+03   -.172E+02 0.131E+02 -.159E+02   0.602E-02 -.637E-02 0.565E-02
   0.194E+03 0.182E+03 -.190E+03   -.210E+03 -.196E+03 0.205E+03   0.181E+02 0.147E+02 -.162E+02   -.800E-02 -.563E-02 0.101E-01
   0.186E+03 -.232E+03 0.179E+03   -.201E+03 0.253E+03 -.192E+03   0.154E+02 -.198E+02 0.137E+02   0.269E-02 0.109E-01 -.108E-01
 -----------------------------------------------------------------------------------------------
   0.955E+00 0.193E+00 -.495E+01   0.227E-12 -.654E-12 -.625E-12   -.839E+00 -.212E+00 0.483E+01   -.102E+00 -.610E-02 0.101E+00
 
 
 POSITION                                       TOTAL-FORCE (eV/Angst)
 -----------------------------------------------------------------------------------
      1.08618      4.89239      1.03286        -2.050494      1.210529     -1.127989
      2.98169      6.90122      0.97899         0.103817      0.349669      1.278063
      2.93566      4.93610      3.01569         0.208569     -1.146769     -1.909404
      1.08070      6.92810      2.98014        -2.662328     -1.596160     -0.441337
      0.93844      0.90272      5.01477         2.765206      0.765060     -4.338168
      2.90757      2.92797      4.89338         0.309914      0.118513      0.988047
      2.93101      0.94251      6.83968         1.772836      1.455304     -0.351564
      1.02003      2.96565      6.84993        -0.071329      0.645322      1.230434
      4.94677      4.81961      4.95027        -1.784226      1.211226      0.536444
      6.67361      6.94119      4.84504         6.700249     -0.640638      6.251980
      6.86970      5.05421      7.08909         0.856847     -4.839417     -6.090767
      4.90120      6.88987      6.91985        -0.385582      0.681290      0.447752
      4.84922      1.10548      1.01874         3.577091     -3.160512     -1.618254
      6.90055      3.02975      0.89153         0.277853     -1.326135      4.749500
      6.96788      0.98788      2.94836         0.007065      0.850199      1.412934
      4.98161      2.82831      2.99968        -1.511826      3.541797      0.132403
      6.91759      1.17488      1.18502        -1.550592     -0.234804     -1.318289
      2.90244      6.75800      2.86311        -0.223939      0.175832     -0.386638
      3.12581      0.90343      0.76733        -2.081482      0.023584      1.306008
      1.07168      0.86997      3.04747        -1.778191     -0.156962      1.030135
      3.01010      3.01025      3.08045         0.541650      0.680360     -0.590118
      0.86850      3.09316      0.84427         0.508980     -0.603389      0.037953
      4.91751      1.07944      2.82726         1.495730     -0.781417      0.521726
      0.99184      6.77914      0.97182         2.021166     -0.354080      1.915744
      6.71157      5.07348      5.03052         0.870515     -0.570939      0.580732
      2.94239      2.92102      6.84790        -1.278234     -1.376038     -1.391789
      3.04895      4.85349      4.80320         0.248147     -0.754280      0.760276
      0.93005      4.82284      7.01935        -0.500772      0.121683      0.339779
      3.00445      6.98088      7.09487         0.766387      0.014403     -1.986672
      0.70568      6.87968      4.82786         0.805359      1.170799      0.147993
      5.03955      5.07219      6.85549        -0.688648     -1.044552     -0.023961
      1.17076      2.82872      5.05279        -1.867027     -0.420043     -0.447120
      2.86555      1.04934      4.93797        -0.640043      0.097741      1.163089
      6.67415      6.67142      6.82110         1.059661      5.064175     -0.157835
      7.08205      0.99348      4.86707        -2.397249     -0.772064     -0.598854
      4.84776      0.93063      6.98690        -0.661572     -0.712792      0.340812
      6.97568      3.07873      7.03154         0.559154      0.623391     -1.880410
      4.63289      2.96068      4.82903         2.924094      0.326570     -0.056107
      1.12607      1.10007      6.68412        -0.510431     -0.100555      3.432738
      5.08069      6.72547      5.09115        -6.031477     -0.129502     -0.416932
      2.92434      5.09332      0.94716        -0.552064     -0.654515      2.182959
      6.89294      2.85518      2.99166        -1.109806     -0.507541     -1.629838
      6.99690      4.85453      0.88036         0.659878      0.023853      3.255085
      4.78285      4.83545      3.08275         0.317244     -1.266900      0.362020
      6.91077      7.00340      3.25011         1.108165      0.688989     -6.613960
      4.96603      7.00422      0.92131        -1.979994      0.984517     -0.321026
      0.95466      5.00315      2.91806         2.080156      1.002193     -0.857565
      5.06675      2.85403      1.13938        -0.228429      1.323007      0.149993
 -----------------------------------------------------------------------------------
    total drift:                                0.013669     -0.025763     -0.019930


--------------------------------------------------------------------------------------------------------



  FREE ENERGIE OF THE ION-ELECTRON SYSTEM (eV)
  ---------------------------------------------------
  free  energy   TOTEN  =      -291.5802471606 eV

  energy  without entropy=     -291.5802471606  energy(sigma->0) =     -291.58024716
 


--------------------------------------------------------------------------------------------------------


    POTLOK:  cpu time    0.0655: real time    0.0656


--------------------------------------------------------------------------------------------------------


     LOOP+:  cpu time 1048.4001: real time 1051.0575
    4ORBIT:  cpu time    0.0000: real time    0.0000

volume of typ            1:    20.9 %

volume of typ            2:    10.7 %
 
total charge     
 
# of ion       s       p       d       tot
------------------------------------------
    1        0.298   0.405   7.816   8.519
    2        0.300   0.412   7.825   8.537
    3        0.292   0.385   7.815   8.493
    4        0.286   0.370   7.815   8.471
    5        0.321   0.449   7.840   8.610
    6        0.324   0.473   7.833   8.630
    7        0.301   0.411   7.823   8.535
    8        0.298   0.406   7.820   8.523
    9        0.297   0.399   7.821   8.517
   10        0.358   0.514   7.885   8.757
   11        0.339   0.468   7.863   8.670
   12        0.308   0.432   7.833   8.573
   13        0.312   0.424   7.829   8.565
   14        0.313   0.429   7.837   8.579
   15        0.288   0.382   7.820   8.490
   16        0.295   0.392   7.822   8.510
   17        1.287   2.713   0.008   4.007
   18        1.284   2.728   0.009   4.021
   19        1.281   2.757   0.010   4.048
   20        1.292   2.689   0.007   3.988
   21        1.289   2.699   0.007   3.996
   22        1.283   2.738   0.009   4.030
   23        1.289   2.720   0.009   4.018
   24        1.295   2.666   0.006   3.967
   25        1.292   2.706   0.008   4.006
   26        1.294   2.674   0.006   3.974
   27        1.288   2.714   0.008   4.010
   28        1.289   2.702   0.007   3.998
   29        1.284   2.741   0.010   4.036
   30        1.290   2.703   0.007   4.000
   31        1.286   2.724   0.008   4.019
   32        1.284   2.748   0.010   4.042
   33        1.289   2.701   0.007   3.998
   34        1.283   2.780   0.012   4.075
   35        1.285   2.732   0.009   4.026
   36        1.288   2.698   0.007   3.993
   37        1.287   2.725   0.009   4.021
   38        1.282   2.753   0.010   4.045
   39        1.279   2.773   0.012   4.064
   40        1.281   2.786   0.013   4.080
   41        1.291   2.698   0.008   3.997
   42        1.294   2.673   0.006   3.973
   43        1.286   2.753   0.012   4.051
   44        1.289   2.696   0.007   3.992
   45        1.287   2.756   0.012   4.056
   46        1.294   2.677   0.006   3.977
   47        1.291   2.683   0.006   3.980
   48        1.281   2.747   0.010   4.038
--------------------------------------------------
tot          46.12   93.80  125.57  265.50
 

 total amount of memory used by VASP MPI-rank0   180146. kBytes
=======================================================================

   base      :      30000. kBytes
   nonlr-proj:      24915. kBytes
   fftplans  :       4751. kBytes
   grid      :      15225. kBytes
   one-center:        746. kBytes
   wavefun   :     104509. kBytes
 
  
  
 General timing and accounting informations for this job:
 ========================================================
  
                  Total CPU time used (sec):     1075.012
                            User time (sec):     1072.517
                          System time (sec):        2.495
                         Elapsed time (sec):     1081.384
  
                   Maximum memory used (kb):      233244.
                   Average memory used (kb):           0.
  
                          Minor page faults:        36142
                          Major page faults:           49
                 Voluntary context switches:         1238
