 vasp.5.4.4.18Apr17-6-g9f103f2a35 (build May 12 2020 04:58:55) complex          
  
 MD_VERSION_INFO: Compiled 2020-05-12T11:58:55-UTC in devlin.sd.materialsdesign.
 com:/home/medea2/data/build/wwolf/vasp-gpu5.4.4/13047/x86_64/src/src/build/std 
 from svn 13047
 
 This VASP executable licensed from Materials Design, Inc.
 
 executed on                        Lin64 date 2023.04.27  03:00:03
 running on   16 total cores
 distrk:  each k-point on   16 cores,    1 groups
 distr:  one band on NCORES_PER_BAND=   1 cores,   16 groups


--------------------------------------------------------------------------------------------------------


 INCAR:
 POTCAR:    PAW_PBE Ni 02Aug2007                  
 POTCAR:    PAW_PBE O 08Apr2002                   

 ----------------------------------------------------------------------------- 
|                                                                             |
|           W    W    AA    RRRRR   N    N  II  N    N   GGGG   !!!           |
|           W    W   A  A   R    R  NN   N  II  NN   N  G    G  !!!           |
|           W    W  A    A  R    R  N N  N  II  N N  N  G       !!!           |
|           W WW W  AAAAAA  RRRRR   N  N N  II  N  N N  G  GGG   !            |
|           WW  WW  A    A  R   R   N   NN  II  N   NN  G    G                |
|           W    W  A    A  R    R  N    N  II  N    N   GGGG   !!!           |
|                                                                             |
|      For optimal performance we recommend to set                            |
|        NCORE= 4 - approx SQRT( number of cores)                             |
|      NCORE specifies how many cores store one orbital (NPAR=cpu/NCORE).     |
|      This setting can  greatly improve the performance of VASP for DFT.     |
|      The default,   NCORE=1            might be grossly inefficient         |
|      on modern multi-core architectures or massively parallel machines.     |
|      Do your own testing !!!!                                               |
|      Unfortunately you need to use the default for GW and RPA calculations. |
|      (for HF NCORE is supported but not extensively tested yet)             |
|                                                                             |
 ----------------------------------------------------------------------------- 

 POTCAR:    PAW_PBE Ni 02Aug2007                  
  local pseudopotential read in
  partial core-charges read in
  partial kinetic energy density read in
  atomic valenz-charges read in
  non local Contribution for L=           2  read in
    real space projection operators read in
  non local Contribution for L=           2  read in
    real space projection operators read in
  non local Contribution for L=           0  read in
    real space projection operators read in
  non local Contribution for L=           0  read in
    real space projection operators read in
  non local Contribution for L=           1  read in
    real space projection operators read in
  non local Contribution for L=           1  read in
    real space projection operators read in
    PAW grid and wavefunctions read in
 
   number of l-projection  operators is LMAX  =           6
   number of lm-projection operators is LMMAX =          18
 
 POTCAR:    PAW_PBE O 08Apr2002                   
  local pseudopotential read in
  partial core-charges read in
  partial kinetic energy density read in
  kinetic energy density of atom read in
  atomic valenz-charges read in
  non local Contribution for L=           0  read in
    real space projection operators read in
  non local Contribution for L=           0  read in
    real space projection operators read in
  non local Contribution for L=           1  read in
    real space projection operators read in
  non local Contribution for L=           1  read in
    real space projection operators read in
    PAW grid and wavefunctions read in
 
   number of l-projection  operators is LMAX  =           4
   number of lm-projection operators is LMMAX =           8
 
 Optimization of the real space projectors (new method)

 maximal supplied QI-value         = 16.25
 optimisation between [QCUT,QGAM] = [ 11.38, 22.75] = [ 36.24,144.96] Ry 
 Optimized for a Real-space Cutoff    1.47 Angstroem

   l    n(q)    QCUT    max X(q) W(low)/X(q) W(high)/X(q)  e(spline) 
   2      9    11.376    60.317    0.17E-03    0.16E-04    0.16E-06
   2      9    11.376    55.921    0.17E-03    0.16E-04    0.17E-06
   0     10    11.376    51.690    0.45E-04    0.60E-04    0.21E-06
   0     10    11.376    30.015    0.37E-04    0.55E-04    0.19E-06
   1     10    11.376    18.849    0.83E-04    0.11E-03    0.92E-07
   1     10    11.376    14.624    0.69E-04    0.92E-04    0.82E-07
 Optimization of the real space projectors (new method)

 maximal supplied QI-value         = 24.76
 optimisation between [QCUT,QGAM] = [ 11.39, 22.77] = [ 36.31,145.25] Ry 
 Optimized for a Real-space Cutoff    1.10 Angstroem

   l    n(q)    QCUT    max X(q) W(low)/X(q) W(high)/X(q)  e(spline) 
   0      7    11.387    20.381    0.22E-03    0.48E-03    0.18E-06
   0      7    11.387    15.268    0.22E-03    0.52E-03    0.19E-06
   1      7    11.387     5.964    0.22E-03    0.73E-03    0.24E-06
   1      7    11.387     5.382    0.19E-03    0.60E-03    0.21E-06

 ----------------------------------------------------------------------------- 
|                                                                             |
|  ADVICE TO THIS USER RUNNING 'VASP/VAMP'   (HEAR YOUR MASTER'S VOICE ...):  |
|                                                                             |
|      You enforced a specific xc-type in the INCAR file,                     |
|      a different type was found on the POTCAR file                          |
|          I HOPE YOU KNOW, WHAT YOU ARE  DOING                               |
|                                                                             |
 ----------------------------------------------------------------------------- 

  PAW_PBE Ni 02Aug2007                  :
 energy of atom  1       EATOM=-1077.6739
 kinetic energy error for atom=    0.0030 (will be added to EATOM!!)
  PAW_PBE O 08Apr2002                   :
 energy of atom  2       EATOM= -432.3788
 kinetic energy error for atom=    0.0224 (will be added to EATOM!!)
 
 
 POSCAR: NiO2_Fd-3m_scale_0_975_disp_0_10_round_1
  positions in direct lattice
  No initial velocities read in
 exchange correlation table for  LEXCH =       14
   RHO(1)=    0.500       N(1)  =     2000
   RHO(2)=  100.500       N(2)  =     4000
 


--------------------------------------------------------------------------------------------------------


 ion  position               nearest neighbor table
   1  0.130  0.621  0.120-  28 1.52  43 1.52  22 1.56  41 1.80  24 2.04  47 2.11   8 2.36  11 2.49
                            14 2.64   3 2.70   2 2.80   4 2.91
   2  0.385  0.881  0.120-  29 1.72  41 1.75  19 1.86  46 1.90  24 1.93  18 1.98   3 2.65  12 2.65
                            13 2.67   7 2.76   1 2.80   4 2.86
   3  0.373  0.648  0.374-  47 1.72  41 1.74  44 1.94  21 1.96  18 1.98  27 2.02   4 2.62   2 2.65
                             1 2.70   6 2.80  16 2.88   9 2.97
   4  0.130  0.888  0.391-  30 1.67  45 1.67  20 1.68  24 1.88  47 1.89  18 2.05   5 2.57   3 2.62
                            10 2.63  15 2.70   2 2.86   1 2.91
   5  0.117  0.115  0.637-  30 1.51  35 1.54  20 1.67  39 1.96  32 2.15  33 2.16  10 2.40   4 2.57
                            15 2.62   7 2.80   8 3.01   6 3.03
   6  0.409  0.381  0.622-  38 1.68  21 1.74  33 1.79  27 1.92  32 2.00  26 2.06   7 2.70  16 2.71
                             9 2.77   3 2.80   5 3.03
   7  0.371  0.162  0.895-  26 1.52  33 1.61  39 1.62  19 1.72  29 2.04  36 2.10   8 2.56   6 2.70
                            13 2.71   2 2.76   5 2.80  12 2.94
   8  0.127  0.388  0.918-  37 1.56  22 1.58  28 1.73  39 1.83  26 1.90  32 2.11   1 2.36  14 2.38
                            11 2.54   7 2.56   5 3.01
   9  0.650  0.650  0.644-  40 1.69  44 1.74  25 1.80  31 1.81  38 1.89  27 1.92  10 2.66  11 2.73
                             6 2.77  16 2.77  12 2.81   3 2.97
  10  0.890  0.899  0.637-  30 1.78  35 1.84  40 1.91  25 1.94  45 1.97  34 2.00   5 2.40  15 2.61
                             4 2.63   9 2.66  12 2.73  11 3.08
  11  0.879  0.609  0.914-  43 1.55  37 1.69  28 1.79  31 1.79  25 2.01  34 2.14  14 2.37   1 2.49
                             8 2.54   9 2.73  12 2.86  10 3.08
  12  0.655  0.906  0.905-  46 1.44  36 1.66  34 1.77  29 1.91  40 1.96  31 1.98  13 2.26   2 2.65
                            10 2.73   9 2.81  11 2.86   7 2.94
  13  0.644  0.114  0.113-  46 1.44  36 1.61  19 1.78  48 1.85  17 1.92  23 2.07  12 2.26   2 2.67
                             7 2.71  14 2.75  15 2.81  16 3.02
  14  0.888  0.376  0.117-  37 1.59  22 1.68  17 1.81  42 1.84  48 1.91  43 2.14  11 2.37   8 2.38
                             1 2.64  16 2.65  13 2.75  15 2.80
  15  0.880  0.136  0.392-  45 1.67  20 1.80  42 1.83  35 1.88  17 1.88  23 1.95  10 2.61   5 2.62
                            16 2.67   4 2.70  14 2.80  13 2.81
  16  0.661  0.406  0.376-  42 1.79  38 1.82  48 1.90  44 1.96  21 2.11  23 2.14  14 2.65  15 2.67
                             6 2.71   9 2.77   3 2.88  13 3.02
  17  0.890  0.142  0.147-  14 1.81  15 1.88  13 1.92
  18  0.396  0.905  0.377-   2 1.98   3 1.98   4 2.05
  19  0.412  0.122  0.112-   7 1.72  13 1.78   2 1.86
  20  0.111  0.104  0.419-   5 1.67   4 1.68  15 1.80
  21  0.387  0.393  0.396-   6 1.74   3 1.96  16 2.11
  22  0.102  0.419  0.121-   1 1.56   8 1.58  14 1.68
  23  0.626  0.129  0.382-  15 1.95  13 2.07  16 2.14
  24  0.136  0.885  0.146-   4 1.88   2 1.93   1 2.04
  25  0.885  0.647  0.655-   9 1.80  10 1.94  11 2.01
  26  0.372  0.359  0.887-   7 1.52   8 1.90   6 2.06
  27  0.400  0.631  0.636-   6 1.92   9 1.92   3 2.02
  28  0.112  0.613  0.924-   1 1.52   8 1.73  11 1.79  43 1.96
  29  0.406  0.898  0.898-   2 1.72  12 1.91   7 2.04
  30  0.119  0.920  0.606-   5 1.51   4 1.67  10 1.78
  31  0.651  0.648  0.880-  11 1.79   9 1.81  12 1.98
  32  0.150  0.394  0.645-   6 2.00   8 2.11   5 2.15
  33  0.391  0.157  0.685-   7 1.61   6 1.79   5 2.16
  34  0.885  0.888  0.897-  12 1.77  10 2.00  11 2.14
  35  0.918  0.138  0.633-   5 1.54  10 1.84  15 1.88
  36  0.641  0.122  0.903-  13 1.61  12 1.66   7 2.10
  37  0.924  0.394  0.914-   8 1.56  14 1.59  11 1.69
  38  0.626  0.407  0.610-   6 1.68  16 1.82   9 1.89
  39  0.160  0.154  0.885-   7 1.62   8 1.83   5 1.96
  40  0.644  0.869  0.652-   9 1.69  10 1.91  12 1.96
  41  0.361  0.656  0.148-   3 1.74   2 1.75   1 1.80
  42  0.891  0.372  0.357-  16 1.79  15 1.83  14 1.84
  43  0.934  0.651  0.103-   1 1.52  11 1.55  28 1.96  14 2.14
  44  0.622  0.656  0.418-   9 1.74   3 1.94  16 1.96
  45  0.915  0.921  0.381-  15 1.67   4 1.67  10 1.97
  46  0.626  0.928  0.089-  12 1.44  13 1.44   2 1.90
  47  0.150  0.642  0.394-   3 1.72   4 1.89   1 2.11
  48  0.641  0.354  0.134-  13 1.85  16 1.90  14 1.91
 
  LATTYP: Found a simple cubic cell.
 ALAT       =     7.6700134100
  
  Lattice vectors:
  
 A1 = (   7.6700134100,   0.0000000000,   0.0000000000)
 A2 = (   0.0000000000,   7.6700134100,   0.0000000000)
 A3 = (   0.0000000000,   0.0000000000,   7.6700134100)


Analysis of symmetry for initial positions (statically):
=====================================================================
 Subroutine PRICEL returns:
 Original cell was already a primitive cell.
 

 Routine SETGRP: Setting up the symmetry group for a 
 simple cubic supercell.


 Subroutine GETGRP returns: Found  1 space group operations
 (whereof  1 operations were pure point group operations)
 out of a pool of 48 trial point group operations.


The static configuration has the point symmetry C_1 .


Analysis of symmetry for dynamics (positions and initial velocities):
=====================================================================
 Subroutine PRICEL returns:
 Original cell was already a primitive cell.
 

 Routine SETGRP: Setting up the symmetry group for a 
 simple cubic supercell.


 Subroutine GETGRP returns: Found  1 space group operations
 (whereof  1 operations were pure point group operations)
 out of a pool of 48 trial point group operations.


The dynamic configuration has the point symmetry C_1 .


 Subroutine INISYM returns: Found  1 space group operations
 (whereof  1 operations are pure point group operations),
 and found     1 'primitive' translations

 
 
 KPOINTS: Automatic mesh                          

Automatic generation of k-mesh.
Space group operators:
 irot       det(A)        alpha          n_x          n_y          n_z        tau_x        tau_y        tau_z
    1     1.000000     0.000000     1.000000     0.000000     0.000000     0.000000     0.000000     0.000000
 
 Subroutine IBZKPT returns following result:
 ===========================================
 
 Found     36 irreducible k-points:
 
 Following reciprocal coordinates:
            Coordinates               Weight
  0.000000  0.000000  0.000000      1.000000
  0.250000  0.000000  0.000000      2.000000
  0.500000  0.000000  0.000000      1.000000
  0.000000  0.250000  0.000000      2.000000
  0.250000  0.250000  0.000000      2.000000
  0.500000  0.250000  0.000000      2.000000
 -0.250000  0.250000  0.000000      2.000000
  0.000000  0.500000  0.000000      1.000000
  0.250000  0.500000  0.000000      2.000000
  0.500000  0.500000  0.000000      1.000000
  0.000000  0.000000  0.250000      2.000000
  0.250000  0.000000  0.250000      2.000000
  0.500000  0.000000  0.250000      2.000000
 -0.250000  0.000000  0.250000      2.000000
  0.000000  0.250000  0.250000      2.000000
  0.250000  0.250000  0.250000      2.000000
  0.500000  0.250000  0.250000      2.000000
 -0.250000  0.250000  0.250000      2.000000
  0.000000  0.500000  0.250000      2.000000
  0.250000  0.500000  0.250000      2.000000
  0.500000  0.500000  0.250000      2.000000
 -0.250000  0.500000  0.250000      2.000000
  0.000000 -0.250000  0.250000      2.000000
  0.250000 -0.250000  0.250000      2.000000
  0.500000 -0.250000  0.250000      2.000000
 -0.250000 -0.250000  0.250000      2.000000
  0.000000  0.000000  0.500000      1.000000
  0.250000  0.000000  0.500000      2.000000
  0.500000  0.000000  0.500000      1.000000
  0.000000  0.250000  0.500000      2.000000
  0.250000  0.250000  0.500000      2.000000
  0.500000  0.250000  0.500000      2.000000
 -0.250000  0.250000  0.500000      2.000000
  0.000000  0.500000  0.500000      1.000000
  0.250000  0.500000  0.500000      2.000000
  0.500000  0.500000  0.500000      1.000000
 
 Following cartesian coordinates:
            Coordinates               Weight
  0.000000  0.000000  0.000000      1.000000
  0.032594  0.000000  0.000000      2.000000
  0.065189  0.000000  0.000000      1.000000
  0.000000  0.032594  0.000000      2.000000
  0.032594  0.032594  0.000000      2.000000
  0.065189  0.032594  0.000000      2.000000
 -0.032594  0.032594  0.000000      2.000000
  0.000000  0.065189  0.000000      1.000000
  0.032594  0.065189  0.000000      2.000000
  0.065189  0.065189  0.000000      1.000000
  0.000000  0.000000  0.032594      2.000000
  0.032594  0.000000  0.032594      2.000000
  0.065189  0.000000  0.032594      2.000000
 -0.032594  0.000000  0.032594      2.000000
  0.000000  0.032594  0.032594      2.000000
  0.032594  0.032594  0.032594      2.000000
  0.065189  0.032594  0.032594      2.000000
 -0.032594  0.032594  0.032594      2.000000
  0.000000  0.065189  0.032594      2.000000
  0.032594  0.065189  0.032594      2.000000
  0.065189  0.065189  0.032594      2.000000
 -0.032594  0.065189  0.032594      2.000000
  0.000000 -0.032594  0.032594      2.000000
  0.032594 -0.032594  0.032594      2.000000
  0.065189 -0.032594  0.032594      2.000000
 -0.032594 -0.032594  0.032594      2.000000
  0.000000  0.000000  0.065189      1.000000
  0.032594  0.000000  0.065189      2.000000
  0.065189  0.000000  0.065189      1.000000
  0.000000  0.032594  0.065189      2.000000
  0.032594  0.032594  0.065189      2.000000
  0.065189  0.032594  0.065189      2.000000
 -0.032594  0.032594  0.065189      2.000000
  0.000000  0.065189  0.065189      1.000000
  0.032594  0.065189  0.065189      2.000000
  0.065189  0.065189  0.065189      1.000000
 


--------------------------------------------------------------------------------------------------------




 Dimension of arrays:
   k-points           NKPTS =     36   k-points in BZ     NKDIM =     36   number of bands    NBANDS=    224
   number of dos      NEDOS =    301   number of ions     NIONS =     48
   non local maximal  LDIM  =      6   non local SUM 2l+1 LMDIM =     18
   total plane-waves  NPLWV = 175616
   max r-space proj   IRMAX =   5275   max aug-charges    IRDMAX=  12814
   dimension x,y,z NGX =    56 NGY =   56 NGZ =   56
   dimension x,y,z NGXF=   112 NGYF=  112 NGZF=  112
   support grid    NGXF=   112 NGYF=  112 NGZF=  112
   ions per type =              16  32
   NGX,Y,Z   is equivalent  to a cutoff of  12.14, 12.14, 12.14 a.u.
   NGXF,Y,Z  is equivalent  to a cutoff of  24.28, 24.28, 24.28 a.u.

 SYSTEM =  unknown system                          
 POSCAR =  NiO2_Fd-3m_scale_0_975_disp_0_10_round_1

 Startparameter for this run:
   NWRITE =      1    write-flag & timer
   PREC   = accura    normal or accurate (medium, high low for compatibility)
   ISTART =      0    job   : 0-new  1-cont  2-samecut
   ICHARG =      2    charge: 1-file 2-atom 10-const
   ISPIN  =      1    spin polarized calculation?
   LNONCOLLINEAR =      F non collinear calculations
   LSORBIT =      F    spin-orbit coupling
   INIWAV =      1    electr: 0-lowe 1-rand  2-diag
   LASPH  =      F    aspherical Exc in radial PAW
   METAGGA=      F    non-selfconsistent MetaGGA calc.

 Electronic Relaxation 1
   ENCUT  =  500.0 eV  36.75 Ry    6.06 a.u.  13.98 13.98 13.98*2*pi/ulx,y,z
   ENINI  =  500.0     initial cutoff
   ENAUG  =  605.4 eV  augmentation charge cutoff
   NELM   =    120;   NELMIN=  2; NELMDL= -5     # of ELM steps 
   EDIFF  = 0.1E-04   stopping-criterion for ELM
   LREAL  =      T    real-space projection
   NLSPLINE    = F    spline interpolate recip. space projectors
   LCOMPAT=      F    compatible to vasp.4.4
   GGA_COMPAT  = T    GGA compatible to vasp.4.4-vasp.4.6
   LMAXPAW     = -100 max onsite density
   LMAXMIX     =    2 max onsite mixed and CHGCAR
   VOSKOWN=      1    Vosko Wilk Nusair interpolation
   ROPT   =   -0.00025  -0.00025
 Ionic relaxation
   EDIFFG = 0.1E-03   stopping-criterion for IOM
   NSW    =      0    number of steps for IOM
   NBLOCK =      1;   KBLOCK =      1    inner block; outer block 
   IBRION =     -1    ionic relax: 0-MD 1-quasi-New 2-CG
   NFREE  =      0    steps in history (QN), initial steepest desc. (CG)
   ISIF   =      2    stress and relaxation
   IWAVPR =     10    prediction:  0-non 1-charg 2-wave 3-comb
   ISYM   =      2    0-nonsym 1-usesym 2-fastsym
   LCORR  =      T    Harris-Foulkes like correction to forces

   POTIM  = 0.5000    time-step for ionic-motion
   TEIN   =    0.0    initial temperature
   TEBEG  =    0.0;   TEEND  =   0.0 temperature during run
   SMASS  =  -3.00    Nose mass-parameter (am)
   estimated Nose-frequenzy (Omega)   =  0.10E-29 period in steps =****** mass=  -0.134E-26a.u.
   SCALEE = 1.0000    scale energy and forces
   NPACO  =    256;   APACO  = 16.0  distance and # of slots for P.C.
   PSTRESS=    0.0 pullay stress

  Mass of Ions in am
   POMASS =  58.69 16.00
  Ionic Valenz
   ZVAL   =  10.00  6.00
  Atomic Wigner-Seitz radii
   RWIGS  =   1.15  0.73
  virtual crystal weights 
   VCA    =   1.00  1.00
   NELECT =     352.0000    total number of electrons
   NUPDOWN=      -1.0000    fix difference up-down

 DOS related values:
   EMIN   =  10.00;   EMAX   =-10.00  energy-range for DOS
   EFERMI =   0.00
   ISMEAR =     0;   SIGMA  =   0.05  broadening in eV -4-tet -1-fermi 0-gaus

 Electronic relaxation 2 (details)
   IALGO  =     38    algorithm
   LDIAG  =      T    sub-space diagonalisation (order eigenvalues)
   LSUBROT=      F    optimize rotation matrix (better conditioning)
   TURBO    =      0    0=normal 1=particle mesh
   IRESTART =      0    0=no restart 2=restart with 2 vectors
   NREBOOT  =      0    no. of reboots
   NMIN     =      0    reboot dimension
   EREF     =   0.00    reference energy to select bands
   IMIX   =      4    mixing-type and parameters
     AMIX     =   0.40;   BMIX     =  1.00
     AMIX_MAG =   1.60;   BMIX_MAG =  1.00
     AMIN     =   0.10
     WC   =   100.;   INIMIX=   1;  MIXPRE=   1;  MAXMIX= -45

 Intra band minimization:
   WEIMIN = 0.0000     energy-eigenvalue tresh-hold
   EBREAK =  0.11E-07  absolut break condition
   DEPER  =   0.30     relativ break condition  

   TIME   =   0.40     timestep for ELM

  volume/ion in A,a.u.               =       9.40        63.44
  Fermi-wavevector in a.u.,A,eV,Ry     =   1.507045  2.847902 30.901349  2.271185
  Thomas-Fermi vector in A             =   2.617683
 
 Write flags
   LWAVE        =      F    write WAVECAR
   LDOWNSAMPLE  =      F    k-point downsampling of WAVECAR
   LCHARG       =      T    write CHGCAR
   LVTOT        =      F    write LOCPOT, total local potential
   LVHAR        =      F    write LOCPOT, Hartree potential only
   LELF         =      F    write electronic localiz. function (ELF)
   LORBIT       =      0    0 simple, 1 ext, 2 COOP (PROOUT), +10 PAW based schemes


 Dipole corrections
   LMONO  =      F    monopole corrections only (constant potential shift)
   LDIPOL =      F    correct potential (dipole corrections)
   IDIPOL =      0    1-x, 2-y, 3-z, 4-all directions 
   EPSILON=  1.0000000 bulk dielectric constant

 Exchange correlation treatment:
   GGA     =    PS    GGA type
   LEXCH   =    14    internal setting for exchange type
   VOSKOWN=      1    Vosko Wilk Nusair interpolation
   LHFCALC =     F    Hartree Fock is set to
   LHFONE  =     F    Hartree Fock one center treatment
   AEXX    =    0.0000 exact exchange contribution

 Linear response parameters
   LEPSILON=     F    determine dielectric tensor
   LRPA    =     F    only Hartree local field effects (RPA)
   LNABLA  =     F    use nabla operator in PAW spheres
   LVEL    =     F    velocity operator in full k-point grid
   LINTERFAST=   F  fast interpolation
   KINTER  =     0    interpolate to denser k-point grid
   CSHIFT  =0.1000    complex shift for real part using Kramers Kronig
   OMEGAMAX=  -1.0    maximum frequency
   DEG_THRESHOLD= 0.2000000E-02 threshold for treating states as degnerate
   RTIME   =   -0.100 relaxation time in fs
  (WPLASMAI=    0.000 imaginary part of plasma frequency in eV, 0.658/RTIME)
   DFIELD  = 0.0000000 0.0000000 0.0000000 field for delta impulse in time
 
 Orbital magnetization related:
   ORBITALMAG=     F  switch on orbital magnetization
   LCHIMAG   =     F  perturbation theory with respect to B field
   DQ        =  0.001000  dq finite difference perturbation B field
   LLRAUG    =     F  two centre corrections for induced B field



--------------------------------------------------------------------------------------------------------


 Static calculation
 charge density and potential will be updated during run
 non-spin polarized calculation
 Variant of blocked Davidson
 Davidson routine will perform the subspace rotation
 perform sub-space diagonalisation
    after iterative eigenvector-optimisation
 modified Broyden-mixing scheme, WC =      100.0
 initial mixing is a Kerker type mixing with AMIX =  0.4000 and BMIX =      1.0000
 Hartree-type preconditioning will be used
 using additional bands           48
 real space projection scheme for non local part
 use partial core corrections
 calculate Harris-corrections to forces 
   (improved forces if not selfconsistent)
 use gradient corrections 
 use of overlap-Matrix (Vanderbilt PP)
 Gauss-broadening in eV      SIGMA  =   0.05


--------------------------------------------------------------------------------------------------------


  energy-cutoff  :      500.00
  volume of cell :      451.22
      direct lattice vectors                 reciprocal lattice vectors
     7.670013410  0.000000000  0.000000000     0.130377869  0.000000000  0.000000000
     0.000000000  7.670013410  0.000000000     0.000000000  0.130377869  0.000000000
     0.000000000  0.000000000  7.670013410     0.000000000  0.000000000  0.130377869

  length of vectors
     7.670013410  7.670013410  7.670013410     0.130377869  0.130377869  0.130377869


 
 k-points in units of 2pi/SCALE and weight: Automatic mesh                          
   0.00000000  0.00000000  0.00000000       0.016
   0.03259447  0.00000000  0.00000000       0.031
   0.06518893  0.00000000  0.00000000       0.016
   0.00000000  0.03259447  0.00000000       0.031
   0.03259447  0.03259447  0.00000000       0.031
   0.06518893  0.03259447  0.00000000       0.031
  -0.03259447  0.03259447  0.00000000       0.031
   0.00000000  0.06518893  0.00000000       0.016
   0.03259447  0.06518893  0.00000000       0.031
   0.06518893  0.06518893  0.00000000       0.016
   0.00000000  0.00000000  0.03259447       0.031
   0.03259447  0.00000000  0.03259447       0.031
   0.06518893  0.00000000  0.03259447       0.031
  -0.03259447  0.00000000  0.03259447       0.031
   0.00000000  0.03259447  0.03259447       0.031
   0.03259447  0.03259447  0.03259447       0.031
   0.06518893  0.03259447  0.03259447       0.031
  -0.03259447  0.03259447  0.03259447       0.031
   0.00000000  0.06518893  0.03259447       0.031
   0.03259447  0.06518893  0.03259447       0.031
   0.06518893  0.06518893  0.03259447       0.031
  -0.03259447  0.06518893  0.03259447       0.031
   0.00000000 -0.03259447  0.03259447       0.031
   0.03259447 -0.03259447  0.03259447       0.031
   0.06518893 -0.03259447  0.03259447       0.031
  -0.03259447 -0.03259447  0.03259447       0.031
   0.00000000  0.00000000  0.06518893       0.016
   0.03259447  0.00000000  0.06518893       0.031
   0.06518893  0.00000000  0.06518893       0.016
   0.00000000  0.03259447  0.06518893       0.031
   0.03259447  0.03259447  0.06518893       0.031
   0.06518893  0.03259447  0.06518893       0.031
  -0.03259447  0.03259447  0.06518893       0.031
   0.00000000  0.06518893  0.06518893       0.016
   0.03259447  0.06518893  0.06518893       0.031
   0.06518893  0.06518893  0.06518893       0.016
 
 k-points in reciprocal lattice and weights: Automatic mesh                          
   0.00000000  0.00000000  0.00000000       0.016
   0.25000000  0.00000000  0.00000000       0.031
   0.50000000  0.00000000  0.00000000       0.016
   0.00000000  0.25000000  0.00000000       0.031
   0.25000000  0.25000000  0.00000000       0.031
   0.50000000  0.25000000  0.00000000       0.031
  -0.25000000  0.25000000  0.00000000       0.031
   0.00000000  0.50000000  0.00000000       0.016
   0.25000000  0.50000000  0.00000000       0.031
   0.50000000  0.50000000  0.00000000       0.016
   0.00000000  0.00000000  0.25000000       0.031
   0.25000000  0.00000000  0.25000000       0.031
   0.50000000  0.00000000  0.25000000       0.031
  -0.25000000  0.00000000  0.25000000       0.031
   0.00000000  0.25000000  0.25000000       0.031
   0.25000000  0.25000000  0.25000000       0.031
   0.50000000  0.25000000  0.25000000       0.031
  -0.25000000  0.25000000  0.25000000       0.031
   0.00000000  0.50000000  0.25000000       0.031
   0.25000000  0.50000000  0.25000000       0.031
   0.50000000  0.50000000  0.25000000       0.031
  -0.25000000  0.50000000  0.25000000       0.031
   0.00000000 -0.25000000  0.25000000       0.031
   0.25000000 -0.25000000  0.25000000       0.031
   0.50000000 -0.25000000  0.25000000       0.031
  -0.25000000 -0.25000000  0.25000000       0.031
   0.00000000  0.00000000  0.50000000       0.016
   0.25000000  0.00000000  0.50000000       0.031
   0.50000000  0.00000000  0.50000000       0.016
   0.00000000  0.25000000  0.50000000       0.031
   0.25000000  0.25000000  0.50000000       0.031
   0.50000000  0.25000000  0.50000000       0.031
  -0.25000000  0.25000000  0.50000000       0.031
   0.00000000  0.50000000  0.50000000       0.016
   0.25000000  0.50000000  0.50000000       0.031
   0.50000000  0.50000000  0.50000000       0.016
 
 position of ions in fractional coordinates (direct lattice) 
   0.12987330  0.62109773  0.12045458
   0.38548019  0.88132778  0.12010386
   0.37302547  0.64753032  0.37435599
   0.12975328  0.88756808  0.39104780
   0.11726115  0.11497149  0.63655994
   0.40918462  0.38108328  0.62209843
   0.37053250  0.16164805  0.89456468
   0.12703954  0.38821827  0.91845622
   0.65036024  0.64961275  0.64377324
   0.89007680  0.89926361  0.63661303
   0.87912006  0.60860533  0.91404009
   0.65510316  0.90588963  0.90469038
   0.64407045  0.11413937  0.11279497
   0.88826720  0.37629055  0.11722640
   0.87998906  0.13576322  0.39160904
   0.66114340  0.40644497  0.37628046
   0.89018275  0.14152793  0.14664116
   0.39642048  0.90486389  0.37676939
   0.41241509  0.12208014  0.11155893
   0.11091632  0.10428800  0.41885443
   0.38675286  0.39332859  0.39639525
   0.10248732  0.41927596  0.12077505
   0.62604663  0.12949868  0.38157621
   0.13565124  0.88517935  0.14592254
   0.88516247  0.64674732  0.65503247
   0.37154073  0.35929255  0.88749144
   0.40041529  0.63087124  0.63602295
   0.11243137  0.61316983  0.92375273
   0.40566167  0.89817332  0.89784834
   0.11903458  0.92031725  0.60564043
   0.65118073  0.64827042  0.88037567
   0.14975937  0.39374901  0.64472422
   0.39098736  0.15697486  0.68521536
   0.88458785  0.88754270  0.89696460
   0.91781666  0.13758986  0.63334628
   0.64112817  0.12169517  0.90310224
   0.92413016  0.39357269  0.91350406
   0.62606014  0.40710990  0.61045655
   0.15967313  0.15448283  0.88526464
   0.64388435  0.86939273  0.65223743
   0.36053675  0.65582356  0.14799111
   0.89121464  0.37165529  0.35714695
   0.93431909  0.65087669  0.10332293
   0.62227544  0.65602179  0.41830323
   0.91471824  0.92127386  0.38127401
   0.62637221  0.92826674  0.08867317
   0.15012843  0.64203927  0.39382180
   0.64078676  0.35440737  0.13449222
 
 position of ions in cartesian coordinates  (Angst):
   0.99612995  4.76382792  0.92388824
   2.95663823  6.75979589  0.92119822
   2.86111036  4.96656624  2.87131546
   0.99520940  6.80765908  2.99934187
   0.89939459  0.88183287  4.88242328
   3.13845152  2.92291387  4.77150330
   2.84198924  1.23984271  6.86132309
   0.97439498  2.97763934  7.04457152
   4.98827176  4.98253850  4.93774938
   6.82690099  6.89736395  4.88283048
   6.74286265  4.66801104  7.01069975
   5.02465002  6.94818561  6.93898735
   4.94002899  0.87545050  0.86513893
   6.81302134  2.88615356  0.89912806
   6.74952789  1.04130572  3.00364659
   5.07097874  3.11743837  2.88607617
   6.82771363  1.08552112  1.12473966
   3.04055040  6.94031817  2.88982627
   3.16322927  0.93635631  0.85565849
   0.85072966  0.79989036  3.21261909
   2.96639962  3.01683556  3.04035688
   0.78607912  3.21585224  0.92634625
   4.80178605  0.99325661  2.92669465
   1.04044683  6.78933748  1.11922784
   6.78920801  4.96056062  5.02410783
   2.84972238  2.75577868  6.80707125
   3.07119064  4.83879087  4.87830456
   0.86235012  4.70302082  7.08519583
   3.11143045  6.88900141  6.88650881
   0.91299682  7.05884565  4.64527022
   4.99456493  4.97224281  6.75249319
   1.14865638  3.02006019  4.94504341
   2.99887829  1.20399928  5.25561100
   6.78480067  6.80746441  6.87973051
   7.03966609  1.05531607  4.85777446
   4.91746166  0.93340359  6.92680629
   7.08809072  3.01870781  7.00658839
   4.80188967  3.12253839  4.68220992
   1.22469505  1.18488538  6.78999166
   4.93860160  6.66825390  5.00266983
   2.76532171  5.03017550  1.13509380
   6.83562824  2.85060106  2.73932190
   7.16623995  4.99223294  0.79248826
   4.77286097  5.03169593  3.20839138
   7.01590117  7.06618286  2.92437677
   4.80428325  7.11981834  0.68012440
   1.15148707  4.92444981  3.02061849
   4.91484304  2.71830928  1.03155713
 


--------------------------------------------------------------------------------------------------------


 k-point  1 :   0.0000 0.0000 0.0000  plane waves:   11459
 k-point  2 :   0.2500 0.0000 0.0000  plane waves:   11404
 k-point  3 :   0.5000 0.0000 0.0000  plane waves:   11460
 k-point  4 :   0.0000 0.2500 0.0000  plane waves:   11404
 k-point  5 :   0.2500 0.2500 0.0000  plane waves:   11432
 k-point  6 :   0.5000 0.2500 0.0000  plane waves:   11450
 k-point  7 :  -0.2500 0.2500 0.0000  plane waves:   11432
 k-point  8 :   0.0000 0.5000 0.0000  plane waves:   11460
 k-point  9 :   0.2500 0.5000 0.0000  plane waves:   11450
 k-point 10 :   0.5000 0.5000 0.0000  plane waves:   11512
 k-point 11 :   0.0000 0.0000 0.2500  plane waves:   11404
 k-point 12 :   0.2500 0.0000 0.2500  plane waves:   11432
 k-point 13 :   0.5000 0.0000 0.2500  plane waves:   11450
 k-point 14 :  -0.2500 0.0000 0.2500  plane waves:   11432
 k-point 15 :   0.0000 0.2500 0.2500  plane waves:   11432
 k-point 16 :   0.2500 0.2500 0.2500  plane waves:   11452
 k-point 17 :   0.5000 0.2500 0.2500  plane waves:   11454
 k-point 18 :  -0.2500 0.2500 0.2500  plane waves:   11452
 k-point 19 :   0.0000 0.5000 0.2500  plane waves:   11450
 k-point 20 :   0.2500 0.5000 0.2500  plane waves:   11454
 k-point 21 :   0.5000 0.5000 0.2500  plane waves:   11432
 k-point 22 :  -0.2500 0.5000 0.2500  plane waves:   11454
 k-point 23 :   0.0000-0.2500 0.2500  plane waves:   11432
 k-point 24 :   0.2500-0.2500 0.2500  plane waves:   11452
 k-point 25 :   0.5000-0.2500 0.2500  plane waves:   11454
 k-point 26 :  -0.2500-0.2500 0.2500  plane waves:   11452
 k-point 27 :   0.0000 0.0000 0.5000  plane waves:   11460
 k-point 28 :   0.2500 0.0000 0.5000  plane waves:   11450
 k-point 29 :   0.5000 0.0000 0.5000  plane waves:   11512
 k-point 30 :   0.0000 0.2500 0.5000  plane waves:   11450
 k-point 31 :   0.2500 0.2500 0.5000  plane waves:   11454
 k-point 32 :   0.5000 0.2500 0.5000  plane waves:   11432
 k-point 33 :  -0.2500 0.2500 0.5000  plane waves:   11454
 k-point 34 :   0.0000 0.5000 0.5000  plane waves:   11512
 k-point 35 :   0.2500 0.5000 0.5000  plane waves:   11432
 k-point 36 :   0.5000 0.5000 0.5000  plane waves:   11536

 maximum and minimum number of plane-waves per node :     11536    11404

 maximum number of plane-waves:     11536
 maximum index in each direction: 
   IXMAX=   14   IYMAX=   14   IZMAX=   13
   IXMIN=  -14   IYMIN=  -14   IZMIN=  -14

 The following grids will avoid any aliasing or wrap around errors in the Hartre
 e energy
  - symmetry arguments have not been applied
  - exchange correlation energies might require even more grid points
  - we recommend to set PREC=Normal or Accurate and rely on VASP defaults
 WARNING: aliasing errors must be expected set NGX to    60 to avoid them
 WARNING: aliasing errors must be expected set NGY to    60 to avoid them
 NGZ is ok and might be reduce to    56

 serial   3D FFT for wavefunctions
 parallel 3D FFT for charge:
    minimum data exchange during FFTs selected (reduces bandwidth)


 total amount of memory used by VASP MPI-rank0   165780. kBytes
=======================================================================

   base      :      30000. kBytes
   nonlr-proj:      21841. kBytes
   fftplans  :       3726. kBytes
   grid      :      12054. kBytes
   one-center:        746. kBytes
   wavefun   :      97413. kBytes
 
     INWAV:  cpu time    0.0000: real time    0.0000
 Broyden mixing: mesh for mixing (old mesh)
   NGX = 27   NGY = 27   NGZ = 27
  (NGX  =112   NGY  =112   NGZ  =112)
  gives a total of  19683 points

 initial charge density was supplied:
 charge density of overlapping atoms calculated
 number of electron     352.0000000 magnetization 
 keeping initial charge density in first step


--------------------------------------------------------------------------------------------------------


 Maximum index for non-local projection operator         5078
 Maximum index for augmentation-charges          883 (set IRDMAX)


--------------------------------------------------------------------------------------------------------


 First call to EWALD:  gamma=   0.231
 Maximum number of real-space cells 3x 3x 3
 Maximum number of reciprocal cells 3x 3x 3

    FEWALD:  cpu time    0.0025: real time    0.0025


--------------------------------------- Iteration      1(   1)  ---------------------------------------


    POTLOK:  cpu time    0.0565: real time    0.0579
    SETDIJ:  cpu time    0.0067: real time    0.0067
     EDDAV:  cpu time   28.2592: real time   28.6142
    --------------------------------------------
      LOOP:  cpu time   28.3244: real time   28.6808

 eigenvalue-minimisations  : 16128
 total energy-change (2. order) : 0.4780765E+04  (-0.1560802E+05)
 number of electron     352.0000000 magnetization 
 augmentation part      352.0000000 magnetization 

 Free energy of the ion-electron system (eV)
  ---------------------------------------------------
  alpha Z        PSCENC =      1214.69000140
  Ewald energy   TEWEN  =    -20666.49686352
  -Hartree energ DENC   =    -11542.77917918
  -exchange      EXHF   =         0.00000000
  -V(xc)+E(xc)   XCENC  =      1424.80302522
  PAW double counting   =     26475.20327555   -27591.76617206
  entropy T*S    EENTRO =        -0.00622761
  eigenvalues    EBANDS =      4453.44477430
  atomic energy  EATOM  =     31013.67235384
  Solvation  Ediel_sol  =         0.00000000
  ---------------------------------------------------
  free energy    TOTEN  =      4780.76498793 eV

  energy without entropy =     4780.77121554  energy(sigma->0) =     4780.76810174


--------------------------------------------------------------------------------------------------------




--------------------------------------- Iteration      1(   2)  ---------------------------------------


     EDDAV:  cpu time   29.2251: real time   29.2952
    --------------------------------------------
      LOOP:  cpu time   29.2250: real time   29.2951

 eigenvalue-minimisations  : 16640
 total energy-change (2. order) :-0.4153883E+04  (-0.3781496E+04)
 number of electron     352.0000000 magnetization 
 augmentation part      352.0000000 magnetization 

 Free energy of the ion-electron system (eV)
  ---------------------------------------------------
  alpha Z        PSCENC =      1214.69000140
  Ewald energy   TEWEN  =    -20666.49686352
  -Hartree energ DENC   =    -11542.77917918
  -exchange      EXHF   =         0.00000000
  -V(xc)+E(xc)   XCENC  =      1424.80302522
  PAW double counting   =     26475.20327555   -27591.76617206
  entropy T*S    EENTRO =        -0.02197014
  eigenvalues    EBANDS =       299.57746150
  atomic energy  EATOM  =     31013.67235384
  Solvation  Ediel_sol  =         0.00000000
  ---------------------------------------------------
  free energy    TOTEN  =       626.88193261 eV

  energy without entropy =      626.90390275  energy(sigma->0) =      626.89291768


--------------------------------------------------------------------------------------------------------




--------------------------------------- Iteration      1(   3)  ---------------------------------------


     EDDAV:  cpu time   29.7506: real time   29.8210
    --------------------------------------------
      LOOP:  cpu time   29.7499: real time   29.8203

 eigenvalue-minimisations  : 17136
 total energy-change (2. order) :-0.9278464E+03  (-0.8207842E+03)
 number of electron     352.0000000 magnetization 
 augmentation part      352.0000000 magnetization 

 Free energy of the ion-electron system (eV)
  ---------------------------------------------------
  alpha Z        PSCENC =      1214.69000140
  Ewald energy   TEWEN  =    -20666.49686352
  -Hartree energ DENC   =    -11542.77917918
  -exchange      EXHF   =         0.00000000
  -V(xc)+E(xc)   XCENC  =      1424.80302522
  PAW double counting   =     26475.20327555   -27591.76617206
  entropy T*S    EENTRO =        -0.00000000
  eigenvalues    EBANDS =      -628.29094645
  atomic energy  EATOM  =     31013.67235384
  Solvation  Ediel_sol  =         0.00000000
  ---------------------------------------------------
  free energy    TOTEN  =      -300.96450520 eV

  energy without entropy =     -300.96450520  energy(sigma->0) =     -300.96450520


--------------------------------------------------------------------------------------------------------




--------------------------------------- Iteration      1(   4)  ---------------------------------------


     EDDAV:  cpu time   33.0635: real time   33.1418
    --------------------------------------------
      LOOP:  cpu time   33.0633: real time   33.1417

 eigenvalue-minimisations  : 17280
 total energy-change (2. order) :-0.8378426E+02  (-0.8218722E+02)
 number of electron     352.0000000 magnetization 
 augmentation part      352.0000000 magnetization 

 Free energy of the ion-electron system (eV)
  ---------------------------------------------------
  alpha Z        PSCENC =      1214.69000140
  Ewald energy   TEWEN  =    -20666.49686352
  -Hartree energ DENC   =    -11542.77917918
  -exchange      EXHF   =         0.00000000
  -V(xc)+E(xc)   XCENC  =      1424.80302522
  PAW double counting   =     26475.20327555   -27591.76617206
  entropy T*S    EENTRO =        -0.00000000
  eigenvalues    EBANDS =      -712.07520195
  atomic energy  EATOM  =     31013.67235384
  Solvation  Ediel_sol  =         0.00000000
  ---------------------------------------------------
  free energy    TOTEN  =      -384.74876070 eV

  energy without entropy =     -384.74876070  energy(sigma->0) =     -384.74876070


--------------------------------------------------------------------------------------------------------




--------------------------------------- Iteration      1(   5)  ---------------------------------------


     EDDAV:  cpu time   31.7636: real time   31.8389
    CHARGE:  cpu time    0.9003: real time    0.9024
    MIXING:  cpu time    0.0037: real time    0.0062
    --------------------------------------------
      LOOP:  cpu time   32.6665: real time   32.7464

 eigenvalue-minimisations  : 17440
 total energy-change (2. order) :-0.2145214E+01  (-0.2135324E+01)
 number of electron     352.0000028 magnetization 
 augmentation part      101.8311760 magnetization 

 Broyden mixing:
  rms(total) = 0.14673E+02    rms(broyden)= 0.14664E+02
  rms(prec ) = 0.17597E+02
  weight for this iteration     100.00

 Free energy of the ion-electron system (eV)
  ---------------------------------------------------
  alpha Z        PSCENC =      1214.69000140
  Ewald energy   TEWEN  =    -20666.49686352
  -Hartree energ DENC   =    -11542.77917918
  -exchange      EXHF   =         0.00000000
  -V(xc)+E(xc)   XCENC  =      1424.80302522
  PAW double counting   =     26475.20327555   -27591.76617206
  entropy T*S    EENTRO =        -0.00000000
  eigenvalues    EBANDS =      -714.22041640
  atomic energy  EATOM  =     31013.67235384
  Solvation  Ediel_sol  =         0.00000000
  ---------------------------------------------------
  free energy    TOTEN  =      -386.89397515 eV

  energy without entropy =     -386.89397515  energy(sigma->0) =     -386.89397515


--------------------------------------------------------------------------------------------------------




--------------------------------------- Iteration      1(   6)  ---------------------------------------


    POTLOK:  cpu time    0.0481: real time    0.0482
    SETDIJ:  cpu time    0.0071: real time    0.0071
     EDDAV:  cpu time   41.5690: real time   41.6675
    CHARGE:  cpu time    0.9447: real time    0.9469
    MIXING:  cpu time    0.0020: real time    0.0021
    --------------------------------------------
      LOOP:  cpu time   42.5709: real time   42.6719

 eigenvalue-minimisations  : 25344
 total energy-change (2. order) :-0.6708673E+02  (-0.8311159E+02)
 number of electron     351.9999964 magnetization 
 augmentation part      137.5135396 magnetization 

 Broyden mixing:
  rms(total) = 0.21549E+02    rms(broyden)= 0.21545E+02
  rms(prec ) = 0.24926E+02
  weight for this iteration     100.00

 eigenvalues of (default mixing * dielectric matrix)
  average eigenvalue GAMMA=   0.1912
  0.1912

 Free energy of the ion-electron system (eV)
  ---------------------------------------------------
  alpha Z        PSCENC =      1214.69000140
  Ewald energy   TEWEN  =    -20666.49686352
  -Hartree energ DENC   =    -10965.48509347
  -exchange      EXHF   =         0.00000000
  -V(xc)+E(xc)   XCENC  =      1423.40980438
  PAW double counting   =     31040.28718766   -31992.14637600
  entropy T*S    EENTRO =        -0.03862224
  eigenvalues    EBANDS =     -1521.87310132
  atomic energy  EATOM  =     31013.67235384
  Solvation  Ediel_sol  =         0.00000000
  ---------------------------------------------------
  free energy    TOTEN  =      -453.98070926 eV

  energy without entropy =     -453.94208703  energy(sigma->0) =     -453.96139815


--------------------------------------------------------------------------------------------------------




--------------------------------------- Iteration      1(   7)  ---------------------------------------


    POTLOK:  cpu time    0.0447: real time    0.0448
    SETDIJ:  cpu time    0.0067: real time    0.0067
     EDDAV:  cpu time   38.0924: real time   38.1826
    CHARGE:  cpu time    1.0158: real time    1.0182
    MIXING:  cpu time    0.0018: real time    0.0018
    --------------------------------------------
      LOOP:  cpu time   39.1614: real time   39.2541

 eigenvalue-minimisations  : 22176
 total energy-change (2. order) : 0.1681364E+03  (-0.2449788E+02)
 number of electron     351.9999980 magnetization 
 augmentation part      121.5555902 magnetization 

 Broyden mixing:
  rms(total) = 0.63160E+01    rms(broyden)= 0.63135E+01
  rms(prec ) = 0.83420E+01
  weight for this iteration     100.00

 eigenvalues of (default mixing * dielectric matrix)
  average eigenvalue GAMMA=   0.6208
  0.7815  0.4601

 Free energy of the ion-electron system (eV)
  ---------------------------------------------------
  alpha Z        PSCENC =      1214.69000140
  Ewald energy   TEWEN  =    -20666.49686352
  -Hartree energ DENC   =    -11252.02468301
  -exchange      EXHF   =         0.00000000
  -V(xc)+E(xc)   XCENC  =      1427.70377401
  PAW double counting   =     32783.93711527   -33872.43827897
  entropy T*S    EENTRO =        -0.02461899
  eigenvalues    EBANDS =      -934.86309939
  atomic energy  EATOM  =     31013.67235384
  Solvation  Ediel_sol  =         0.00000000
  ---------------------------------------------------
  free energy    TOTEN  =      -285.84429936 eV

  energy without entropy =     -285.81968037  energy(sigma->0) =     -285.83198986


--------------------------------------------------------------------------------------------------------




--------------------------------------- Iteration      1(   8)  ---------------------------------------


    POTLOK:  cpu time    0.0460: real time    0.0461
    SETDIJ:  cpu time    0.0069: real time    0.0069
     EDDAV:  cpu time   44.4602: real time   44.5654
    CHARGE:  cpu time    1.0075: real time    1.0099
    MIXING:  cpu time    0.0018: real time    0.0018
    --------------------------------------------
      LOOP:  cpu time   45.5223: real time   45.6301

 eigenvalue-minimisations  : 26176
 total energy-change (2. order) :-0.4537985E+02  (-0.1287481E+02)
 number of electron     351.9999982 magnetization 
 augmentation part      113.2289855 magnetization 

 Broyden mixing:
  rms(total) = 0.16064E+02    rms(broyden)= 0.16062E+02
  rms(prec ) = 0.22518E+02
  weight for this iteration     100.00

 eigenvalues of (default mixing * dielectric matrix)
  average eigenvalue GAMMA=   0.5385
  1.0435  0.4279  0.1440

 Free energy of the ion-electron system (eV)
  ---------------------------------------------------
  alpha Z        PSCENC =      1214.69000140
  Ewald energy   TEWEN  =    -20666.49686352
  -Hartree energ DENC   =    -11228.51645983
  -exchange      EXHF   =         0.00000000
  -V(xc)+E(xc)   XCENC  =      1424.28106261
  PAW double counting   =     34761.16838483   -35931.82760790
  entropy T*S    EENTRO =        -0.03626949
  eigenvalues    EBANDS =      -918.15874859
  atomic energy  EATOM  =     31013.67235384
  Solvation  Ediel_sol  =         0.00000000
  ---------------------------------------------------
  free energy    TOTEN  =      -331.22414666 eV

  energy without entropy =     -331.18787716  energy(sigma->0) =     -331.20601191


--------------------------------------------------------------------------------------------------------




--------------------------------------- Iteration      1(   9)  ---------------------------------------


    POTLOK:  cpu time    0.0473: real time    0.0474
    SETDIJ:  cpu time    0.0069: real time    0.0069
     EDDAV:  cpu time   34.7556: real time   34.8380
    CHARGE:  cpu time    1.0007: real time    1.0030
    MIXING:  cpu time    0.0021: real time    0.0021
    --------------------------------------------
      LOOP:  cpu time   35.8127: real time   35.8976

 eigenvalue-minimisations  : 20928
 total energy-change (2. order) : 0.2185084E+02  (-0.1389909E+02)
 number of electron     352.0000007 magnetization 
 augmentation part      114.5335422 magnetization 

 Broyden mixing:
  rms(total) = 0.78213E+01    rms(broyden)= 0.78183E+01
  rms(prec ) = 0.10981E+02
  weight for this iteration     100.00

 eigenvalues of (default mixing * dielectric matrix)
  average eigenvalue GAMMA=   0.5642
  1.4051  0.3978  0.2982  0.1556

 Free energy of the ion-electron system (eV)
  ---------------------------------------------------
  alpha Z        PSCENC =      1214.69000140
  Ewald energy   TEWEN  =    -20666.49686352
  -Hartree energ DENC   =    -11220.01853645
  -exchange      EXHF   =         0.00000000
  -V(xc)+E(xc)   XCENC  =      1422.63958880
  PAW double counting   =     35931.88923120   -37121.51954202
  entropy T*S    EENTRO =        -0.03936294
  eigenvalues    EBANDS =      -884.19017211
  atomic energy  EATOM  =     31013.67235384
  Solvation  Ediel_sol  =         0.00000000
  ---------------------------------------------------
  free energy    TOTEN  =      -309.37330180 eV

  energy without entropy =     -309.33393886  energy(sigma->0) =     -309.35362033


--------------------------------------------------------------------------------------------------------




--------------------------------------- Iteration      1(  10)  ---------------------------------------


    POTLOK:  cpu time    0.0471: real time    0.0472
    SETDIJ:  cpu time    0.0067: real time    0.0067
     EDDAV:  cpu time   37.5442: real time   37.6331
    CHARGE:  cpu time    1.0237: real time    1.0261
    MIXING:  cpu time    0.0021: real time    0.0021
    --------------------------------------------
      LOOP:  cpu time   38.6237: real time   38.7152

 eigenvalue-minimisations  : 21712
 total energy-change (2. order) : 0.2952271E+02  (-0.4510428E+01)
 number of electron     351.9999994 magnetization 
 augmentation part      114.3083434 magnetization 

 Broyden mixing:
  rms(total) = 0.50014E+01    rms(broyden)= 0.49989E+01
  rms(prec ) = 0.71686E+01
  weight for this iteration     100.00

 eigenvalues of (default mixing * dielectric matrix)
  average eigenvalue GAMMA=   0.5563
  1.5931  0.3613  0.3439  0.3439  0.1395

 Free energy of the ion-electron system (eV)
  ---------------------------------------------------
  alpha Z        PSCENC =      1214.69000140
  Ewald energy   TEWEN  =    -20666.49686352
  -Hartree energ DENC   =    -11190.28964671
  -exchange      EXHF   =         0.00000000
  -V(xc)+E(xc)   XCENC  =      1421.03288170
  PAW double counting   =     37735.70537527   -38943.53059547
  entropy T*S    EENTRO =        -0.02851725
  eigenvalues    EBANDS =      -864.60557787
  atomic energy  EATOM  =     31013.67235384
  Solvation  Ediel_sol  =         0.00000000
  ---------------------------------------------------
  free energy    TOTEN  =      -279.85058859 eV

  energy without entropy =     -279.82207135  energy(sigma->0) =     -279.83632997


--------------------------------------------------------------------------------------------------------




--------------------------------------- Iteration      1(  11)  ---------------------------------------


    POTLOK:  cpu time    0.0455: real time    0.0456
    SETDIJ:  cpu time    0.0068: real time    0.0068
     EDDAV:  cpu time   38.4377: real time   38.5287
    CHARGE:  cpu time    0.9781: real time    0.9804
    MIXING:  cpu time    0.0019: real time    0.0019
    --------------------------------------------
      LOOP:  cpu time   39.4700: real time   39.5634

 eigenvalue-minimisations  : 21744
 total energy-change (2. order) : 0.1068994E+02  (-0.2961957E+01)
 number of electron     352.0000000 magnetization 
 augmentation part      114.5135344 magnetization 

 Broyden mixing:
  rms(total) = 0.25464E+01    rms(broyden)= 0.25439E+01
  rms(prec ) = 0.36086E+01
  weight for this iteration     100.00

 eigenvalues of (default mixing * dielectric matrix)
  average eigenvalue GAMMA=   0.5572
  1.6755  0.4992  0.4992  0.3382  0.1511  0.1803

 Free energy of the ion-electron system (eV)
  ---------------------------------------------------
  alpha Z        PSCENC =      1214.69000140
  Ewald energy   TEWEN  =    -20666.49686352
  -Hartree energ DENC   =    -11174.92365876
  -exchange      EXHF   =         0.00000000
  -V(xc)+E(xc)   XCENC  =      1420.69962083
  PAW double counting   =     38468.55407004   -39678.40969509
  entropy T*S    EENTRO =        -0.00151478
  eigenvalues    EBANDS =      -866.94496090
  atomic energy  EATOM  =     31013.67235384
  Solvation  Ediel_sol  =         0.00000000
  ---------------------------------------------------
  free energy    TOTEN  =      -269.16064695 eV

  energy without entropy =     -269.15913217  energy(sigma->0) =     -269.15988956


--------------------------------------------------------------------------------------------------------




--------------------------------------- Iteration      1(  12)  ---------------------------------------


    POTLOK:  cpu time    0.0463: real time    0.0465
    SETDIJ:  cpu time    0.0070: real time    0.0070
     EDDAV:  cpu time   39.8055: real time   39.8998
    CHARGE:  cpu time    0.9497: real time    0.9519
    MIXING:  cpu time    0.0020: real time    0.0020
    --------------------------------------------
      LOOP:  cpu time   40.8106: real time   40.9073

 eigenvalue-minimisations  : 24480
 total energy-change (2. order) : 0.3535893E+01  (-0.1190135E+01)
 number of electron     351.9999998 magnetization 
 augmentation part      114.6748706 magnetization 

 Broyden mixing:
  rms(total) = 0.13191E+01    rms(broyden)= 0.13184E+01
  rms(prec ) = 0.18108E+01
  weight for this iteration     100.00

 eigenvalues of (default mixing * dielectric matrix)
  average eigenvalue GAMMA=   0.5700
  1.7349  0.5957  0.5957  0.3589  0.3589  0.1446  0.2015

 Free energy of the ion-electron system (eV)
  ---------------------------------------------------
  alpha Z        PSCENC =      1214.69000140
  Ewald energy   TEWEN  =    -20666.49686352
  -Hartree energ DENC   =    -11184.06257930
  -exchange      EXHF   =         0.00000000
  -V(xc)+E(xc)   XCENC  =      1421.20987415
  PAW double counting   =     38870.54015168   -40082.86841857
  entropy T*S    EENTRO =        -0.00123158
  eigenvalues    EBANDS =      -852.30804221
  atomic energy  EATOM  =     31013.67235384
  Solvation  Ediel_sol  =         0.00000000
  ---------------------------------------------------
  free energy    TOTEN  =      -265.62475411 eV

  energy without entropy =     -265.62352253  energy(sigma->0) =     -265.62413832


--------------------------------------------------------------------------------------------------------




--------------------------------------- Iteration      1(  13)  ---------------------------------------


    POTLOK:  cpu time    0.0470: real time    0.0471
    SETDIJ:  cpu time    0.0070: real time    0.0071
     EDDAV:  cpu time   40.1395: real time   40.2346
    CHARGE:  cpu time    1.0033: real time    1.0056
    MIXING:  cpu time    0.0021: real time    0.0021
    --------------------------------------------
      LOOP:  cpu time   41.1989: real time   41.2964

 eigenvalue-minimisations  : 23616
 total energy-change (2. order) : 0.4477128E+00  (-0.4194168E+00)
 number of electron     351.9999999 magnetization 
 augmentation part      114.8614742 magnetization 

 Broyden mixing:
  rms(total) = 0.12379E+01    rms(broyden)= 0.12374E+01
  rms(prec ) = 0.15600E+01
  weight for this iteration     100.00

 eigenvalues of (default mixing * dielectric matrix)
  average eigenvalue GAMMA=   0.6011
  1.8871  0.7444  0.7444  0.4152  0.4152  0.2627  0.1943  0.1452

 Free energy of the ion-electron system (eV)
  ---------------------------------------------------
  alpha Z        PSCENC =      1214.69000140
  Ewald energy   TEWEN  =    -20666.49686352
  -Hartree energ DENC   =    -11189.34234703
  -exchange      EXHF   =         0.00000000
  -V(xc)+E(xc)   XCENC  =      1421.67716726
  PAW double counting   =     39181.05036426   -40392.32021918
  entropy T*S    EENTRO =        -0.00092467
  eigenvalues    EBANDS =      -848.10657368
  atomic energy  EATOM  =     31013.67235384
  Solvation  Ediel_sol  =         0.00000000
  ---------------------------------------------------
  free energy    TOTEN  =      -265.17704133 eV

  energy without entropy =     -265.17611666  energy(sigma->0) =     -265.17657900


--------------------------------------------------------------------------------------------------------




--------------------------------------- Iteration      1(  14)  ---------------------------------------


    POTLOK:  cpu time    0.0450: real time    0.0451
    SETDIJ:  cpu time    0.0070: real time    0.0070
     EDDAV:  cpu time   41.0295: real time   41.1266
    CHARGE:  cpu time    0.9345: real time    0.9367
    MIXING:  cpu time    0.0023: real time    0.0023
    --------------------------------------------
      LOOP:  cpu time   42.0182: real time   42.1177

 eigenvalue-minimisations  : 23648
 total energy-change (2. order) : 0.2967155E+00  (-0.1872250E+00)
 number of electron     351.9999997 magnetization 
 augmentation part      115.1352996 magnetization 

 Broyden mixing:
  rms(total) = 0.81272E+00    rms(broyden)= 0.81251E+00
  rms(prec ) = 0.10480E+01
  weight for this iteration     100.00

 eigenvalues of (default mixing * dielectric matrix)
  average eigenvalue GAMMA=   0.6547
  2.1674  0.9402  0.9402  0.4581  0.4581  0.1452  0.3185  0.1962  0.2684

 Free energy of the ion-electron system (eV)
  ---------------------------------------------------
  alpha Z        PSCENC =      1214.69000140
  Ewald energy   TEWEN  =    -20666.49686352
  -Hartree energ DENC   =    -11191.22125499
  -exchange      EXHF   =         0.00000000
  -V(xc)+E(xc)   XCENC  =      1421.90461785
  PAW double counting   =     39500.14921188   -40711.96808298
  entropy T*S    EENTRO =        -0.00007160
  eigenvalues    EBANDS =      -845.61023776
  atomic energy  EATOM  =     31013.67235384
  Solvation  Ediel_sol  =         0.00000000
  ---------------------------------------------------
  free energy    TOTEN  =      -264.88032588 eV

  energy without entropy =     -264.88025428  energy(sigma->0) =     -264.88029008


--------------------------------------------------------------------------------------------------------




--------------------------------------- Iteration      1(  15)  ---------------------------------------


    POTLOK:  cpu time    0.0466: real time    0.0467
    SETDIJ:  cpu time    0.0071: real time    0.0071
     EDDAV:  cpu time   37.3348: real time   37.4232
    CHARGE:  cpu time    0.9149: real time    0.9171
    MIXING:  cpu time    0.0024: real time    0.0024
    --------------------------------------------
      LOOP:  cpu time   38.3058: real time   38.3965

 eigenvalue-minimisations  : 22560
 total energy-change (2. order) : 0.1815502E+00  (-0.7831300E-01)
 number of electron     351.9999997 magnetization 
 augmentation part      115.4643743 magnetization 

 Broyden mixing:
  rms(total) = 0.55019E+00    rms(broyden)= 0.54989E+00
  rms(prec ) = 0.72430E+00
  weight for this iteration     100.00

 eigenvalues of (default mixing * dielectric matrix)
  average eigenvalue GAMMA=   0.6627
  2.3031  1.0028  1.0028  0.5728  0.4173  0.4173  0.3277  0.1452  0.1954  0.2427

 Free energy of the ion-electron system (eV)
  ---------------------------------------------------
  alpha Z        PSCENC =      1214.69000140
  Ewald energy   TEWEN  =    -20666.49686352
  -Hartree energ DENC   =    -11195.41937380
  -exchange      EXHF   =         0.00000000
  -V(xc)+E(xc)   XCENC  =      1422.25104650
  PAW double counting   =     39948.28034041   -41161.11119176
  entropy T*S    EENTRO =        -0.00074834
  eigenvalues    EBANDS =      -840.56434042
  atomic energy  EATOM  =     31013.67235384
  Solvation  Ediel_sol  =         0.00000000
  ---------------------------------------------------
  free energy    TOTEN  =      -264.69877571 eV

  energy without entropy =     -264.69802736  energy(sigma->0) =     -264.69840154


--------------------------------------------------------------------------------------------------------




--------------------------------------- Iteration      1(  16)  ---------------------------------------


    POTLOK:  cpu time    0.0445: real time    0.0446
    SETDIJ:  cpu time    0.0070: real time    0.0070
     EDDAV:  cpu time   39.9679: real time   40.0625
    CHARGE:  cpu time    0.9560: real time    0.9583
    MIXING:  cpu time    0.0030: real time    0.0113
    --------------------------------------------
      LOOP:  cpu time   40.9784: real time   41.0837

 eigenvalue-minimisations  : 23424
 total energy-change (2. order) : 0.7002542E-01  (-0.4510039E-01)
 number of electron     351.9999996 magnetization 
 augmentation part      115.5214149 magnetization 

 Broyden mixing:
  rms(total) = 0.37644E+00    rms(broyden)= 0.37618E+00
  rms(prec ) = 0.50635E+00
  weight for this iteration     100.00

 eigenvalues of (default mixing * dielectric matrix)
  average eigenvalue GAMMA=   0.6964
  2.5647  1.4234  0.7766  0.7766  0.4414  0.4414  0.3855  0.1452  0.2765  0.1957
  0.2340

 Free energy of the ion-electron system (eV)
  ---------------------------------------------------
  alpha Z        PSCENC =      1214.69000140
  Ewald energy   TEWEN  =    -20666.49686352
  -Hartree energ DENC   =    -11199.83861005
  -exchange      EXHF   =         0.00000000
  -V(xc)+E(xc)   XCENC  =      1422.49551519
  PAW double counting   =     40219.46131526   -41432.44286053
  entropy T*S    EENTRO =        -0.00010737
  eigenvalues    EBANDS =      -836.16949452
  atomic energy  EATOM  =     31013.67235384
  Solvation  Ediel_sol  =         0.00000000
  ---------------------------------------------------
  free energy    TOTEN  =      -264.62875029 eV

  energy without entropy =     -264.62864292  energy(sigma->0) =     -264.62869660


--------------------------------------------------------------------------------------------------------




--------------------------------------- Iteration      1(  17)  ---------------------------------------


    POTLOK:  cpu time    0.0468: real time    0.0469
    SETDIJ:  cpu time    0.0067: real time    0.0067
     EDDAV:  cpu time   38.6434: real time   38.7348
    CHARGE:  cpu time    0.9758: real time    0.9781
    MIXING:  cpu time    0.0024: real time    0.0024
    --------------------------------------------
      LOOP:  cpu time   39.6750: real time   39.7689

 eigenvalue-minimisations  : 23264
 total energy-change (2. order) : 0.2891683E-01  (-0.2649787E-01)
 number of electron     351.9999996 magnetization 
 augmentation part      115.5477942 magnetization 

 Broyden mixing:
  rms(total) = 0.24003E+00    rms(broyden)= 0.23980E+00
  rms(prec ) = 0.32914E+00
  weight for this iteration     100.00

 eigenvalues of (default mixing * dielectric matrix)
  average eigenvalue GAMMA=   0.6890
  2.5627  1.6672  0.7778  0.7778  0.4673  0.4673  0.4220  0.3200  0.1452  0.2505
  0.1952  0.2146

 Free energy of the ion-electron system (eV)
  ---------------------------------------------------
  alpha Z        PSCENC =      1214.69000140
  Ewald energy   TEWEN  =    -20666.49686352
  -Hartree energ DENC   =    -11203.65643599
  -exchange      EXHF   =         0.00000000
  -V(xc)+E(xc)   XCENC  =      1422.62479901
  PAW double counting   =     40384.22824032   -41597.12774435
  entropy T*S    EENTRO =        -0.00146918
  eigenvalues    EBANDS =      -832.53271498
  atomic energy  EATOM  =     31013.67235384
  Solvation  Ediel_sol  =         0.00000000
  ---------------------------------------------------
  free energy    TOTEN  =      -264.59983345 eV

  energy without entropy =     -264.59836428  energy(sigma->0) =     -264.59909887


--------------------------------------------------------------------------------------------------------




--------------------------------------- Iteration      1(  18)  ---------------------------------------


    POTLOK:  cpu time    0.0450: real time    0.0451
    SETDIJ:  cpu time    0.0065: real time    0.0065
     EDDAV:  cpu time   41.5543: real time   41.6527
    CHARGE:  cpu time    0.9159: real time    0.9181
    MIXING:  cpu time    0.0026: real time    0.0026
    --------------------------------------------
      LOOP:  cpu time   42.5242: real time   42.6249

 eigenvalue-minimisations  : 24720
 total energy-change (2. order) : 0.2257628E-01  (-0.8015367E-02)
 number of electron     351.9999996 magnetization 
 augmentation part      115.5162156 magnetization 

 Broyden mixing:
  rms(total) = 0.12830E+00    rms(broyden)= 0.12821E+00
  rms(prec ) = 0.15886E+00
  weight for this iteration     100.00

 eigenvalues of (default mixing * dielectric matrix)
  average eigenvalue GAMMA=   0.6781
  2.5779  1.7541  0.7974  0.7974  0.5045  0.5045  0.4203  0.1452  0.3235  0.3235
  0.1954  0.2467  0.2255

 Free energy of the ion-electron system (eV)
  ---------------------------------------------------
  alpha Z        PSCENC =      1214.69000140
  Ewald energy   TEWEN  =    -20666.49686352
  -Hartree energ DENC   =    -11203.77599165
  -exchange      EXHF   =         0.00000000
  -V(xc)+E(xc)   XCENC  =      1422.59605748
  PAW double counting   =     40386.31907491   -41598.51908883
  entropy T*S    EENTRO =        -0.00070436
  eigenvalues    EBANDS =      -833.06209645
  atomic energy  EATOM  =     31013.67235384
  Solvation  Ediel_sol  =         0.00000000
  ---------------------------------------------------
  free energy    TOTEN  =      -264.57725718 eV

  energy without entropy =     -264.57655282  energy(sigma->0) =     -264.57690500


--------------------------------------------------------------------------------------------------------




--------------------------------------- Iteration      1(  19)  ---------------------------------------


    POTLOK:  cpu time    0.0447: real time    0.0448
    SETDIJ:  cpu time    0.0066: real time    0.0066
     EDDAV:  cpu time   38.7699: real time   38.8616
    CHARGE:  cpu time    0.9108: real time    0.9129
    MIXING:  cpu time    0.0026: real time    0.0026
    --------------------------------------------
      LOOP:  cpu time   39.7345: real time   39.8285

 eigenvalue-minimisations  : 23168
 total energy-change (2. order) : 0.2119263E-02  (-0.2396067E-02)
 number of electron     351.9999996 magnetization 
 augmentation part      115.5316857 magnetization 

 Broyden mixing:
  rms(total) = 0.97053E-01    rms(broyden)= 0.97026E-01
  rms(prec ) = 0.12307E+00
  weight for this iteration     100.00

 eigenvalues of (default mixing * dielectric matrix)
  average eigenvalue GAMMA=   0.6928
  2.5847  1.8449  0.8887  0.8887  0.6158  0.6158  0.4146  0.4146  0.3504  0.1452
  0.2877  0.2418  0.1951  0.2109

 Free energy of the ion-electron system (eV)
  ---------------------------------------------------
  alpha Z        PSCENC =      1214.69000140
  Ewald energy   TEWEN  =    -20666.49686352
  -Hartree energ DENC   =    -11202.95985953
  -exchange      EXHF   =         0.00000000
  -V(xc)+E(xc)   XCENC  =      1422.54218105
  PAW double counting   =     40382.54339972   -41594.34764671
  entropy T*S    EENTRO =        -0.00096899
  eigenvalues    EBANDS =      -834.21773517
  atomic energy  EATOM  =     31013.67235384
  Solvation  Ediel_sol  =         0.00000000
  ---------------------------------------------------
  free energy    TOTEN  =      -264.57513791 eV

  energy without entropy =     -264.57416892  energy(sigma->0) =     -264.57465342


--------------------------------------------------------------------------------------------------------




--------------------------------------- Iteration      1(  20)  ---------------------------------------


    POTLOK:  cpu time    0.0447: real time    0.0448
    SETDIJ:  cpu time    0.0069: real time    0.0069
     EDDAV:  cpu time   36.4896: real time   36.5760
    CHARGE:  cpu time    0.9641: real time    0.9664
    MIXING:  cpu time    0.0028: real time    0.0029
    --------------------------------------------
      LOOP:  cpu time   37.5082: real time   37.5970

 eigenvalue-minimisations  : 22640
 total energy-change (2. order) : 0.1941692E-02  (-0.9522611E-03)
 number of electron     351.9999996 magnetization 
 augmentation part      115.5393274 magnetization 

 Broyden mixing:
  rms(total) = 0.77836E-01    rms(broyden)= 0.77820E-01
  rms(prec ) = 0.10003E+00
  weight for this iteration     100.00

 eigenvalues of (default mixing * dielectric matrix)
  average eigenvalue GAMMA=   0.7122
  2.6290  1.9060  1.0053  1.0053  0.7495  0.7495  0.4474  0.4474  0.3686  0.3311
  0.1452  0.2588  0.2365  0.1952  0.2085

 Free energy of the ion-electron system (eV)
  ---------------------------------------------------
  alpha Z        PSCENC =      1214.69000140
  Ewald energy   TEWEN  =    -20666.49686352
  -Hartree energ DENC   =    -11201.49541381
  -exchange      EXHF   =         0.00000000
  -V(xc)+E(xc)   XCENC  =      1422.45709835
  PAW double counting   =     40370.70848640   -41582.07792671
  entropy T*S    EENTRO =        -0.00088662
  eigenvalues    EBANDS =      -836.03004554
  atomic energy  EATOM  =     31013.67235384
  Solvation  Ediel_sol  =         0.00000000
  ---------------------------------------------------
  free energy    TOTEN  =      -264.57319622 eV

  energy without entropy =     -264.57230960  energy(sigma->0) =     -264.57275291


--------------------------------------------------------------------------------------------------------




--------------------------------------- Iteration      1(  21)  ---------------------------------------


    POTLOK:  cpu time    0.0469: real time    0.0470
    SETDIJ:  cpu time    0.0067: real time    0.0067
     EDDAV:  cpu time   38.8229: real time   38.9149
    CHARGE:  cpu time    0.9603: real time    0.9626
    MIXING:  cpu time    0.0029: real time    0.0029
    --------------------------------------------
      LOOP:  cpu time   39.8397: real time   39.9341

 eigenvalue-minimisations  : 23360
 total energy-change (2. order) : 0.1528053E-02  (-0.6550935E-03)
 number of electron     351.9999996 magnetization 
 augmentation part      115.5410443 magnetization 

 Broyden mixing:
  rms(total) = 0.60448E-01    rms(broyden)= 0.60432E-01
  rms(prec ) = 0.82721E-01
  weight for this iteration     100.00

 eigenvalues of (default mixing * dielectric matrix)
  average eigenvalue GAMMA=   0.7256
  2.7491  1.7919  1.4583  0.9668  0.8036  0.8036  0.4655  0.4655  0.3865  0.3678
  0.1452  0.3005  0.2663  0.1951  0.2337  0.2100

 Free energy of the ion-electron system (eV)
  ---------------------------------------------------
  alpha Z        PSCENC =      1214.69000140
  Ewald energy   TEWEN  =    -20666.49686352
  -Hartree energ DENC   =    -11199.79662238
  -exchange      EXHF   =         0.00000000
  -V(xc)+E(xc)   XCENC  =      1422.36289409
  PAW double counting   =     40356.75236945   -41567.78315956
  entropy T*S    EENTRO =        -0.00088682
  eigenvalues    EBANDS =      -837.97175466
  atomic energy  EATOM  =     31013.67235384
  Solvation  Ediel_sol  =         0.00000000
  ---------------------------------------------------
  free energy    TOTEN  =      -264.57166817 eV

  energy without entropy =     -264.57078135  energy(sigma->0) =     -264.57122476


--------------------------------------------------------------------------------------------------------




--------------------------------------- Iteration      1(  22)  ---------------------------------------


    POTLOK:  cpu time    0.0477: real time    0.0479
    SETDIJ:  cpu time    0.0069: real time    0.0069
     EDDAV:  cpu time   43.1007: real time   43.2027
    CHARGE:  cpu time    0.9897: real time    0.9920
    MIXING:  cpu time    0.0030: real time    0.0030
    --------------------------------------------
      LOOP:  cpu time   44.1480: real time   44.2525

 eigenvalue-minimisations  : 24496
 total energy-change (2. order) : 0.8384257E-03  (-0.4817007E-03)
 number of electron     351.9999996 magnetization 
 augmentation part      115.5370056 magnetization 

 Broyden mixing:
  rms(total) = 0.43381E-01    rms(broyden)= 0.43363E-01
  rms(prec ) = 0.63515E-01
  weight for this iteration     100.00

 eigenvalues of (default mixing * dielectric matrix)
  average eigenvalue GAMMA=   0.7270
  2.6723  1.9493  1.6784  0.9322  0.8124  0.8124  0.5552  0.4345  0.4345  0.4301
  0.1452  0.3350  0.2898  0.1951  0.2441  0.2314  0.2077

 Free energy of the ion-electron system (eV)
  ---------------------------------------------------
  alpha Z        PSCENC =      1214.69000140
  Ewald energy   TEWEN  =    -20666.49686352
  -Hartree energ DENC   =    -11199.03646360
  -exchange      EXHF   =         0.00000000
  -V(xc)+E(xc)   XCENC  =      1422.31677003
  PAW double counting   =     40348.42274443   -41559.35973130
  entropy T*S    EENTRO =        -0.00088922
  eigenvalues    EBANDS =      -838.77875180
  atomic energy  EATOM  =     31013.67235384
  Solvation  Ediel_sol  =         0.00000000
  ---------------------------------------------------
  free energy    TOTEN  =      -264.57082974 eV

  energy without entropy =     -264.56994052  energy(sigma->0) =     -264.57038513


--------------------------------------------------------------------------------------------------------




--------------------------------------- Iteration      1(  23)  ---------------------------------------


    POTLOK:  cpu time    0.0461: real time    0.0462
    SETDIJ:  cpu time    0.0070: real time    0.0071
     EDDAV:  cpu time   40.1220: real time   40.2169
    CHARGE:  cpu time    0.9351: real time    0.9373
    MIXING:  cpu time    0.0033: real time    0.0033
    --------------------------------------------
      LOOP:  cpu time   41.1135: real time   41.2108

 eigenvalue-minimisations  : 24624
 total energy-change (2. order) : 0.5901271E-03  (-0.2351834E-03)
 number of electron     351.9999996 magnetization 
 augmentation part      115.5307084 magnetization 

 Broyden mixing:
  rms(total) = 0.31533E-01    rms(broyden)= 0.31520E-01
  rms(prec ) = 0.45674E-01
  weight for this iteration     100.00

 eigenvalues of (default mixing * dielectric matrix)
  average eigenvalue GAMMA=   0.7227
  2.6674  1.8393  1.8393  1.0111  0.8146  0.8146  0.7328  0.4469  0.4469  0.4294
  0.3735  0.1452  0.3172  0.2573  0.2456  0.1951  0.2236  0.2082

 Free energy of the ion-electron system (eV)
  ---------------------------------------------------
  alpha Z        PSCENC =      1214.69000140
  Ewald energy   TEWEN  =    -20666.49686352
  -Hartree energ DENC   =    -11198.97835965
  -exchange      EXHF   =         0.00000000
  -V(xc)+E(xc)   XCENC  =      1422.31222480
  PAW double counting   =     40340.42676362   -41551.35938978
  entropy T*S    EENTRO =        -0.00085328
  eigenvalues    EBANDS =      -838.83611704
  atomic energy  EATOM  =     31013.67235384
  Solvation  Ediel_sol  =         0.00000000
  ---------------------------------------------------
  free energy    TOTEN  =      -264.57023962 eV

  energy without entropy =     -264.56938634  energy(sigma->0) =     -264.56981298


--------------------------------------------------------------------------------------------------------




--------------------------------------- Iteration      1(  24)  ---------------------------------------


    POTLOK:  cpu time    0.0456: real time    0.0457
    SETDIJ:  cpu time    0.0068: real time    0.0068
     EDDAV:  cpu time   36.2277: real time   36.3135
    CHARGE:  cpu time    0.9657: real time    0.9680
    MIXING:  cpu time    0.0032: real time    0.0032
    --------------------------------------------
      LOOP:  cpu time   37.2490: real time   37.3371

 eigenvalue-minimisations  : 21792
 total energy-change (2. order) : 0.2866679E-03  (-0.7735772E-04)
 number of electron     351.9999996 magnetization 
 augmentation part      115.5305424 magnetization 

 Broyden mixing:
  rms(total) = 0.23382E-01    rms(broyden)= 0.23377E-01
  rms(prec ) = 0.33858E-01
  weight for this iteration     100.00

 eigenvalues of (default mixing * dielectric matrix)
  average eigenvalue GAMMA=   0.7201
  2.5961  2.1227  1.7358  0.9463  0.9463  0.8422  0.8422  0.4612  0.4612  0.4190
  0.4190  0.1452  0.3356  0.2764  0.2764  0.2368  0.1951  0.2177  0.2071

 Free energy of the ion-electron system (eV)
  ---------------------------------------------------
  alpha Z        PSCENC =      1214.69000140
  Ewald energy   TEWEN  =    -20666.49686352
  -Hartree energ DENC   =    -11199.27125568
  -exchange      EXHF   =         0.00000000
  -V(xc)+E(xc)   XCENC  =      1422.32814866
  PAW double counting   =     40338.77886098   -41549.76206835
  entropy T*S    EENTRO =        -0.00085029
  eigenvalues    EBANDS =      -838.50827998
  atomic energy  EATOM  =     31013.67235384
  Solvation  Ediel_sol  =         0.00000000
  ---------------------------------------------------
  free energy    TOTEN  =      -264.56995295 eV

  energy without entropy =     -264.56910265  energy(sigma->0) =     -264.56952780


--------------------------------------------------------------------------------------------------------




--------------------------------------- Iteration      1(  25)  ---------------------------------------


    POTLOK:  cpu time    0.0466: real time    0.0468
    SETDIJ:  cpu time    0.0070: real time    0.0070
     EDDAV:  cpu time   40.9187: real time   41.0156
    CHARGE:  cpu time    0.9536: real time    0.9558
    MIXING:  cpu time    0.0033: real time    0.0033
    --------------------------------------------
      LOOP:  cpu time   41.9293: real time   42.0285

 eigenvalue-minimisations  : 22848
 total energy-change (2. order) : 0.1290253E-03  (-0.2404036E-04)
 number of electron     351.9999996 magnetization 
 augmentation part      115.5284223 magnetization 

 Broyden mixing:
  rms(total) = 0.18744E-01    rms(broyden)= 0.18743E-01
  rms(prec ) = 0.27178E-01
  weight for this iteration     100.00

 eigenvalues of (default mixing * dielectric matrix)
  average eigenvalue GAMMA=   0.7276
  2.4305  2.3930  1.6688  1.0823  1.0823  0.8512  0.8512  0.5297  0.5297  0.4376
  0.4376  0.3678  0.3492  0.1452  0.2886  0.2532  0.1951  0.2358  0.2073  0.2158

 Free energy of the ion-electron system (eV)
  ---------------------------------------------------
[...]
 total augmentation occupancy for first ion, spin component:           1
 13.413   0.625  -0.409  -0.174  -0.503 -10.832  -0.679   0.400   0.099   1.199  -0.408   0.111   0.947  -0.105  -0.520  -0.171
  0.625  12.648   0.318  -0.182  -0.688  -0.689  -9.843  -0.524   0.087   0.675  -0.681   0.285   0.488   0.474  -0.094  -0.180
 -0.409   0.318  11.720   1.063  -0.416   0.375  -0.500 -13.325  -1.101   0.604   0.078  -0.013  -0.649   1.997  -0.655   0.103
 -0.174  -0.182   1.063  13.397   1.181   0.107   0.083  -1.140 -10.680  -1.510  -1.676   0.449  -0.059   0.767   0.602   0.017
 -0.503  -0.688  -0.416   1.181  12.188   1.199   0.627   0.615  -1.449 -13.425  -0.695   0.186  -1.676   0.105   1.034   0.313
-10.832  -0.689   0.375   0.107   1.199  10.235   0.740  -0.363  -0.042  -1.803   0.379  -0.108  -0.930   0.101   0.562   0.139
 -0.679  -9.843  -0.500   0.083   0.627   0.740   9.051   0.679  -0.001  -0.627   0.647  -0.260  -0.436  -0.441   0.091   0.126
  0.400  -0.524 -13.325  -1.140   0.615  -0.363   0.679  16.285   1.175  -0.811  -0.114   0.038   0.690  -2.167   0.717  -0.095
  0.099   0.087  -1.101 -10.680  -1.449  -0.042  -0.001   1.175   9.965   1.748   1.657  -0.448   0.063  -0.725  -0.566  -0.018
  1.199   0.675   0.604  -1.510 -13.425  -1.803  -0.627  -0.811   1.748  16.064   0.766  -0.198   1.817  -0.111  -1.100  -0.299
 -0.408  -0.681   0.078  -1.676  -0.695   0.379   0.647  -0.114   1.657   0.766   5.264  -1.314  -0.509  -0.764  -0.620   0.096
  0.111   0.285  -0.013   0.449   0.186  -0.108  -0.260   0.038  -0.448  -0.198  -1.314   0.435   0.152   0.222   0.184  -0.042
  0.947   0.488  -0.649  -0.059  -1.676  -0.930  -0.436   0.690   0.063   1.817  -0.509   0.152   0.886   0.042   0.033  -0.145
 -0.105   0.474   1.997   0.767   0.105   0.101  -0.441  -2.167  -0.725  -0.111  -0.764   0.222   0.042   0.873   0.124  -0.013
 -0.520  -0.094  -0.655   0.602   1.034   0.562   0.091   0.717  -0.566  -1.100  -0.620   0.184   0.033   0.124   1.058  -0.008
 -0.171  -0.180   0.103   0.017   0.313   0.139   0.126  -0.095  -0.018  -0.299   0.096  -0.042  -0.145  -0.013  -0.008   0.041
  0.010  -0.146  -0.316  -0.162   0.003  -0.011   0.106   0.282   0.121  -0.001   0.137  -0.064  -0.013  -0.135  -0.025   0.006
 -0.033   0.006   0.109  -0.174  -0.180  -0.015  -0.008  -0.090   0.122   0.138   0.109  -0.051  -0.010  -0.024  -0.166   0.004


------------------------ aborting loop because EDIFF is reached ----------------------------------------


    CHARGE:  cpu time    0.9247: real time    0.9269
    FORLOC:  cpu time    0.0204: real time    0.0204
    FORNL :  cpu time    8.5373: real time    8.5575
    STRESS:  cpu time   25.3505: real time   25.4107
    FORCOR:  cpu time    0.0615: real time    0.0617
    FORHAR:  cpu time    0.0285: real time    0.0286
    MIXING:  cpu time    0.0039: real time    0.0039
    OFIELD:  cpu time    0.0001: real time    0.0001

  FORCE on cell =-STRESS in cart. coord.  units (eV):
  Direction    XX          YY          ZZ          XY          YZ          ZX
  --------------------------------------------------------------------------------------
  Alpha Z  1214.69000  1214.69000  1214.69000
  Ewald   -6922.79739 -6827.55295 -6916.26898     9.29724   523.48588   294.93694
  Hartree  3752.22392  3794.37223  3653.32912    14.99782   312.02857   221.86884
  E(xc)   -1815.29579 -1815.63829 -1815.99896     0.08465    -0.09625     0.10185
  Local   -3872.70104 -3995.35407 -3757.77474   -30.29764  -804.06483  -514.03730
  n-local  -701.65488  -693.53581  -687.20911    -0.68578     6.63871    -1.67005
  augment  2984.97188  2979.72758  2973.95041     3.41474   -10.87686    -2.91961
  Kinetic  5468.02587  5471.75809  5478.38598    -0.90717   -18.21136     1.26215
  Fock        0.00000     0.00000     0.00000     0.00000     0.00000     0.00000
  -------------------------------------------------------------------------------------
  Total      107.4625755    128.4667893    143.1037251     -4.0961471      8.9038532     -0.4571701
  in kB      381.5745999    456.1556754    508.1280286    -14.5444653     31.6155107     -1.6233047
  external PRESSURE =     448.6194346 kB  Pullay stress =       0.0000000 kB


 VOLUME and BASIS-vectors are now :
 -----------------------------------------------------------------------------
  energy-cutoff  :      500.00
  volume of cell :      451.22
      direct lattice vectors                 reciprocal lattice vectors
     7.670013410  0.000000000  0.000000000     0.130377869  0.000000000  0.000000000
     0.000000000  7.670013410  0.000000000     0.000000000  0.130377869  0.000000000
     0.000000000  0.000000000  7.670013410     0.000000000  0.000000000  0.130377869

  length of vectors
     7.670013410  7.670013410  7.670013410     0.130377869  0.130377869  0.130377869


 FORCES acting on ions
    electron-ion (+dipol)            ewald-force                    non-local-force                 convergence-correction
 -----------------------------------------------------------------------------------------------
   -.260E+03 -.180E+03 -.276E+03   0.277E+03 0.194E+03 0.296E+03   -.573E+01 -.310E+01 -.437E+01   0.364E-01 -.390E-02 0.392E-01
   0.512E+02 0.808E+02 -.807E+02   -.557E+02 -.795E+02 0.836E+02   0.322E+01 0.151E+01 0.586E+00   0.140E-01 -.129E-01 0.190E-01
   -.117E+03 0.524E+02 -.846E+02   0.121E+03 -.528E+02 0.893E+02   0.234E+00 0.449E-01 -.188E+00   0.181E-01 -.295E-01 0.140E-01
   -.171E+03 0.176E+03 0.834E+02   0.178E+03 -.183E+03 -.920E+02   -.190E+01 0.376E+01 0.327E+01   0.220E-01 -.244E-01 0.703E-02
   -.260E+03 -.223E+03 -.159E+03   0.274E+03 0.240E+03 0.168E+03   -.238E+01 -.302E+01 -.350E+01   0.218E-01 0.162E-01 -.756E-02
   0.552E+02 0.215E+02 0.683E+00   -.614E+02 -.209E+02 0.101E+01   -.521E-01 0.190E+01 0.180E+01   0.138E-01 0.108E-01 -.347E-01
   -.671E+02 0.958E+02 -.373E+02   0.731E+02 -.109E+03 0.418E+02   0.317E+00 0.806E+00 -.250E+01   0.164E-01 0.137E-01 -.164E-01
   -.259E+03 0.125E+03 0.256E+03   0.275E+03 -.132E+03 -.272E+03   -.420E+01 0.361E+01 0.261E+01   0.327E-01 -.642E-02 -.164E-01
   0.385E+02 0.870E+02 0.283E+02   -.409E+02 -.898E+02 -.282E+02   -.795E+00 -.425E+00 0.449E+00   -.351E-01 -.236E-01 -.383E-01
   0.116E+03 0.125E+03 -.401E+02   -.121E+03 -.130E+03 0.433E+02   0.245E+01 0.235E+01 -.128E+01   -.133E-01 -.214E-02 -.202E-01
   0.268E+03 -.992E+02 0.236E+03   -.277E+03 0.107E+03 -.250E+03   0.634E+01 -.173E+01 0.186E+01   -.168E-01 -.492E-02 -.762E-02
   -.392E+02 0.190E+03 0.250E+03   0.418E+02 -.201E+03 -.275E+03   -.277E+01 0.212E+01 0.483E+01   -.260E-01 0.208E-02 -.378E-02
   -.840E+02 -.207E+03 -.271E+03   0.872E+02 0.231E+03 0.287E+03   -.178E+01 -.518E+01 -.325E+01   -.211E-01 0.908E-02 0.217E-01
   0.234E+03 0.307E+02 -.168E+03   -.244E+03 -.366E+02 0.180E+03   0.342E+01 0.437E+01 -.276E+01   -.227E-01 -.441E-03 0.301E-01
   0.169E+03 -.123E+03 -.337E+02   -.174E+03 0.128E+03 0.314E+02   0.333E+01 -.132E+01 0.639E+00   -.282E-01 0.109E-01 0.884E-02
   0.392E+02 -.954E+02 0.299E+02   -.413E+02 0.951E+02 -.306E+02   -.177E+01 -.145E+01 0.104E+00   -.419E-01 0.105E-01 0.194E-01
   -.188E+03 0.187E+03 0.125E+03   0.205E+03 -.204E+03 -.137E+03   -.174E+02 0.170E+02 0.122E+02   -.651E-02 0.726E-03 0.572E-02
   -.170E+03 -.168E+03 -.191E+03   0.183E+03 0.183E+03 0.203E+03   -.152E+02 -.165E+02 -.138E+02   0.803E-02 -.209E-01 0.306E-02
   0.224E+03 -.205E+03 -.297E+03   -.239E+03 0.219E+03 0.321E+03   0.132E+02 -.138E+02 -.207E+02   0.263E-02 0.487E-02 0.860E-02
   -.278E+03 -.299E+03 0.244E+03   0.297E+03 0.322E+03 -.267E+03   -.164E+02 -.179E+02 0.178E+02   0.155E-01 0.923E-02 -.329E-02
   0.145E+03 0.178E+03 0.213E+03   -.157E+03 -.193E+03 -.232E+03   0.131E+02 0.160E+02 0.183E+02   0.205E-01 0.199E-01 0.238E-01
   -.269E+03 0.269E+03 -.382E+03   0.288E+03 -.296E+03 0.416E+03   -.152E+02 0.175E+02 -.255E+02   0.192E-01 -.493E-02 0.239E-01
   0.203E+03 0.114E+03 -.190E+03   -.220E+03 -.122E+03 0.201E+03   0.187E+02 0.968E+01 -.124E+02   -.154E-01 0.206E-01 0.938E-02
   0.130E+03 -.177E+03 0.163E+03   -.144E+03 0.190E+03 -.178E+03   0.156E+02 -.135E+02 0.149E+02   0.151E-01 -.173E-02 0.869E-02
   -.219E+03 0.178E+03 0.187E+03   0.239E+03 -.192E+03 -.198E+03   -.195E+02 0.148E+02 0.121E+02   -.522E-02 -.362E-02 -.253E-01
   -.212E+03 -.358E+03 -.111E+03   0.228E+03 0.394E+03 0.119E+03   -.149E+02 -.238E+02 -.860E+01   0.149E-01 0.322E-02 -.215E-01
   0.201E+03 -.169E+03 -.174E+03   -.216E+03 0.182E+03 0.187E+03   0.157E+02 -.134E+02 -.144E+02   0.327E-02 -.265E-01 -.299E-01
   -.274E+03 -.285E+03 0.418E+03   0.291E+03 0.308E+03 -.458E+03   -.144E+02 -.206E+02 0.272E+02   0.259E-01 0.299E-02 -.128E-01
   0.210E+03 0.213E+03 0.288E+03   -.222E+03 -.224E+03 -.313E+03   0.117E+02 0.113E+02 0.224E+02   0.139E-02 -.121E-02 -.131E-02
   -.267E+03 0.341E+03 -.247E+03   0.287E+03 -.376E+03 0.266E+03   -.187E+02 0.220E+02 -.149E+02   0.835E-02 -.156E-01 -.422E-02
   0.247E+03 0.184E+03 -.178E+03   -.269E+03 -.195E+03 0.192E+03   0.214E+02 0.107E+02 -.125E+02   -.271E-01 -.642E-02 -.673E-02
   0.138E+03 -.171E+03 0.182E+03   -.149E+03 0.183E+03 -.192E+03   0.118E+02 -.137E+02 0.122E+02   0.321E-01 0.737E-02 -.191E-01
   -.159E+03 0.198E+03 0.299E+03   0.171E+03 -.219E+03 -.321E+03   -.128E+02 0.185E+02 0.154E+02   0.125E-01 0.290E-01 -.160E-01
   -.242E+03 -.108E+03 -.103E+03   0.264E+03 0.114E+03 0.115E+03   -.205E+02 -.683E+01 -.138E+02   -.306E-02 0.799E-02 -.654E-02
   0.318E+03 -.272E+03 -.191E+03   -.349E+03 0.294E+03 0.207E+03   0.208E+02 -.216E+02 -.161E+02   -.165E-01 0.542E-02 -.304E-02
   -.139E+03 -.301E+03 0.352E+03   0.146E+03 0.328E+03 -.382E+03   -.750E+01 -.220E+02 0.238E+02   -.125E-01 0.889E-02 -.916E-02
   0.295E+03 0.239E+03 0.365E+03   -.320E+03 -.261E+03 -.398E+03   0.164E+02 0.187E+02 0.255E+02   -.939E-02 -.155E-01 -.124E-01
   -.216E+03 0.174E+03 -.167E+03   0.238E+03 -.188E+03 0.182E+03   -.171E+02 0.138E+02 -.146E+02   -.360E-01 -.213E-02 -.307E-01
   0.229E+03 0.222E+03 -.120E+03   -.253E+03 -.241E+03 0.132E+03   0.189E+02 0.182E+02 -.118E+02   0.155E-01 0.808E-03 -.312E-02
   0.207E+03 -.220E+03 0.190E+03   -.225E+03 0.241E+03 -.202E+03   0.199E+02 -.177E+02 0.133E+02   -.103E-01 -.101E-02 -.152E-01
   -.251E+03 0.209E+03 0.172E+03   0.269E+03 -.227E+03 -.189E+03   -.153E+02 0.162E+02 0.159E+02   0.179E-01 -.604E-02 0.374E-01
   -.181E+03 -.212E+03 -.230E+03   0.202E+03 0.227E+03 0.244E+03   -.223E+02 -.142E+02 -.136E+02   -.259E-01 0.144E-01 0.147E-01
   0.326E+03 -.262E+03 -.337E+03   -.354E+03 0.286E+03 0.368E+03   0.165E+02 -.219E+02 -.206E+02   -.817E-02 0.335E-02 0.308E-01
   -.147E+03 -.158E+03 0.236E+03   0.157E+03 0.174E+03 -.254E+03   -.952E+01 -.177E+02 0.141E+02   -.269E-01 -.247E-01 -.413E-02
   0.278E+03 0.280E+03 0.186E+03   -.300E+03 -.303E+03 -.203E+03   0.173E+02 0.173E+02 0.180E+02   -.105E-01 -.117E-01 0.582E-02
   -.115E+03 0.363E+03 -.360E+03   0.120E+03 -.401E+03 0.400E+03   -.751E+01 0.218E+02 -.241E+02   -.139E-01 -.616E-02 0.143E-01
   0.210E+03 0.196E+03 -.205E+03   -.230E+03 -.213E+03 0.219E+03   0.178E+02 0.177E+02 -.157E+02   0.374E-01 -.110E-01 0.799E-02
   0.229E+03 -.238E+03 0.109E+03   -.247E+03 0.251E+03 -.122E+03   0.193E+02 -.112E+02 0.131E+02   -.181E-01 0.106E-01 0.295E-01
 -----------------------------------------------------------------------------------------------
   -.217E+02 0.673E+00 -.212E+02   0.739E-12 -.512E-12 0.284E-12   0.217E+02 -.634E+00 0.212E+02   -.253E-01 -.448E-01 0.132E-01
 
 
 POSITION                                       TOTAL-FORCE (eV/Angst)
 -----------------------------------------------------------------------------------
      0.99613      4.76383      0.92389        10.864180     11.228135     14.902644
      2.95664      6.75980      0.92120        -1.318241      2.785901      3.488721
      2.86111      4.96657      2.87132         3.939420     -0.409010      4.524859
      0.99521      6.80766      2.99934         4.980601     -3.534778     -5.279227
      0.89939      0.88183      4.88242        12.299186     14.683648      5.464806
      3.13845      2.92291      4.77150        -6.219213      2.484526      3.466311
      2.84199      1.23984      6.86132         6.384859    -12.486951      2.005736
      0.97439      2.97764      7.04457        11.300555     -3.809984    -13.470698
      4.98827      4.98254      4.93775        -3.314355     -3.239513      0.507846
      6.82690      6.89736      4.88283        -2.659236     -3.039868      1.889188
      6.74286      4.66801      7.01070        -2.527672      6.062950    -12.767167
      5.02465      6.94819      6.93899        -0.220950     -8.764323    -20.513173
      4.94003      0.87545      0.86514         1.356652     19.350490     12.126894
      6.81302      2.88615      0.89913        -5.851899     -1.468514      8.785540
      6.74953      1.04131      3.00365        -1.188304      3.432634     -1.679531
      5.07098      3.11744      2.88608        -3.945463     -1.736227     -0.578407
      6.82771      1.08552      1.12474        -0.327118     -0.698833      0.042905
      3.04055      6.94032      2.88983        -2.055006     -2.236731     -1.146664
      3.16323      0.93636      0.85566        -1.636268     -0.040111      3.153626
      0.85073      0.79989      3.21262         2.242655      5.916547     -4.551537
      2.96640      3.01684      3.04036         1.572872      1.216437     -1.449085
      0.78608      3.21585      0.92635         3.516494     -8.569595      9.302147
      4.80179      0.99326      2.92669         2.310036      1.437329     -1.395190
      1.04045      6.78934      1.11923         1.486214     -1.223036      0.284762
      6.78921      4.96056      5.02411         0.271182      0.720076      0.238525
      2.84972      2.75578      6.80707         0.657048     11.811640     -0.133058
      3.07119      4.83879      4.87830         0.553226     -0.746376     -1.335354
      0.86235      4.70302      7.08520         1.838806      2.208035    -13.133003
      3.11143      6.88900      6.88651        -0.317146      0.356416     -2.566899
      0.91300      7.05885      4.64527         1.371529    -12.892578      4.582533
      4.99456      4.97224      6.75249        -0.573297      0.273637      1.316190
      1.14866      3.02006      4.94504         0.760467     -2.000665      1.648594
      2.99888      1.20400      5.25561        -0.597182     -1.896998     -6.669341
      6.78480      6.80746      6.87973         1.134271     -0.744934     -1.652849
      7.03967      1.05532      4.85777       -10.270781      0.845902     -0.034009
      4.91746      0.93340      6.92681        -0.241943      5.117433     -6.834712
      7.08809      3.01871      7.00659        -8.760481     -2.970915     -7.225060
      4.80189      3.12254      4.68221         4.143008      0.025019      0.603490
      1.22470      1.18489      6.78999        -5.734088     -1.194370      0.256953
      4.93860      6.66825      5.00267         1.750012      3.410711      0.824858
      2.76532      5.03018      1.13509         1.848898     -1.798865     -1.213278
      6.83563      2.85060      2.73932        -0.764318      0.766317      0.779553
      7.16624      4.99223      0.79249       -10.909654      2.090777     10.306284
      4.77286      5.03170      3.20839         0.564710     -1.125858     -3.242802
      7.01590      7.06618      2.92438        -5.353864     -4.968615      1.012397
      4.80428      7.11982      0.68012        -2.207349    -16.812827     16.805177
      1.15149      4.92445      3.02062        -1.940924      0.999052     -1.835938
      4.91484      2.71831      1.03156         1.787871      1.186862      0.386442
 -----------------------------------------------------------------------------------
    total drift:                               -0.004741     -0.005835      0.022083


--------------------------------------------------------------------------------------------------------



  FREE ENERGIE OF THE ION-ELECTRON SYSTEM (eV)
  ---------------------------------------------------
  free  energy   TOTEN  =      -264.5695819653 eV

  energy  without entropy=     -264.5687833137  energy(sigma->0) =     -264.56918264
 


--------------------------------------------------------------------------------------------------------


    POTLOK:  cpu time    0.0555: real time    0.0556


--------------------------------------------------------------------------------------------------------


     LOOP+:  cpu time 1162.0112: real time 1165.1742
    4ORBIT:  cpu time    0.0000: real time    0.0000

volume of typ            1:    22.6 %

volume of typ            2:    11.6 %
 
total charge     
 
# of ion       s       p       d       tot
------------------------------------------
    1        0.451   0.726   8.071   9.247
    2        0.319   0.443   7.869   8.631
    3        0.307   0.418   7.840   8.565
    4        0.357   0.545   7.913   8.816
    5        0.414   0.607   8.021   9.042
    6        0.329   0.451   7.837   8.617
    7        0.434   0.669   7.994   9.096
    8        0.399   0.623   7.999   9.021
    9        0.344   0.513   7.854   8.711
   10        0.287   0.384   7.868   8.538
   11        0.375   0.552   7.960   8.887
   12        0.411   0.636   8.000   9.047
   13        0.415   0.663   8.020   9.098
   14        0.360   0.541   7.959   8.861
   15        0.327   0.480   7.878   8.685
   16        0.279   0.350   7.827   8.456
   17        1.293   2.715   0.008   4.016
   18        1.298   2.656   0.005   3.960
   19        1.283   2.793   0.012   4.087
   20        1.290   2.822   0.017   4.129
   21        1.295   2.686   0.008   3.989
   22        1.281   2.938   0.029   4.248
   23        1.301   2.638   0.004   3.943
   24        1.294   2.694   0.006   3.994
   25        1.288   2.709   0.007   4.004
   26        1.286   2.812   0.017   4.115
   27        1.296   2.675   0.006   3.976
   28        1.296   2.861   0.024   4.180
   29        1.287   2.745   0.009   4.040
   30        1.283   2.895   0.025   4.203
   31        1.282   2.748   0.009   4.038
   32        1.298   2.643   0.004   3.944
   33        1.285   2.787   0.013   4.085
   34        1.295   2.694   0.007   3.996
   35        1.289   2.809   0.018   4.117
   36        1.289   2.823   0.017   4.129
   37        1.283   2.917   0.028   4.228
   38        1.276   2.790   0.012   4.077
   39        1.281   2.794   0.013   4.088
   40        1.289   2.744   0.010   4.044
   41        1.270   2.814   0.013   4.097
   42        1.282   2.757   0.010   4.049
   43        1.296   2.886   0.027   4.209
   44        1.283   2.733   0.008   4.024
   45        1.286   2.802   0.016   4.104
   46        1.293   2.991   0.042   4.326
   47        1.290   2.725   0.009   4.023
   48        1.283   2.732   0.007   4.023
--------------------------------------------------
tot          47.03   97.43  127.35  271.81
 

 total amount of memory used by VASP MPI-rank0   165780. kBytes
=======================================================================

   base      :      30000. kBytes
   nonlr-proj:      21841. kBytes
   fftplans  :       3726. kBytes
   grid      :      12054. kBytes
   one-center:        746. kBytes
   wavefun   :      97413. kBytes
 
  
  
 General timing and accounting informations for this job:
 ========================================================
  
                  Total CPU time used (sec):     1187.291
                            User time (sec):     1184.456
                          System time (sec):        2.834
                         Elapsed time (sec):     1193.946
  
                   Maximum memory used (kb):      217784.
                   Average memory used (kb):           0.
  
                          Minor page faults:        35284
                          Major page faults:           43
                 Voluntary context switches:         1242
