 vasp.5.4.4.18Apr17-6-g9f103f2a35 (build May 12 2020 04:58:55) complex          
  
 MD_VERSION_INFO: Compiled 2020-05-12T11:58:55-UTC in devlin.sd.materialsdesign.
 com:/home/medea2/data/build/wwolf/vasp-gpu5.4.4/13047/x86_64/src/src/build/std 
 from svn 13047
 
 This VASP executable licensed from Materials Design, Inc.
 
 executed on                        Lin64 date 2023.04.27  03:44:45
 running on   16 total cores
 distrk:  each k-point on   16 cores,    1 groups
 distr:  one band on NCORES_PER_BAND=   1 cores,   16 groups


--------------------------------------------------------------------------------------------------------


 INCAR:
 POTCAR:    PAW_PBE Ni 02Aug2007                  
 POTCAR:    PAW_PBE O 08Apr2002                   

 ----------------------------------------------------------------------------- 
|                                                                             |
|           W    W    AA    RRRRR   N    N  II  N    N   GGGG   !!!           |
|           W    W   A  A   R    R  NN   N  II  NN   N  G    G  !!!           |
|           W    W  A    A  R    R  N N  N  II  N N  N  G       !!!           |
|           W WW W  AAAAAA  RRRRR   N  N N  II  N  N N  G  GGG   !            |
|           WW  WW  A    A  R   R   N   NN  II  N   NN  G    G                |
|           W    W  A    A  R    R  N    N  II  N    N   GGGG   !!!           |
|                                                                             |
|      For optimal performance we recommend to set                            |
|        NCORE= 4 - approx SQRT( number of cores)                             |
|      NCORE specifies how many cores store one orbital (NPAR=cpu/NCORE).     |
|      This setting can  greatly improve the performance of VASP for DFT.     |
|      The default,   NCORE=1            might be grossly inefficient         |
|      on modern multi-core architectures or massively parallel machines.     |
|      Do your own testing !!!!                                               |
|      Unfortunately you need to use the default for GW and RPA calculations. |
|      (for HF NCORE is supported but not extensively tested yet)             |
|                                                                             |
 ----------------------------------------------------------------------------- 

 POTCAR:    PAW_PBE Ni 02Aug2007                  
  local pseudopotential read in
  partial core-charges read in
  partial kinetic energy density read in
  atomic valenz-charges read in
  non local Contribution for L=           2  read in
    real space projection operators read in
  non local Contribution for L=           2  read in
    real space projection operators read in
  non local Contribution for L=           0  read in
    real space projection operators read in
  non local Contribution for L=           0  read in
    real space projection operators read in
  non local Contribution for L=           1  read in
    real space projection operators read in
  non local Contribution for L=           1  read in
    real space projection operators read in
    PAW grid and wavefunctions read in
 
   number of l-projection  operators is LMAX  =           6
   number of lm-projection operators is LMMAX =          18
 
 POTCAR:    PAW_PBE O 08Apr2002                   
  local pseudopotential read in
  partial core-charges read in
  partial kinetic energy density read in
  kinetic energy density of atom read in
  atomic valenz-charges read in
  non local Contribution for L=           0  read in
    real space projection operators read in
  non local Contribution for L=           0  read in
    real space projection operators read in
  non local Contribution for L=           1  read in
    real space projection operators read in
  non local Contribution for L=           1  read in
    real space projection operators read in
    PAW grid and wavefunctions read in
 
   number of l-projection  operators is LMAX  =           4
   number of lm-projection operators is LMMAX =           8
 
 Optimization of the real space projectors (new method)

 maximal supplied QI-value         = 16.25
 optimisation between [QCUT,QGAM] = [ 11.38, 22.75] = [ 36.24,144.96] Ry 
 Optimized for a Real-space Cutoff    1.47 Angstroem

   l    n(q)    QCUT    max X(q) W(low)/X(q) W(high)/X(q)  e(spline) 
   2      9    11.376    60.317    0.17E-03    0.16E-04    0.16E-06
   2      9    11.376    55.921    0.17E-03    0.16E-04    0.17E-06
   0     10    11.376    51.690    0.45E-04    0.60E-04    0.21E-06
   0     10    11.376    30.015    0.37E-04    0.55E-04    0.19E-06
   1     10    11.376    18.849    0.83E-04    0.11E-03    0.92E-07
   1     10    11.376    14.624    0.69E-04    0.92E-04    0.82E-07
 Optimization of the real space projectors (new method)

 maximal supplied QI-value         = 24.76
 optimisation between [QCUT,QGAM] = [ 11.39, 22.77] = [ 36.31,145.25] Ry 
 Optimized for a Real-space Cutoff    1.10 Angstroem

   l    n(q)    QCUT    max X(q) W(low)/X(q) W(high)/X(q)  e(spline) 
   0      7    11.387    20.381    0.22E-03    0.48E-03    0.18E-06
   0      7    11.387    15.268    0.22E-03    0.52E-03    0.19E-06
   1      7    11.387     5.964    0.22E-03    0.73E-03    0.24E-06
   1      7    11.387     5.382    0.19E-03    0.60E-03    0.21E-06

 ----------------------------------------------------------------------------- 
|                                                                             |
|  ADVICE TO THIS USER RUNNING 'VASP/VAMP'   (HEAR YOUR MASTER'S VOICE ...):  |
|                                                                             |
|      You enforced a specific xc-type in the INCAR file,                     |
|      a different type was found on the POTCAR file                          |
|          I HOPE YOU KNOW, WHAT YOU ARE  DOING                               |
|                                                                             |
 ----------------------------------------------------------------------------- 

  PAW_PBE Ni 02Aug2007                  :
 energy of atom  1       EATOM=-1077.6739
 kinetic energy error for atom=    0.0030 (will be added to EATOM!!)
  PAW_PBE O 08Apr2002                   :
 energy of atom  2       EATOM= -432.3788
 kinetic energy error for atom=    0.0224 (will be added to EATOM!!)
 
 
 POSCAR: NiO2_Fd-3m_scale_0_975_disp_0_06_round_1
  positions in direct lattice
  No initial velocities read in
 exchange correlation table for  LEXCH =       14
   RHO(1)=    0.500       N(1)  =     2000
   RHO(2)=  100.500       N(2)  =     4000
 


--------------------------------------------------------------------------------------------------------


 ion  position               nearest neighbor table
   1  0.140  0.642  0.130-  41 1.73  43 1.73  28 1.74  24 1.79  22 1.88  47 1.89   8 2.56  11 2.58
                             3 2.62   2 2.62  14 2.75   4 2.76
   2  0.384  0.882  0.129-  29 1.63  19 1.75  41 1.78  18 1.87  46 1.91  24 1.99   7 2.56  12 2.62
                             1 2.62  13 2.64   3 2.66   4 2.73
   3  0.373  0.643  0.380-  47 1.77  41 1.83  18 1.83  27 1.86  21 2.03  44 2.05   1 2.62   4 2.66
                             2 2.66  16 2.78   6 2.82   9 2.89
   4  0.137  0.896  0.385-  20 1.61  18 1.71  47 1.75  45 1.77  30 1.77  24 1.79  15 2.52  10 2.65
                             3 2.66   5 2.67   2 2.73   1 2.76
   5  0.120  0.133  0.640-  35 1.60  39 1.67  30 1.75  32 1.80  20 1.82  33 2.01  10 2.45  15 2.52
                             4 2.67   7 2.78   6 2.86   8 2.86
   6  0.389  0.391  0.647-  27 1.74  38 1.75  26 1.82  32 1.85  21 1.90  33 1.94   9 2.66  16 2.71
                             8 2.79   3 2.82   7 2.82   5 2.86
   7  0.383  0.113  0.888-  29 1.68  36 1.81  33 1.82  19 1.89  39 1.92  26 1.99  12 2.56   2 2.56
                            13 2.67   5 2.78   6 2.82   8 2.87
   8  0.135  0.393  0.908-  37 1.68  22 1.70  28 1.78  26 1.84  39 1.95  32 2.02  14 2.50   1 2.56
                            11 2.68   6 2.79   5 2.86   7 2.87
   9  0.637  0.633  0.648-  31 1.81  40 1.87  27 1.87  38 1.91  44 1.92  25 1.98  16 2.66   6 2.66
                            12 2.76  11 2.77  10 2.88   3 2.89
  10  0.904  0.898  0.641-  30 1.70  35 1.70  34 1.85  25 1.88  45 1.91  40 1.96   5 2.45  15 2.53
                             4 2.65  11 2.85  12 2.85   9 2.88
  11  0.887  0.639  0.908-  43 1.59  28 1.71  31 1.78  37 1.86  34 1.87  25 1.99   1 2.58  14 2.58
                             8 2.68  12 2.75   9 2.77  10 2.85
  12  0.634  0.894  0.896-  46 1.72  36 1.76  34 1.78  40 1.80  31 1.81  29 1.82  13 2.43   7 2.56
                             2 2.62  11 2.75   9 2.76  10 2.85
  13  0.638  0.114  0.124-  46 1.41  36 1.62  19 1.89  17 1.89  48 1.93  23 1.99  12 2.43   2 2.64
                             7 2.67  14 2.84  15 2.89  16 3.00
  14  0.893  0.382  0.125-  37 1.65  22 1.65  48 1.70  42 1.81  43 1.90  17 1.91   8 2.50  11 2.58
                             1 2.75  13 2.84  16 2.85  15 2.90
  15  0.897  0.120  0.398-  45 1.59  20 1.68  35 1.77  42 1.82  23 1.86  17 2.09   4 2.52   5 2.52
                            10 2.53  13 2.89  14 2.90  16 2.90
  16  0.639  0.396  0.396-  44 1.67  38 1.74  21 1.90  42 1.94  23 2.01  48 2.04   9 2.66   6 2.71
                             3 2.78  14 2.85  15 2.90  13 3.00
  17  0.884  0.133  0.126-  13 1.89  14 1.91  15 2.09
  18  0.358  0.881  0.371-   4 1.71   3 1.83   2 1.87
  19  0.393  0.110  0.135-   2 1.75  13 1.89   7 1.89
  20  0.116  0.104  0.404-   4 1.61  15 1.68   5 1.82
  21  0.391  0.380  0.400-   6 1.90  16 1.90   3 2.03
  22  0.107  0.399  0.128-  14 1.65   8 1.70   1 1.88
  23  0.656  0.136  0.383-  15 1.86  13 1.99  16 2.01
  24  0.126  0.874  0.153-   4 1.79   1 1.79   2 1.99
  25  0.895  0.653  0.649-  10 1.88   9 1.98  11 1.99
  26  0.372  0.372  0.884-   6 1.82   8 1.84   7 1.99
  27  0.395  0.616  0.620-   6 1.74   3 1.86   9 1.87
  28  0.110  0.623  0.906-  11 1.71   1 1.74   8 1.78
  29  0.397  0.897  0.918-   2 1.63   7 1.68  12 1.82
  30  0.124  0.906  0.615-  10 1.70   5 1.75   4 1.77
  31  0.657  0.659  0.881-  11 1.78   9 1.81  12 1.81
  32  0.150  0.366  0.647-   5 1.80   6 1.85   8 2.02
  33  0.382  0.139  0.652-   7 1.82   6 1.94   5 2.01
  34  0.865  0.880  0.878-  12 1.78  10 1.85  11 1.87
  35  0.912  0.119  0.628-   5 1.60  10 1.70  15 1.77
  36  0.617  0.122  0.915-  13 1.62  12 1.76   7 1.81
  37  0.916  0.398  0.912-  14 1.65   8 1.68  11 1.86
  38  0.616  0.387  0.621-  16 1.74   6 1.75   9 1.91
  39  0.137  0.144  0.857-   5 1.67   7 1.92   8 1.95
  40  0.650  0.876  0.663-  12 1.80   9 1.87  10 1.96
  41  0.365  0.651  0.142-   1 1.73   2 1.78   3 1.83
  42  0.886  0.354  0.360-  14 1.81  15 1.82  16 1.94
  43  0.916  0.628  0.113-  11 1.59   1 1.73  14 1.90
  44  0.638  0.613  0.399-  16 1.67   9 1.92   3 2.05
  45  0.907  0.913  0.392-  15 1.59   4 1.77  10 1.91
  46  0.628  0.931  0.118-  13 1.41  12 1.72   2 1.91
  47  0.144  0.668  0.375-   4 1.75   3 1.77   1 1.89
  48  0.672  0.363  0.134-  14 1.70  13 1.93  16 2.04
 
  LATTYP: Found a simple cubic cell.
 ALAT       =     7.6700134100
  
  Lattice vectors:
  
 A1 = (   7.6700134100,   0.0000000000,   0.0000000000)
 A2 = (   0.0000000000,   7.6700134100,   0.0000000000)
 A3 = (   0.0000000000,   0.0000000000,   7.6700134100)


Analysis of symmetry for initial positions (statically):
=====================================================================
 Subroutine PRICEL returns:
 Original cell was already a primitive cell.
 

 Routine SETGRP: Setting up the symmetry group for a 
 simple cubic supercell.


 Subroutine GETGRP returns: Found  1 space group operations
 (whereof  1 operations were pure point group operations)
 out of a pool of 48 trial point group operations.


The static configuration has the point symmetry C_1 .


Analysis of symmetry for dynamics (positions and initial velocities):
=====================================================================
 Subroutine PRICEL returns:
 Original cell was already a primitive cell.
 

 Routine SETGRP: Setting up the symmetry group for a 
 simple cubic supercell.


 Subroutine GETGRP returns: Found  1 space group operations
 (whereof  1 operations were pure point group operations)
 out of a pool of 48 trial point group operations.


The dynamic configuration has the point symmetry C_1 .


 Subroutine INISYM returns: Found  1 space group operations
 (whereof  1 operations are pure point group operations),
 and found     1 'primitive' translations

 
 
 KPOINTS: Automatic mesh                          

Automatic generation of k-mesh.
Space group operators:
 irot       det(A)        alpha          n_x          n_y          n_z        tau_x        tau_y        tau_z
    1     1.000000     0.000000     1.000000     0.000000     0.000000     0.000000     0.000000     0.000000
 
 Subroutine IBZKPT returns following result:
 ===========================================
 
 Found     36 irreducible k-points:
 
 Following reciprocal coordinates:
            Coordinates               Weight
  0.000000  0.000000  0.000000      1.000000
  0.250000  0.000000  0.000000      2.000000
  0.500000  0.000000  0.000000      1.000000
  0.000000  0.250000  0.000000      2.000000
  0.250000  0.250000  0.000000      2.000000
  0.500000  0.250000  0.000000      2.000000
 -0.250000  0.250000  0.000000      2.000000
  0.000000  0.500000  0.000000      1.000000
  0.250000  0.500000  0.000000      2.000000
  0.500000  0.500000  0.000000      1.000000
  0.000000  0.000000  0.250000      2.000000
  0.250000  0.000000  0.250000      2.000000
  0.500000  0.000000  0.250000      2.000000
 -0.250000  0.000000  0.250000      2.000000
  0.000000  0.250000  0.250000      2.000000
  0.250000  0.250000  0.250000      2.000000
  0.500000  0.250000  0.250000      2.000000
 -0.250000  0.250000  0.250000      2.000000
  0.000000  0.500000  0.250000      2.000000
  0.250000  0.500000  0.250000      2.000000
  0.500000  0.500000  0.250000      2.000000
 -0.250000  0.500000  0.250000      2.000000
  0.000000 -0.250000  0.250000      2.000000
  0.250000 -0.250000  0.250000      2.000000
  0.500000 -0.250000  0.250000      2.000000
 -0.250000 -0.250000  0.250000      2.000000
  0.000000  0.000000  0.500000      1.000000
  0.250000  0.000000  0.500000      2.000000
  0.500000  0.000000  0.500000      1.000000
  0.000000  0.250000  0.500000      2.000000
  0.250000  0.250000  0.500000      2.000000
  0.500000  0.250000  0.500000      2.000000
 -0.250000  0.250000  0.500000      2.000000
  0.000000  0.500000  0.500000      1.000000
  0.250000  0.500000  0.500000      2.000000
  0.500000  0.500000  0.500000      1.000000
 
 Following cartesian coordinates:
            Coordinates               Weight
  0.000000  0.000000  0.000000      1.000000
  0.032594  0.000000  0.000000      2.000000
  0.065189  0.000000  0.000000      1.000000
  0.000000  0.032594  0.000000      2.000000
  0.032594  0.032594  0.000000      2.000000
  0.065189  0.032594  0.000000      2.000000
 -0.032594  0.032594  0.000000      2.000000
  0.000000  0.065189  0.000000      1.000000
  0.032594  0.065189  0.000000      2.000000
  0.065189  0.065189  0.000000      1.000000
  0.000000  0.000000  0.032594      2.000000
  0.032594  0.000000  0.032594      2.000000
  0.065189  0.000000  0.032594      2.000000
 -0.032594  0.000000  0.032594      2.000000
  0.000000  0.032594  0.032594      2.000000
  0.032594  0.032594  0.032594      2.000000
  0.065189  0.032594  0.032594      2.000000
 -0.032594  0.032594  0.032594      2.000000
  0.000000  0.065189  0.032594      2.000000
  0.032594  0.065189  0.032594      2.000000
  0.065189  0.065189  0.032594      2.000000
 -0.032594  0.065189  0.032594      2.000000
  0.000000 -0.032594  0.032594      2.000000
  0.032594 -0.032594  0.032594      2.000000
  0.065189 -0.032594  0.032594      2.000000
 -0.032594 -0.032594  0.032594      2.000000
  0.000000  0.000000  0.065189      1.000000
  0.032594  0.000000  0.065189      2.000000
  0.065189  0.000000  0.065189      1.000000
  0.000000  0.032594  0.065189      2.000000
  0.032594  0.032594  0.065189      2.000000
  0.065189  0.032594  0.065189      2.000000
 -0.032594  0.032594  0.065189      2.000000
  0.000000  0.065189  0.065189      1.000000
  0.032594  0.065189  0.065189      2.000000
  0.065189  0.065189  0.065189      1.000000
 


--------------------------------------------------------------------------------------------------------




 Dimension of arrays:
   k-points           NKPTS =     36   k-points in BZ     NKDIM =     36   number of bands    NBANDS=    224
   number of dos      NEDOS =    301   number of ions     NIONS =     48
   non local maximal  LDIM  =      6   non local SUM 2l+1 LMDIM =     18
   total plane-waves  NPLWV = 175616
   max r-space proj   IRMAX =   5275   max aug-charges    IRDMAX=  12814
   dimension x,y,z NGX =    56 NGY =   56 NGZ =   56
   dimension x,y,z NGXF=   112 NGYF=  112 NGZF=  112
   support grid    NGXF=   112 NGYF=  112 NGZF=  112
   ions per type =              16  32
   NGX,Y,Z   is equivalent  to a cutoff of  12.14, 12.14, 12.14 a.u.
   NGXF,Y,Z  is equivalent  to a cutoff of  24.28, 24.28, 24.28 a.u.

 SYSTEM =  unknown system                          
 POSCAR =  NiO2_Fd-3m_scale_0_975_disp_0_06_round_1

 Startparameter for this run:
   NWRITE =      1    write-flag & timer
   PREC   = accura    normal or accurate (medium, high low for compatibility)
   ISTART =      0    job   : 0-new  1-cont  2-samecut
   ICHARG =      2    charge: 1-file 2-atom 10-const
   ISPIN  =      1    spin polarized calculation?
   LNONCOLLINEAR =      F non collinear calculations
   LSORBIT =      F    spin-orbit coupling
   INIWAV =      1    electr: 0-lowe 1-rand  2-diag
   LASPH  =      F    aspherical Exc in radial PAW
   METAGGA=      F    non-selfconsistent MetaGGA calc.

 Electronic Relaxation 1
   ENCUT  =  500.0 eV  36.75 Ry    6.06 a.u.  13.98 13.98 13.98*2*pi/ulx,y,z
   ENINI  =  500.0     initial cutoff
   ENAUG  =  605.4 eV  augmentation charge cutoff
   NELM   =    120;   NELMIN=  2; NELMDL= -5     # of ELM steps 
   EDIFF  = 0.1E-04   stopping-criterion for ELM
   LREAL  =      T    real-space projection
   NLSPLINE    = F    spline interpolate recip. space projectors
   LCOMPAT=      F    compatible to vasp.4.4
   GGA_COMPAT  = T    GGA compatible to vasp.4.4-vasp.4.6
   LMAXPAW     = -100 max onsite density
   LMAXMIX     =    2 max onsite mixed and CHGCAR
   VOSKOWN=      1    Vosko Wilk Nusair interpolation
   ROPT   =   -0.00025  -0.00025
 Ionic relaxation
   EDIFFG = 0.1E-03   stopping-criterion for IOM
   NSW    =      0    number of steps for IOM
   NBLOCK =      1;   KBLOCK =      1    inner block; outer block 
   IBRION =     -1    ionic relax: 0-MD 1-quasi-New 2-CG
   NFREE  =      0    steps in history (QN), initial steepest desc. (CG)
   ISIF   =      2    stress and relaxation
   IWAVPR =     10    prediction:  0-non 1-charg 2-wave 3-comb
   ISYM   =      2    0-nonsym 1-usesym 2-fastsym
   LCORR  =      T    Harris-Foulkes like correction to forces

   POTIM  = 0.5000    time-step for ionic-motion
   TEIN   =    0.0    initial temperature
   TEBEG  =    0.0;   TEEND  =   0.0 temperature during run
   SMASS  =  -3.00    Nose mass-parameter (am)
   estimated Nose-frequenzy (Omega)   =  0.10E-29 period in steps =****** mass=  -0.134E-26a.u.
   SCALEE = 1.0000    scale energy and forces
   NPACO  =    256;   APACO  = 16.0  distance and # of slots for P.C.
   PSTRESS=    0.0 pullay stress

  Mass of Ions in am
   POMASS =  58.69 16.00
  Ionic Valenz
   ZVAL   =  10.00  6.00
  Atomic Wigner-Seitz radii
   RWIGS  =   1.15  0.73
  virtual crystal weights 
   VCA    =   1.00  1.00
   NELECT =     352.0000    total number of electrons
   NUPDOWN=      -1.0000    fix difference up-down

 DOS related values:
   EMIN   =  10.00;   EMAX   =-10.00  energy-range for DOS
   EFERMI =   0.00
   ISMEAR =     0;   SIGMA  =   0.05  broadening in eV -4-tet -1-fermi 0-gaus

 Electronic relaxation 2 (details)
   IALGO  =     38    algorithm
   LDIAG  =      T    sub-space diagonalisation (order eigenvalues)
   LSUBROT=      F    optimize rotation matrix (better conditioning)
   TURBO    =      0    0=normal 1=particle mesh
   IRESTART =      0    0=no restart 2=restart with 2 vectors
   NREBOOT  =      0    no. of reboots
   NMIN     =      0    reboot dimension
   EREF     =   0.00    reference energy to select bands
   IMIX   =      4    mixing-type and parameters
     AMIX     =   0.40;   BMIX     =  1.00
     AMIX_MAG =   1.60;   BMIX_MAG =  1.00
     AMIN     =   0.10
     WC   =   100.;   INIMIX=   1;  MIXPRE=   1;  MAXMIX= -45

 Intra band minimization:
   WEIMIN = 0.0000     energy-eigenvalue tresh-hold
   EBREAK =  0.11E-07  absolut break condition
   DEPER  =   0.30     relativ break condition  

   TIME   =   0.40     timestep for ELM

  volume/ion in A,a.u.               =       9.40        63.44
  Fermi-wavevector in a.u.,A,eV,Ry     =   1.507045  2.847902 30.901349  2.271185
  Thomas-Fermi vector in A             =   2.617683
 
 Write flags
   LWAVE        =      F    write WAVECAR
   LDOWNSAMPLE  =      F    k-point downsampling of WAVECAR
   LCHARG       =      T    write CHGCAR
   LVTOT        =      F    write LOCPOT, total local potential
   LVHAR        =      F    write LOCPOT, Hartree potential only
   LELF         =      F    write electronic localiz. function (ELF)
   LORBIT       =      0    0 simple, 1 ext, 2 COOP (PROOUT), +10 PAW based schemes


 Dipole corrections
   LMONO  =      F    monopole corrections only (constant potential shift)
   LDIPOL =      F    correct potential (dipole corrections)
   IDIPOL =      0    1-x, 2-y, 3-z, 4-all directions 
   EPSILON=  1.0000000 bulk dielectric constant

 Exchange correlation treatment:
   GGA     =    PS    GGA type
   LEXCH   =    14    internal setting for exchange type
   VOSKOWN=      1    Vosko Wilk Nusair interpolation
   LHFCALC =     F    Hartree Fock is set to
   LHFONE  =     F    Hartree Fock one center treatment
   AEXX    =    0.0000 exact exchange contribution

 Linear response parameters
   LEPSILON=     F    determine dielectric tensor
   LRPA    =     F    only Hartree local field effects (RPA)
   LNABLA  =     F    use nabla operator in PAW spheres
   LVEL    =     F    velocity operator in full k-point grid
   LINTERFAST=   F  fast interpolation
   KINTER  =     0    interpolate to denser k-point grid
   CSHIFT  =0.1000    complex shift for real part using Kramers Kronig
   OMEGAMAX=  -1.0    maximum frequency
   DEG_THRESHOLD= 0.2000000E-02 threshold for treating states as degnerate
   RTIME   =   -0.100 relaxation time in fs
  (WPLASMAI=    0.000 imaginary part of plasma frequency in eV, 0.658/RTIME)
   DFIELD  = 0.0000000 0.0000000 0.0000000 field for delta impulse in time
 
 Orbital magnetization related:
   ORBITALMAG=     F  switch on orbital magnetization
   LCHIMAG   =     F  perturbation theory with respect to B field
   DQ        =  0.001000  dq finite difference perturbation B field
   LLRAUG    =     F  two centre corrections for induced B field



--------------------------------------------------------------------------------------------------------


 Static calculation
 charge density and potential will be updated during run
 non-spin polarized calculation
 Variant of blocked Davidson
 Davidson routine will perform the subspace rotation
 perform sub-space diagonalisation
    after iterative eigenvector-optimisation
 modified Broyden-mixing scheme, WC =      100.0
 initial mixing is a Kerker type mixing with AMIX =  0.4000 and BMIX =      1.0000
 Hartree-type preconditioning will be used
 using additional bands           48
 real space projection scheme for non local part
 use partial core corrections
 calculate Harris-corrections to forces 
   (improved forces if not selfconsistent)
 use gradient corrections 
 use of overlap-Matrix (Vanderbilt PP)
 Gauss-broadening in eV      SIGMA  =   0.05


--------------------------------------------------------------------------------------------------------


  energy-cutoff  :      500.00
  volume of cell :      451.22
      direct lattice vectors                 reciprocal lattice vectors
     7.670013410  0.000000000  0.000000000     0.130377869  0.000000000  0.000000000
     0.000000000  7.670013410  0.000000000     0.000000000  0.130377869  0.000000000
     0.000000000  0.000000000  7.670013410     0.000000000  0.000000000  0.130377869

  length of vectors
     7.670013410  7.670013410  7.670013410     0.130377869  0.130377869  0.130377869


 
 k-points in units of 2pi/SCALE and weight: Automatic mesh                          
   0.00000000  0.00000000  0.00000000       0.016
   0.03259447  0.00000000  0.00000000       0.031
   0.06518893  0.00000000  0.00000000       0.016
   0.00000000  0.03259447  0.00000000       0.031
   0.03259447  0.03259447  0.00000000       0.031
   0.06518893  0.03259447  0.00000000       0.031
  -0.03259447  0.03259447  0.00000000       0.031
   0.00000000  0.06518893  0.00000000       0.016
   0.03259447  0.06518893  0.00000000       0.031
   0.06518893  0.06518893  0.00000000       0.016
   0.00000000  0.00000000  0.03259447       0.031
   0.03259447  0.00000000  0.03259447       0.031
   0.06518893  0.00000000  0.03259447       0.031
  -0.03259447  0.00000000  0.03259447       0.031
   0.00000000  0.03259447  0.03259447       0.031
   0.03259447  0.03259447  0.03259447       0.031
   0.06518893  0.03259447  0.03259447       0.031
  -0.03259447  0.03259447  0.03259447       0.031
   0.00000000  0.06518893  0.03259447       0.031
   0.03259447  0.06518893  0.03259447       0.031
   0.06518893  0.06518893  0.03259447       0.031
  -0.03259447  0.06518893  0.03259447       0.031
   0.00000000 -0.03259447  0.03259447       0.031
   0.03259447 -0.03259447  0.03259447       0.031
   0.06518893 -0.03259447  0.03259447       0.031
  -0.03259447 -0.03259447  0.03259447       0.031
   0.00000000  0.00000000  0.06518893       0.016
   0.03259447  0.00000000  0.06518893       0.031
   0.06518893  0.00000000  0.06518893       0.016
   0.00000000  0.03259447  0.06518893       0.031
   0.03259447  0.03259447  0.06518893       0.031
   0.06518893  0.03259447  0.06518893       0.031
  -0.03259447  0.03259447  0.06518893       0.031
   0.00000000  0.06518893  0.06518893       0.016
   0.03259447  0.06518893  0.06518893       0.031
   0.06518893  0.06518893  0.06518893       0.016
 
 k-points in reciprocal lattice and weights: Automatic mesh                          
   0.00000000  0.00000000  0.00000000       0.016
   0.25000000  0.00000000  0.00000000       0.031
   0.50000000  0.00000000  0.00000000       0.016
   0.00000000  0.25000000  0.00000000       0.031
   0.25000000  0.25000000  0.00000000       0.031
   0.50000000  0.25000000  0.00000000       0.031
  -0.25000000  0.25000000  0.00000000       0.031
   0.00000000  0.50000000  0.00000000       0.016
   0.25000000  0.50000000  0.00000000       0.031
   0.50000000  0.50000000  0.00000000       0.016
   0.00000000  0.00000000  0.25000000       0.031
   0.25000000  0.00000000  0.25000000       0.031
   0.50000000  0.00000000  0.25000000       0.031
  -0.25000000  0.00000000  0.25000000       0.031
   0.00000000  0.25000000  0.25000000       0.031
   0.25000000  0.25000000  0.25000000       0.031
   0.50000000  0.25000000  0.25000000       0.031
  -0.25000000  0.25000000  0.25000000       0.031
   0.00000000  0.50000000  0.25000000       0.031
   0.25000000  0.50000000  0.25000000       0.031
   0.50000000  0.50000000  0.25000000       0.031
  -0.25000000  0.50000000  0.25000000       0.031
   0.00000000 -0.25000000  0.25000000       0.031
   0.25000000 -0.25000000  0.25000000       0.031
   0.50000000 -0.25000000  0.25000000       0.031
  -0.25000000 -0.25000000  0.25000000       0.031
   0.00000000  0.00000000  0.50000000       0.016
   0.25000000  0.00000000  0.50000000       0.031
   0.50000000  0.00000000  0.50000000       0.016
   0.00000000  0.25000000  0.50000000       0.031
   0.25000000  0.25000000  0.50000000       0.031
   0.50000000  0.25000000  0.50000000       0.031
  -0.25000000  0.25000000  0.50000000       0.031
   0.00000000  0.50000000  0.50000000       0.016
   0.25000000  0.50000000  0.50000000       0.031
   0.50000000  0.50000000  0.50000000       0.016
 
 position of ions in fractional coordinates (direct lattice) 
   0.14034075  0.64164509  0.12956609
   0.38404952  0.88175669  0.12933690
   0.37287223  0.64267708  0.38024873
   0.13668904  0.89597862  0.38473008
   0.11979130  0.13322926  0.63961493
   0.38946779  0.39095937  0.64711118
   0.38275758  0.11340532  0.88826677
   0.13474650  0.39251060  0.90755139
   0.63672840  0.63334602  0.64818083
   0.90426564  0.89760887  0.64099323
   0.88688213  0.63939682  0.90781299
   0.63385803  0.89375914  0.89626686
   0.63848124  0.11407955  0.12429090
   0.89301780  0.38215571  0.12510205
   0.89748231  0.12040484  0.39784429
   0.63855023  0.39607665  0.39606466
   0.88403781  0.13339464  0.12566376
   0.35830422  0.88073821  0.37146431
   0.39289792  0.10975114  0.13489298
   0.11595143  0.10432071  0.40361572
   0.39134132  0.37994593  0.40008671
   0.10748111  0.39917900  0.12756542
   0.65584596  0.13557273  0.38263478
   0.12558825  0.87350750  0.15320722
   0.89458524  0.65288025  0.64930022
   0.37217181  0.37203602  0.88362042
   0.39457966  0.61572646  0.62023387
   0.10979828  0.62263106  0.90579189
   0.39707785  0.89697393  0.91809915
   0.12378013  0.90635877  0.61511079
   0.65747533  0.65901893  0.88139039
   0.14990241  0.36561716  0.64656819
   0.38182372  0.13861690  0.65192589
   0.86480323  0.87995163  0.87803254
   0.91154041  0.11904921  0.62799733
   0.61743299  0.12193801  0.91465646
   0.91609104  0.39835940  0.91244165
   0.61562709  0.38684800  0.62120288
   0.13685245  0.14403785  0.85665164
   0.65049591  0.87598552  0.66347394
   0.36513146  0.65055323  0.14234042
   0.88580672  0.35400205  0.35957215
   0.91591710  0.62813042  0.11288174
   0.63755835  0.61339700  0.39869453
   0.90689904  0.91305915  0.39235772
   0.62778506  0.93127870  0.11788563
   0.14372523  0.66752229  0.37505450
   0.67215074  0.36321579  0.13393911
 
 position of ions in cartesian coordinates  (Angst):
   1.07641543  4.92142644  0.99377365
   2.94566497  6.76308564  0.99201576
   2.85993500  4.92934182  2.91651286
   1.04840677  6.87216803  2.95088487
   0.91880088  1.02187021  4.90585509
   2.98722317  2.99866361  4.96335143
   2.93575577  0.86982033  6.81301804
   1.03350746  3.01056157  6.96093133
   4.88371537  4.85777247  4.97155566
   6.93572959  6.88467207  4.91642667
   6.80239783  4.90418218  6.96293781
   4.86169959  6.85514459  6.87437884
   4.89715967  0.87499168  0.95331287
   6.84945850  2.93113942  0.95953440
   6.88370135  0.92350674  3.05147104
   4.89768883  3.03791322  3.03782125
   6.78058186  1.02313868  0.96384272
   2.74819817  6.75527388  2.84913624
   3.01353232  0.84179272  1.03463097
   0.88934902  0.80014124  3.09573798
   3.00159317  2.91419038  3.06867043
   0.82438156  3.06170828  0.97842848
   5.03034731  1.03984466  2.93481389
   0.96326356  6.69981424  1.17510143
   6.86148079  5.00760027  4.98014139
   2.85456277  2.85352126  6.77738047
   3.02643128  4.72263021  4.75720210
   0.84215428  4.77558858  6.94743594
   3.04559243  6.87980207  7.04183279
   0.94939526  6.95178392  4.71790801
   5.04284460  5.05468403  6.76027611
   1.14975349  2.80428852  4.95918669
   2.92859305  1.06319348  5.00028032
   6.63305237  6.74924080  6.73452136
   6.99152717  0.91310904  4.81674794
   4.73571931  0.93526617  7.01542731
   7.02643056  3.05542194  6.99843969
   4.72186804  2.96712935  4.76463442
   1.04966013  1.10477224  6.57052957
   4.98931235  6.71882069  5.08885402
   2.80056319  4.98975200  1.09175293
   6.79414942  2.71520047  2.75792321
   7.02509644  4.81776874  0.86580446
   4.89008109  4.70476322  3.05799239
   6.95592780  7.00317592  3.00938897
   4.81511983  7.14292012  0.90418436
   1.10237444  5.11990492  2.87667304
   5.15540519  2.78586998  1.02731477
 


--------------------------------------------------------------------------------------------------------


 k-point  1 :   0.0000 0.0000 0.0000  plane waves:   11459
 k-point  2 :   0.2500 0.0000 0.0000  plane waves:   11404
 k-point  3 :   0.5000 0.0000 0.0000  plane waves:   11460
 k-point  4 :   0.0000 0.2500 0.0000  plane waves:   11404
 k-point  5 :   0.2500 0.2500 0.0000  plane waves:   11432
 k-point  6 :   0.5000 0.2500 0.0000  plane waves:   11450
 k-point  7 :  -0.2500 0.2500 0.0000  plane waves:   11432
 k-point  8 :   0.0000 0.5000 0.0000  plane waves:   11460
 k-point  9 :   0.2500 0.5000 0.0000  plane waves:   11450
 k-point 10 :   0.5000 0.5000 0.0000  plane waves:   11512
 k-point 11 :   0.0000 0.0000 0.2500  plane waves:   11404
 k-point 12 :   0.2500 0.0000 0.2500  plane waves:   11432
 k-point 13 :   0.5000 0.0000 0.2500  plane waves:   11450
 k-point 14 :  -0.2500 0.0000 0.2500  plane waves:   11432
 k-point 15 :   0.0000 0.2500 0.2500  plane waves:   11432
 k-point 16 :   0.2500 0.2500 0.2500  plane waves:   11452
 k-point 17 :   0.5000 0.2500 0.2500  plane waves:   11454
 k-point 18 :  -0.2500 0.2500 0.2500  plane waves:   11452
 k-point 19 :   0.0000 0.5000 0.2500  plane waves:   11450
 k-point 20 :   0.2500 0.5000 0.2500  plane waves:   11454
 k-point 21 :   0.5000 0.5000 0.2500  plane waves:   11432
 k-point 22 :  -0.2500 0.5000 0.2500  plane waves:   11454
 k-point 23 :   0.0000-0.2500 0.2500  plane waves:   11432
 k-point 24 :   0.2500-0.2500 0.2500  plane waves:   11452
 k-point 25 :   0.5000-0.2500 0.2500  plane waves:   11454
 k-point 26 :  -0.2500-0.2500 0.2500  plane waves:   11452
 k-point 27 :   0.0000 0.0000 0.5000  plane waves:   11460
 k-point 28 :   0.2500 0.0000 0.5000  plane waves:   11450
 k-point 29 :   0.5000 0.0000 0.5000  plane waves:   11512
 k-point 30 :   0.0000 0.2500 0.5000  plane waves:   11450
 k-point 31 :   0.2500 0.2500 0.5000  plane waves:   11454
 k-point 32 :   0.5000 0.2500 0.5000  plane waves:   11432
 k-point 33 :  -0.2500 0.2500 0.5000  plane waves:   11454
 k-point 34 :   0.0000 0.5000 0.5000  plane waves:   11512
 k-point 35 :   0.2500 0.5000 0.5000  plane waves:   11432
 k-point 36 :   0.5000 0.5000 0.5000  plane waves:   11536

 maximum and minimum number of plane-waves per node :     11536    11404

 maximum number of plane-waves:     11536
 maximum index in each direction: 
   IXMAX=   14   IYMAX=   14   IZMAX=   13
   IXMIN=  -14   IYMIN=  -14   IZMIN=  -14

 The following grids will avoid any aliasing or wrap around errors in the Hartre
 e energy
  - symmetry arguments have not been applied
  - exchange correlation energies might require even more grid points
  - we recommend to set PREC=Normal or Accurate and rely on VASP defaults
 WARNING: aliasing errors must be expected set NGX to    60 to avoid them
 WARNING: aliasing errors must be expected set NGY to    60 to avoid them
 NGZ is ok and might be reduce to    56

 serial   3D FFT for wavefunctions
 parallel 3D FFT for charge:
    minimum data exchange during FFTs selected (reduces bandwidth)


 total amount of memory used by VASP MPI-rank0   165787. kBytes
=======================================================================

   base      :      30000. kBytes
   nonlr-proj:      21848. kBytes
   fftplans  :       3726. kBytes
   grid      :      12054. kBytes
   one-center:        746. kBytes
   wavefun   :      97413. kBytes
 
     INWAV:  cpu time    0.0000: real time    0.0000
 Broyden mixing: mesh for mixing (old mesh)
   NGX = 27   NGY = 27   NGZ = 27
  (NGX  =112   NGY  =112   NGZ  =112)
  gives a total of  19683 points

 initial charge density was supplied:
 charge density of overlapping atoms calculated
 number of electron     352.0000000 magnetization 
 keeping initial charge density in first step


--------------------------------------------------------------------------------------------------------


 Maximum index for non-local projection operator         5084
 Maximum index for augmentation-charges          883 (set IRDMAX)


--------------------------------------------------------------------------------------------------------


 First call to EWALD:  gamma=   0.231
 Maximum number of real-space cells 3x 3x 3
 Maximum number of reciprocal cells 3x 3x 3

    FEWALD:  cpu time    0.0026: real time    0.0026


--------------------------------------- Iteration      1(   1)  ---------------------------------------


    POTLOK:  cpu time    0.0649: real time    0.0746
    SETDIJ:  cpu time    0.0067: real time    0.0068
     EDDAV:  cpu time   28.5420: real time   28.6250
    --------------------------------------------
      LOOP:  cpu time   28.6156: real time   28.7084

 eigenvalue-minimisations  : 16128
 total energy-change (2. order) : 0.4759292E+04  (-0.1559491E+05)
 number of electron     352.0000000 magnetization 
 augmentation part      352.0000000 magnetization 

 Free energy of the ion-electron system (eV)
  ---------------------------------------------------
  alpha Z        PSCENC =      1214.69000140
  Ewald energy   TEWEN  =    -20740.73272560
  -Hartree energ DENC   =    -11503.64280903
  -exchange      EXHF   =         0.00000000
  -V(xc)+E(xc)   XCENC  =      1423.70169518
  PAW double counting   =     26475.20327555   -27591.76617206
  entropy T*S    EENTRO =        -0.00504443
  eigenvalues    EBANDS =      4468.17147748
  atomic energy  EATOM  =     31013.67235384
  Solvation  Ediel_sol  =         0.00000000
  ---------------------------------------------------
  free energy    TOTEN  =      4759.29205232 eV

  energy without entropy =     4759.29709675  energy(sigma->0) =     4759.29457454


--------------------------------------------------------------------------------------------------------




--------------------------------------- Iteration      1(   2)  ---------------------------------------


     EDDAV:  cpu time   27.9695: real time   28.0361
    --------------------------------------------
      LOOP:  cpu time   27.9694: real time   28.0359

 eigenvalue-minimisations  : 16768
 total energy-change (2. order) :-0.4160706E+04  (-0.3779246E+04)
 number of electron     352.0000000 magnetization 
 augmentation part      352.0000000 magnetization 

 Free energy of the ion-electron system (eV)
  ---------------------------------------------------
  alpha Z        PSCENC =      1214.69000140
  Ewald energy   TEWEN  =    -20740.73272560
  -Hartree energ DENC   =    -11503.64280903
  -exchange      EXHF   =         0.00000000
  -V(xc)+E(xc)   XCENC  =      1423.70169518
  PAW double counting   =     26475.20327555   -27591.76617206
  entropy T*S    EENTRO =        -0.02373682
  eigenvalues    EBANDS =       307.48436047
  atomic energy  EATOM  =     31013.67235384
  Solvation  Ediel_sol  =         0.00000000
  ---------------------------------------------------
  free energy    TOTEN  =       598.58624292 eV

  energy without entropy =      598.60997974  energy(sigma->0) =      598.59811133


--------------------------------------------------------------------------------------------------------




--------------------------------------- Iteration      1(   3)  ---------------------------------------


     EDDAV:  cpu time   27.5198: real time   27.5852
    --------------------------------------------
      LOOP:  cpu time   27.5190: real time   27.5844

 eigenvalue-minimisations  : 17136
 total energy-change (2. order) :-0.9187591E+03  (-0.8122509E+03)
 number of electron     352.0000000 magnetization 
 augmentation part      352.0000000 magnetization 

 Free energy of the ion-electron system (eV)
  ---------------------------------------------------
  alpha Z        PSCENC =      1214.69000140
  Ewald energy   TEWEN  =    -20740.73272560
  -Hartree energ DENC   =    -11503.64280903
  -exchange      EXHF   =         0.00000000
  -V(xc)+E(xc)   XCENC  =      1423.70169518
  PAW double counting   =     26475.20327555   -27591.76617206
  entropy T*S    EENTRO =        -0.00000000
  eigenvalues    EBANDS =      -611.29849514
  atomic energy  EATOM  =     31013.67235384
  Solvation  Ediel_sol  =         0.00000000
  ---------------------------------------------------
  free energy    TOTEN  =      -320.17287587 eV

  energy without entropy =     -320.17287587  energy(sigma->0) =     -320.17287587


--------------------------------------------------------------------------------------------------------




--------------------------------------- Iteration      1(   4)  ---------------------------------------


     EDDAV:  cpu time   28.6660: real time   28.7341
    --------------------------------------------
      LOOP:  cpu time   28.6660: real time   28.7340

 eigenvalue-minimisations  : 17280
 total energy-change (2. order) :-0.8070178E+02  (-0.7934494E+02)
 number of electron     352.0000000 magnetization 
 augmentation part      352.0000000 magnetization 

 Free energy of the ion-electron system (eV)
  ---------------------------------------------------
  alpha Z        PSCENC =      1214.69000140
  Ewald energy   TEWEN  =    -20740.73272560
  -Hartree energ DENC   =    -11503.64280903
  -exchange      EXHF   =         0.00000000
  -V(xc)+E(xc)   XCENC  =      1423.70169518
  PAW double counting   =     26475.20327555   -27591.76617206
  entropy T*S    EENTRO =        -0.00000000
  eigenvalues    EBANDS =      -692.00027221
  atomic energy  EATOM  =     31013.67235384
  Solvation  Ediel_sol  =         0.00000000
  ---------------------------------------------------
  free energy    TOTEN  =      -400.87465294 eV

  energy without entropy =     -400.87465294  energy(sigma->0) =     -400.87465294


--------------------------------------------------------------------------------------------------------




--------------------------------------- Iteration      1(   5)  ---------------------------------------


     EDDAV:  cpu time   30.3926: real time   30.4646
    CHARGE:  cpu time    0.9109: real time    0.9131
    MIXING:  cpu time    0.0036: real time    0.0089
    --------------------------------------------
      LOOP:  cpu time   31.3062: real time   31.3857

 eigenvalue-minimisations  : 17392
 total energy-change (2. order) :-0.2013657E+01  (-0.2006144E+01)
 number of electron     352.0000015 magnetization 
 augmentation part      101.6688240 magnetization 

 Broyden mixing:
  rms(total) = 0.13459E+02    rms(broyden)= 0.13449E+02
  rms(prec ) = 0.16539E+02
  weight for this iteration     100.00

 Free energy of the ion-electron system (eV)
  ---------------------------------------------------
  alpha Z        PSCENC =      1214.69000140
  Ewald energy   TEWEN  =    -20740.73272560
  -Hartree energ DENC   =    -11503.64280903
  -exchange      EXHF   =         0.00000000
  -V(xc)+E(xc)   XCENC  =      1423.70169518
  PAW double counting   =     26475.20327555   -27591.76617206
  entropy T*S    EENTRO =        -0.00000000
  eigenvalues    EBANDS =      -694.01392923
  atomic energy  EATOM  =     31013.67235384
  Solvation  Ediel_sol  =         0.00000000
  ---------------------------------------------------
  free energy    TOTEN  =      -402.88830996 eV

  energy without entropy =     -402.88830996  energy(sigma->0) =     -402.88830996


--------------------------------------------------------------------------------------------------------




--------------------------------------- Iteration      1(   6)  ---------------------------------------


    POTLOK:  cpu time    0.0448: real time    0.0449
    SETDIJ:  cpu time    0.0062: real time    0.0062
     EDDAV:  cpu time   37.9267: real time   38.0165
    CHARGE:  cpu time    0.9294: real time    0.9316
    MIXING:  cpu time    0.0017: real time    0.0017
    --------------------------------------------
      LOOP:  cpu time   38.9088: real time   39.0009

 eigenvalue-minimisations  : 25136
 total energy-change (2. order) :-0.5624748E+02  (-0.8517600E+02)
 number of electron     351.9999952 magnetization 
 augmentation part      136.9982387 magnetization 

 Broyden mixing:
  rms(total) = 0.19459E+02    rms(broyden)= 0.19455E+02
  rms(prec ) = 0.22640E+02
  weight for this iteration     100.00

 eigenvalues of (default mixing * dielectric matrix)
  average eigenvalue GAMMA=   0.2311
  0.2311

 Free energy of the ion-electron system (eV)
  ---------------------------------------------------
  alpha Z        PSCENC =      1214.69000140
  Ewald energy   TEWEN  =    -20740.73272560
  -Hartree energ DENC   =    -10924.24474072
  -exchange      EXHF   =         0.00000000
  -V(xc)+E(xc)   XCENC  =      1421.80376227
  PAW double counting   =     30652.78540855   -31601.06913023
  entropy T*S    EENTRO =        -0.04128827
  eigenvalues    EBANDS =     -1495.99943033
  atomic energy  EATOM  =     31013.67235384
  Solvation  Ediel_sol  =         0.00000000
  ---------------------------------------------------
  free energy    TOTEN  =      -459.13578909 eV

  energy without entropy =     -459.09450082  energy(sigma->0) =     -459.11514496


--------------------------------------------------------------------------------------------------------




--------------------------------------- Iteration      1(   7)  ---------------------------------------


    POTLOK:  cpu time    0.0426: real time    0.0427
    SETDIJ:  cpu time    0.0066: real time    0.0066
     EDDAV:  cpu time   34.9340: real time   35.0168
    CHARGE:  cpu time    0.9049: real time    0.9070
    MIXING:  cpu time    0.0016: real time    0.0016
    --------------------------------------------
      LOOP:  cpu time   35.8896: real time   35.9747

 eigenvalue-minimisations  : 22784
 total energy-change (2. order) : 0.1658304E+03  (-0.2454249E+02)
 number of electron     351.9999973 magnetization 
 augmentation part      119.9717179 magnetization 

 Broyden mixing:
  rms(total) = 0.49001E+01    rms(broyden)= 0.48966E+01
  rms(prec ) = 0.63369E+01
  weight for this iteration     100.00

 eigenvalues of (default mixing * dielectric matrix)
  average eigenvalue GAMMA=   0.6746
  0.8989  0.4503

 Free energy of the ion-electron system (eV)
  ---------------------------------------------------
  alpha Z        PSCENC =      1214.69000140
  Ewald energy   TEWEN  =    -20740.73272560
  -Hartree energ DENC   =    -11215.73955896
  -exchange      EXHF   =         0.00000000
  -V(xc)+E(xc)   XCENC  =      1426.22975547
  PAW double counting   =     32372.71295472   -33467.51437790
  entropy T*S    EENTRO =        -0.00029051
  eigenvalues    EBANDS =      -896.62349940
  atomic energy  EATOM  =     31013.67235384
  Solvation  Ediel_sol  =         0.00000000
  ---------------------------------------------------
  free energy    TOTEN  =      -293.30538695 eV

  energy without entropy =     -293.30509643  energy(sigma->0) =     -293.30524169


--------------------------------------------------------------------------------------------------------




--------------------------------------- Iteration      1(   8)  ---------------------------------------


    POTLOK:  cpu time    0.0429: real time    0.0430
    SETDIJ:  cpu time    0.0065: real time    0.0066
     EDDAV:  cpu time   44.4282: real time   44.5368
    CHARGE:  cpu time    0.9100: real time    0.9121
    MIXING:  cpu time    0.0019: real time    0.0019
    --------------------------------------------
      LOOP:  cpu time   45.3895: real time   45.5004

 eigenvalue-minimisations  : 27744
 total energy-change (2. order) :-0.8465539E+01  (-0.9714211E+01)
 number of electron     351.9999989 magnetization 
 augmentation part      115.9214854 magnetization 

 Broyden mixing:
  rms(total) = 0.56591E+01    rms(broyden)= 0.56569E+01
  rms(prec ) = 0.76871E+01
  weight for this iteration     100.00

 eigenvalues of (default mixing * dielectric matrix)
  average eigenvalue GAMMA=   0.6686
  1.2120  0.4420  0.3519

 Free energy of the ion-electron system (eV)
  ---------------------------------------------------
  alpha Z        PSCENC =      1214.69000140
  Ewald energy   TEWEN  =    -20740.73272560
  -Hartree energ DENC   =    -11198.88717911
  -exchange      EXHF   =         0.00000000
  -V(xc)+E(xc)   XCENC  =      1422.46108885
  PAW double counting   =     34422.43512500   -35588.96501620
  entropy T*S    EENTRO =        -0.00387860
  eigenvalues    EBANDS =      -846.44069574
  atomic energy  EATOM  =     31013.67235384
  Solvation  Ediel_sol  =         0.00000000
  ---------------------------------------------------
  free energy    TOTEN  =      -301.77092617 eV

  energy without entropy =     -301.76704757  energy(sigma->0) =     -301.76898687


--------------------------------------------------------------------------------------------------------




--------------------------------------- Iteration      1(   9)  ---------------------------------------


    POTLOK:  cpu time    0.0432: real time    0.0433
    SETDIJ:  cpu time    0.0072: real time    0.0072
     EDDAV:  cpu time   32.6578: real time   32.7386
    CHARGE:  cpu time    0.9277: real time    0.9299
    MIXING:  cpu time    0.0018: real time    0.0019
    --------------------------------------------
      LOOP:  cpu time   33.6377: real time   33.7208

 eigenvalue-minimisations  : 21312
 total energy-change (2. order) : 0.9977390E+01  (-0.5090774E+01)
 number of electron     351.9999984 magnetization 
 augmentation part      112.5247236 magnetization 

 Broyden mixing:
  rms(total) = 0.48727E+01    rms(broyden)= 0.48705E+01
  rms(prec ) = 0.71403E+01
  weight for this iteration     100.00

 eigenvalues of (default mixing * dielectric matrix)
  average eigenvalue GAMMA=   0.6259
  1.4339  0.3957  0.3957  0.2785

 Free energy of the ion-electron system (eV)
  ---------------------------------------------------
  alpha Z        PSCENC =      1214.69000140
  Ewald energy   TEWEN  =    -20740.73272560
  -Hartree energ DENC   =    -11182.71508669
  -exchange      EXHF   =         0.00000000
  -V(xc)+E(xc)   XCENC  =      1419.97698415
  PAW double counting   =     36130.48573544   -37316.06514611
  entropy T*S    EENTRO =        -0.04412611
  eigenvalues    EBANDS =      -831.06152678
  atomic energy  EATOM  =     31013.67235384
  Solvation  Ediel_sol  =         0.00000000
  ---------------------------------------------------
  free energy    TOTEN  =      -291.79353647 eV

  energy without entropy =     -291.74941036  energy(sigma->0) =     -291.77147341


--------------------------------------------------------------------------------------------------------




--------------------------------------- Iteration      1(  10)  ---------------------------------------


    POTLOK:  cpu time    0.0427: real time    0.0428
    SETDIJ:  cpu time    0.0063: real time    0.0063
     EDDAV:  cpu time   33.2244: real time   33.3033
    CHARGE:  cpu time    0.9005: real time    0.9027
    MIXING:  cpu time    0.0018: real time    0.0018
    --------------------------------------------
      LOOP:  cpu time   34.1757: real time   34.2569

 eigenvalue-minimisations  : 20864
 total energy-change (2. order) : 0.6121628E+01  (-0.3281968E+01)
 number of electron     351.9999984 magnetization 
 augmentation part      113.5491135 magnetization 

 Broyden mixing:
  rms(total) = 0.24127E+01    rms(broyden)= 0.24103E+01
  rms(prec ) = 0.34325E+01
  weight for this iteration     100.00

 eigenvalues of (default mixing * dielectric matrix)
  average eigenvalue GAMMA=   0.6617
  1.7341  0.5286  0.5286  0.3455  0.1717

 Free energy of the ion-electron system (eV)
  ---------------------------------------------------
  alpha Z        PSCENC =      1214.69000140
  Ewald energy   TEWEN  =    -20740.73272560
  -Hartree energ DENC   =    -11159.20062770
  -exchange      EXHF   =         0.00000000
  -V(xc)+E(xc)   XCENC  =      1419.57412090
  PAW double counting   =     36775.49202061   -37963.35658936
  entropy T*S    EENTRO =        -0.00679654
  eigenvalues    EBANDS =      -845.80366574
  atomic energy  EATOM  =     31013.67235384
  Solvation  Ediel_sol  =         0.00000000
  ---------------------------------------------------
  free energy    TOTEN  =      -285.67190819 eV

  energy without entropy =     -285.66511165  energy(sigma->0) =     -285.66850992


--------------------------------------------------------------------------------------------------------




--------------------------------------- Iteration      1(  11)  ---------------------------------------


    POTLOK:  cpu time    0.0392: real time    0.0393
    SETDIJ:  cpu time    0.0065: real time    0.0065
     EDDAV:  cpu time   37.3645: real time   37.4531
    CHARGE:  cpu time    0.8869: real time    0.8890
    MIXING:  cpu time    0.0019: real time    0.0019
    --------------------------------------------
      LOOP:  cpu time   38.2990: real time   38.3898

 eigenvalue-minimisations  : 24544
 total energy-change (2. order) : 0.3345681E+01  (-0.8944496E+00)
 number of electron     351.9999989 magnetization 
 augmentation part      114.9144521 magnetization 

 Broyden mixing:
  rms(total) = 0.12329E+01    rms(broyden)= 0.12318E+01
  rms(prec ) = 0.17800E+01
  weight for this iteration     100.00

 eigenvalues of (default mixing * dielectric matrix)
  average eigenvalue GAMMA=   0.6650
  1.9346  0.6037  0.6037  0.3742  0.2951  0.1786

 Free energy of the ion-electron system (eV)
  ---------------------------------------------------
  alpha Z        PSCENC =      1214.69000140
  Ewald energy   TEWEN  =    -20740.73272560
  -Hartree energ DENC   =    -11147.12146626
  -exchange      EXHF   =         0.00000000
  -V(xc)+E(xc)   XCENC  =      1419.88683526
  PAW double counting   =     37639.98790583   -38832.64083445
  entropy T*S    EENTRO =        -0.00009866
  eigenvalues    EBANDS =      -850.06819843
  atomic energy  EATOM  =     31013.67235384
  Solvation  Ediel_sol  =         0.00000000
  ---------------------------------------------------
  free energy    TOTEN  =      -282.32622707 eV

  energy without entropy =     -282.32612841  energy(sigma->0) =     -282.32617774


--------------------------------------------------------------------------------------------------------




--------------------------------------- Iteration      1(  12)  ---------------------------------------


    POTLOK:  cpu time    0.0441: real time    0.0442
    SETDIJ:  cpu time    0.0067: real time    0.0067
     EDDAV:  cpu time   38.3469: real time   38.4379
    CHARGE:  cpu time    0.8735: real time    0.8756
    MIXING:  cpu time    0.0020: real time    0.0020
    --------------------------------------------
      LOOP:  cpu time   39.2733: real time   39.3664

 eigenvalue-minimisations  : 24736
 total energy-change (2. order) : 0.6839010E+00  (-0.4776301E+00)
 number of electron     351.9999984 magnetization 
 augmentation part      115.5400850 magnetization 

 Broyden mixing:
  rms(total) = 0.74844E+00    rms(broyden)= 0.74768E+00
  rms(prec ) = 0.10422E+01
  weight for this iteration     100.00

 eigenvalues of (default mixing * dielectric matrix)
  average eigenvalue GAMMA=   0.6306
  1.9781  0.5999  0.5999  0.4298  0.3592  0.2735  0.1739

 Free energy of the ion-electron system (eV)
  ---------------------------------------------------
  alpha Z        PSCENC =      1214.69000140
  Ewald energy   TEWEN  =    -20740.73272560
  -Hartree energ DENC   =    -11148.81230100
  -exchange      EXHF   =         0.00000000
  -V(xc)+E(xc)   XCENC  =      1420.52654396
  PAW double counting   =     38210.44784363   -39406.52904950
  entropy T*S    EENTRO =        -0.00000000
  eigenvalues    EBANDS =      -844.90499278
  atomic energy  EATOM  =     31013.67235384
  Solvation  Ediel_sol  =         0.00000000
  ---------------------------------------------------
  free energy    TOTEN  =      -281.64232605 eV

  energy without entropy =     -281.64232605  energy(sigma->0) =     -281.64232605


--------------------------------------------------------------------------------------------------------




--------------------------------------- Iteration      1(  13)  ---------------------------------------


    POTLOK:  cpu time    0.0417: real time    0.0418
    SETDIJ:  cpu time    0.0064: real time    0.0064
     EDDAV:  cpu time   37.0015: real time   37.0892
    CHARGE:  cpu time    0.8722: real time    0.8742
    MIXING:  cpu time    0.0022: real time    0.0022
    --------------------------------------------
      LOOP:  cpu time   37.9239: real time   38.0138

 eigenvalue-minimisations  : 23616
 total energy-change (2. order) : 0.1729789E+00  (-0.1553903E+00)
 number of electron     351.9999984 magnetization 
 augmentation part      115.5177526 magnetization 

 Broyden mixing:
  rms(total) = 0.44017E+00    rms(broyden)= 0.43993E+00
  rms(prec ) = 0.57100E+00
  weight for this iteration     100.00

 eigenvalues of (default mixing * dielectric matrix)
  average eigenvalue GAMMA=   0.6436
  2.1167  0.5853  0.5853  0.5538  0.5538  0.3295  0.1769  0.2477

 Free energy of the ion-electron system (eV)
  ---------------------------------------------------
  alpha Z        PSCENC =      1214.69000140
  Ewald energy   TEWEN  =    -20740.73272560
  -Hartree energ DENC   =    -11153.67075122
  -exchange      EXHF   =         0.00000000
  -V(xc)+E(xc)   XCENC  =      1420.87460507
  PAW double counting   =     38489.10613099   -39687.71706646
  entropy T*S    EENTRO =        -0.00000000
  eigenvalues    EBANDS =      -837.69189515
  atomic energy  EATOM  =     31013.67235384
  Solvation  Ediel_sol  =         0.00000000
  ---------------------------------------------------
  free energy    TOTEN  =      -281.46934713 eV

  energy without entropy =     -281.46934713  energy(sigma->0) =     -281.46934713


--------------------------------------------------------------------------------------------------------




--------------------------------------- Iteration      1(  14)  ---------------------------------------


    POTLOK:  cpu time    0.0420: real time    0.0421
    SETDIJ:  cpu time    0.0064: real time    0.0064
     EDDAV:  cpu time   33.1492: real time   33.2279
    CHARGE:  cpu time    0.8659: real time    0.8679
    MIXING:  cpu time    0.0021: real time    0.0021
    --------------------------------------------
      LOOP:  cpu time   34.0655: real time   34.1464

 eigenvalue-minimisations  : 21840
 total energy-change (2. order) : 0.1785133E-01  (-0.3981825E-01)
 number of electron     351.9999984 magnetization 
 augmentation part      115.4784511 magnetization 

 Broyden mixing:
  rms(total) = 0.37594E+00    rms(broyden)= 0.37588E+00
  rms(prec ) = 0.47744E+00
  weight for this iteration     100.00

 eigenvalues of (default mixing * dielectric matrix)
  average eigenvalue GAMMA=   0.6656
  2.2714  0.7328  0.7328  0.6034  0.6034  0.3382  0.1753  0.2821  0.2509

 Free energy of the ion-electron system (eV)
  ---------------------------------------------------
  alpha Z        PSCENC =      1214.69000140
  Ewald energy   TEWEN  =    -20740.73272560
  -Hartree energ DENC   =    -11155.40847910
  -exchange      EXHF   =         0.00000000
  -V(xc)+E(xc)   XCENC  =      1420.91536627
  PAW double counting   =     38713.13170619   -39913.86407724
  entropy T*S    EENTRO =        -0.00000000
  eigenvalues    EBANDS =      -833.85564156
  atomic energy  EATOM  =     31013.67235384
  Solvation  Ediel_sol  =         0.00000000
  ---------------------------------------------------
  free energy    TOTEN  =      -281.45149580 eV

  energy without entropy =     -281.45149579  energy(sigma->0) =     -281.45149580


--------------------------------------------------------------------------------------------------------




--------------------------------------- Iteration      1(  15)  ---------------------------------------


    POTLOK:  cpu time    0.0421: real time    0.0422
    SETDIJ:  cpu time    0.0063: real time    0.0063
     EDDAV:  cpu time   29.8894: real time   29.9602
    CHARGE:  cpu time    0.8367: real time    0.8387
    MIXING:  cpu time    0.0024: real time    0.0024
    --------------------------------------------
      LOOP:  cpu time   30.7769: real time   30.8498

 eigenvalue-minimisations  : 19024
 total energy-change (2. order) : 0.2139644E-01  (-0.1230962E-01)
 number of electron     351.9999984 magnetization 
 augmentation part      115.4719498 magnetization 

 Broyden mixing:
  rms(total) = 0.26865E+00    rms(broyden)= 0.26862E+00
  rms(prec ) = 0.35624E+00
  weight for this iteration     100.00

 eigenvalues of (default mixing * dielectric matrix)
  average eigenvalue GAMMA=   0.7156
  2.4919  0.9917  0.9917  0.5987  0.5987  0.4198  0.3574  0.1760  0.2899  0.2398

 Free energy of the ion-electron system (eV)
  ---------------------------------------------------
  alpha Z        PSCENC =      1214.69000140
  Ewald energy   TEWEN  =    -20740.73272560
  -Hartree energ DENC   =    -11155.24292357
  -exchange      EXHF   =         0.00000000
  -V(xc)+E(xc)   XCENC  =      1420.82513257
  PAW double counting   =     38905.25207841   -40107.33193357
  entropy T*S    EENTRO =        -0.00000000
  eigenvalues    EBANDS =      -832.56208283
  atomic energy  EATOM  =     31013.67235384
  Solvation  Ediel_sol  =         0.00000000
  ---------------------------------------------------
  free energy    TOTEN  =      -281.43009935 eV

  energy without entropy =     -281.43009935  energy(sigma->0) =     -281.43009935


--------------------------------------------------------------------------------------------------------




--------------------------------------- Iteration      1(  16)  ---------------------------------------


    POTLOK:  cpu time    0.0413: real time    0.0414
    SETDIJ:  cpu time    0.0064: real time    0.0064
     EDDAV:  cpu time   34.6740: real time   34.7562
    CHARGE:  cpu time    0.8909: real time    0.8930
    MIXING:  cpu time    0.0029: real time    0.0103
    --------------------------------------------
      LOOP:  cpu time   35.6155: real time   35.7073

 eigenvalue-minimisations  : 22112
 total energy-change (2. order) : 0.1868173E-01  (-0.4427109E-02)
 number of electron     351.9999984 magnetization 
 augmentation part      115.4416257 magnetization 

 Broyden mixing:
  rms(total) = 0.19854E+00    rms(broyden)= 0.19851E+00
  rms(prec ) = 0.26848E+00
  weight for this iteration     100.00

 eigenvalues of (default mixing * dielectric matrix)
  average eigenvalue GAMMA=   0.7558
  2.5897  1.3956  1.1642  0.6016  0.6016  0.4676  0.4676  0.3389  0.1758  0.2700
  0.2407

 Free energy of the ion-electron system (eV)
  ---------------------------------------------------
  alpha Z        PSCENC =      1214.69000140
  Ewald energy   TEWEN  =    -20740.73272560
  -Hartree energ DENC   =    -11155.97327989
  -exchange      EXHF   =         0.00000000
  -V(xc)+E(xc)   XCENC  =      1420.72606646
  PAW double counting   =     39100.29730205   -40303.45063025
  entropy T*S    EENTRO =        -0.00000000
  eigenvalues    EBANDS =      -830.64050563
  atomic energy  EATOM  =     31013.67235384
  Solvation  Ediel_sol  =         0.00000000
  ---------------------------------------------------
  free energy    TOTEN  =      -281.41141763 eV

  energy without entropy =     -281.41141763  energy(sigma->0) =     -281.41141763


--------------------------------------------------------------------------------------------------------




--------------------------------------- Iteration      1(  17)  ---------------------------------------


    POTLOK:  cpu time    0.0461: real time    0.0462
    SETDIJ:  cpu time    0.0064: real time    0.0064
     EDDAV:  cpu time   38.3315: real time   38.4224
    CHARGE:  cpu time    0.8813: real time    0.8834
    MIXING:  cpu time    0.0024: real time    0.0024
    --------------------------------------------
      LOOP:  cpu time   39.2677: real time   39.3608

 eigenvalue-minimisations  : 23568
 total energy-change (2. order) : 0.9560961E-02  (-0.4233726E-02)
 number of electron     351.9999985 magnetization 
 augmentation part      115.4251658 magnetization 

 Broyden mixing:
  rms(total) = 0.14078E+00    rms(broyden)= 0.14073E+00
  rms(prec ) = 0.19815E+00
  weight for this iteration     100.00

 eigenvalues of (default mixing * dielectric matrix)
  average eigenvalue GAMMA=   0.7593
  2.4454  2.0348  1.0268  0.6227  0.6227  0.5157  0.5157  0.1759  0.3439  0.3007
  0.2693  0.2384

 Free energy of the ion-electron system (eV)
  ---------------------------------------------------
  alpha Z        PSCENC =      1214.69000140
  Ewald energy   TEWEN  =    -20740.73272560
  -Hartree energ DENC   =    -11157.40269251
  -exchange      EXHF   =         0.00000000
  -V(xc)+E(xc)   XCENC  =      1420.70218915
  PAW double counting   =     39137.86483407   -40340.64772492
  entropy T*S    EENTRO =        -0.00000000
  eigenvalues    EBANDS =      -829.54809209
  atomic energy  EATOM  =     31013.67235384
  Solvation  Ediel_sol  =         0.00000000
  ---------------------------------------------------
  free energy    TOTEN  =      -281.40185667 eV

  energy without entropy =     -281.40185667  energy(sigma->0) =     -281.40185667


--------------------------------------------------------------------------------------------------------




--------------------------------------- Iteration      1(  18)  ---------------------------------------


    POTLOK:  cpu time    0.0434: real time    0.0435
    SETDIJ:  cpu time    0.0066: real time    0.0067
     EDDAV:  cpu time   36.2213: real time   36.3070
    CHARGE:  cpu time    0.8937: real time    0.8958
    MIXING:  cpu time    0.0028: real time    0.0028
    --------------------------------------------
      LOOP:  cpu time   37.1678: real time   37.2558

 eigenvalue-minimisations  : 24016
 total energy-change (2. order) : 0.8791184E-02  (-0.2115311E-02)
 number of electron     351.9999985 magnetization 
 augmentation part      115.4243173 magnetization 

 Broyden mixing:
  rms(total) = 0.90706E-01    rms(broyden)= 0.90666E-01
  rms(prec ) = 0.11688E+00
  weight for this iteration     100.00

 eigenvalues of (default mixing * dielectric matrix)
  average eigenvalue GAMMA=   0.7557
  2.3839  2.3839  0.9896  0.6633  0.6633  0.5402  0.5402  0.3774  0.1758  0.3354
  0.2885  0.2411  0.2411

 Free energy of the ion-electron system (eV)
  ---------------------------------------------------
  alpha Z        PSCENC =      1214.69000140
  Ewald energy   TEWEN  =    -20740.73272560
  -Hartree energ DENC   =    -11158.73355058
  -exchange      EXHF   =         0.00000000
  -V(xc)+E(xc)   XCENC  =      1420.74251133
  PAW double counting   =     39117.86263135   -40320.14654102
  entropy T*S    EENTRO =        -0.00000000
  eigenvalues    EBANDS =      -828.74774619
  atomic energy  EATOM  =     31013.67235384
  Solvation  Ediel_sol  =         0.00000000
  ---------------------------------------------------
  free energy    TOTEN  =      -281.39306548 eV

  energy without entropy =     -281.39306548  energy(sigma->0) =     -281.39306548


--------------------------------------------------------------------------------------------------------




--------------------------------------- Iteration      1(  19)  ---------------------------------------


    POTLOK:  cpu time    0.0428: real time    0.0429
    SETDIJ:  cpu time    0.0067: real time    0.0068
     EDDAV:  cpu time   36.1467: real time   36.2323
    CHARGE:  cpu time    0.9011: real time    0.9033
    MIXING:  cpu time    0.0026: real time    0.0026
    --------------------------------------------
      LOOP:  cpu time   37.0999: real time   37.1878

 eigenvalue-minimisations  : 23616
 total energy-change (2. order) : 0.2110534E-02  (-0.5452704E-03)
 number of electron     351.9999985 magnetization 
 augmentation part      115.4224627 magnetization 

 Broyden mixing:
  rms(total) = 0.61427E-01    rms(broyden)= 0.61420E-01
  rms(prec ) = 0.78833E-01
  weight for this iteration     100.00

 eigenvalues of (default mixing * dielectric matrix)
  average eigenvalue GAMMA=   0.7839
  2.5786  2.5786  0.8438  0.8438  0.8451  0.5774  0.5774  0.4187  0.4187  0.3439
  0.1758  0.2797  0.2382  0.2552

 Free energy of the ion-electron system (eV)
  ---------------------------------------------------
  alpha Z        PSCENC =      1214.69000140
  Ewald energy   TEWEN  =    -20740.73272560
  -Hartree energ DENC   =    -11159.61656385
  -exchange      EXHF   =         0.00000000
  -V(xc)+E(xc)   XCENC  =      1420.78528908
  PAW double counting   =     39101.25481825   -40303.24801917
  entropy T*S    EENTRO =        -0.00000000
  eigenvalues    EBANDS =      -828.19610889
  atomic energy  EATOM  =     31013.67235384
  Solvation  Ediel_sol  =         0.00000000
  ---------------------------------------------------
  free energy    TOTEN  =      -281.39095495 eV

  energy without entropy =     -281.39095495  energy(sigma->0) =     -281.39095495


--------------------------------------------------------------------------------------------------------




--------------------------------------- Iteration      1(  20)  ---------------------------------------


    POTLOK:  cpu time    0.0393: real time    0.0394
    SETDIJ:  cpu time    0.0063: real time    0.0064
     EDDAV:  cpu time   39.1963: real time   39.2891
    CHARGE:  cpu time    0.9056: real time    0.9077
    MIXING:  cpu time    0.0028: real time    0.0029
    --------------------------------------------
      LOOP:  cpu time   40.1504: real time   40.2454

 eigenvalue-minimisations  : 24352
 total energy-change (2. order) : 0.8217350E-03  (-0.2348825E-03)
 number of electron     351.9999985 magnetization 
 augmentation part      115.4265470 magnetization 

 Broyden mixing:
  rms(total) = 0.46789E-01    rms(broyden)= 0.46782E-01
  rms(prec ) = 0.60165E-01
  weight for this iteration     100.00

 eigenvalues of (default mixing * dielectric matrix)
  average eigenvalue GAMMA=   0.8467
  3.2969  2.5925  1.1959  1.1959  0.6102  0.6102  0.6159  0.5327  0.4754  0.3448
  0.1758  0.2997  0.2764  0.2393  0.2393

 Free energy of the ion-electron system (eV)
  ---------------------------------------------------
  alpha Z        PSCENC =      1214.69000140
  Ewald energy   TEWEN  =    -20740.73272560
  -Hartree energ DENC   =    -11160.47787411
  -exchange      EXHF   =         0.00000000
  -V(xc)+E(xc)   XCENC  =      1420.83858461
  PAW double counting   =     39094.31896538   -40296.15018615
  entropy T*S    EENTRO =        -0.00000000
  eigenvalues    EBANDS =      -827.54925258
  atomic energy  EATOM  =     31013.67235384
  Solvation  Ediel_sol  =         0.00000000
  ---------------------------------------------------
  free energy    TOTEN  =      -281.39013322 eV

  energy without entropy =     -281.39013321  energy(sigma->0) =     -281.39013321


--------------------------------------------------------------------------------------------------------




--------------------------------------- Iteration      1(  21)  ---------------------------------------


    POTLOK:  cpu time    0.0528: real time    0.0529
    SETDIJ:  cpu time    0.0099: real time    0.0099
     EDDAV:  cpu time   36.2676: real time   36.3535
    CHARGE:  cpu time    0.8964: real time    0.8985
    MIXING:  cpu time    0.0030: real time    0.0030
    --------------------------------------------
      LOOP:  cpu time   37.2296: real time   37.3179

 eigenvalue-minimisations  : 24192
 total energy-change (2. order) : 0.8768401E-03  (-0.2203240E-03)
 number of electron     351.9999985 magnetization 
 augmentation part      115.4367218 magnetization 

 Broyden mixing:
  rms(total) = 0.18765E-01    rms(broyden)= 0.18743E-01
  rms(prec ) = 0.26360E-01
  weight for this iteration     100.00

 eigenvalues of (default mixing * dielectric matrix)
  average eigenvalue GAMMA=   0.8430
  3.2899  2.5123  1.5477  1.1813  0.6820  0.6820  0.5774  0.5774  0.4430  0.4430
  0.3430  0.1758  0.2893  0.2669  0.2384  0.2384

 Free energy of the ion-electron system (eV)
  ---------------------------------------------------
  alpha Z        PSCENC =      1214.69000140
  Ewald energy   TEWEN  =    -20740.73272560
  -Hartree energ DENC   =    -11161.59841866
  -exchange      EXHF   =         0.00000000
  -V(xc)+E(xc)   XCENC  =      1420.92230205
  PAW double counting   =     39087.10287482   -40288.74512998
  entropy T*S    EENTRO =        -0.00000000
  eigenvalues    EBANDS =      -826.70051425
  atomic energy  EATOM  =     31013.67235384
  Solvation  Ediel_sol  =         0.00000000
  ---------------------------------------------------
  free energy    TOTEN  =      -281.38925637 eV

  energy without entropy =     -281.38925637  energy(sigma->0) =     -281.38925637


--------------------------------------------------------------------------------------------------------




--------------------------------------- Iteration      1(  22)  ---------------------------------------


    POTLOK:  cpu time    0.0432: real time    0.0433
    SETDIJ:  cpu time    0.0066: real time    0.0066
     EDDAV:  cpu time   35.8913: real time   35.9763
    CHARGE:  cpu time    0.8943: real time    0.8964
    MIXING:  cpu time    0.0028: real time    0.0028
    --------------------------------------------
      LOOP:  cpu time   36.8382: real time   36.9254

 eigenvalue-minimisations  : 23616
 total energy-change (2. order) : 0.4799486E-04  (-0.1432354E-03)
 number of electron     351.9999985 magnetization 
 augmentation part      115.4397051 magnetization 

 Broyden mixing:
  rms(total) = 0.13706E-01    rms(broyden)= 0.13695E-01
  rms(prec ) = 0.20270E-01
  weight for this iteration     100.00

 eigenvalues of (default mixing * dielectric matrix)
  average eigenvalue GAMMA=   0.8192
  3.1323  2.4821  1.7636  1.1394  0.7383  0.7383  0.5721  0.5721  0.4516  0.4516
  0.1758  0.3533  0.3311  0.2865  0.2636  0.2372  0.2372

 Free energy of the ion-electron system (eV)
  ---------------------------------------------------
  alpha Z        PSCENC =      1214.69000140
  Ewald energy   TEWEN  =    -20740.73272560
  -Hartree energ DENC   =    -11161.75267108
  -exchange      EXHF   =         0.00000000
  -V(xc)+E(xc)   XCENC  =      1420.94467068
  PAW double counting   =     39088.21573303   -40289.85887597
  entropy T*S    EENTRO =        -0.00000000
  eigenvalues    EBANDS =      -826.56769468
  atomic energy  EATOM  =     31013.67235384
  Solvation  Ediel_sol  =         0.00000000
  ---------------------------------------------------
  free energy    TOTEN  =      -281.38920838 eV

  energy without entropy =     -281.38920838  energy(sigma->0) =     -281.38920838


--------------------------------------------------------------------------------------------------------




--------------------------------------- Iteration      1(  23)  ---------------------------------------


    POTLOK:  cpu time    0.0426: real time    0.0427
    SETDIJ:  cpu time    0.0063: real time    0.0063
     EDDAV:  cpu time   37.0951: real time   37.1829
    CHARGE:  cpu time    0.8690: real time    0.8711
    MIXING:  cpu time    0.0032: real time    0.0032
    --------------------------------------------
      LOOP:  cpu time   38.0163: real time   38.1063

 eigenvalue-minimisations  : 22672
 total energy-change (2. order) : 0.7536591E-04  (-0.6165376E-04)
 number of electron     351.9999985 magnetization 
 augmentation part      115.4391167 magnetization 

 Broyden mixing:
  rms(total) = 0.98824E-02    rms(broyden)= 0.98784E-02
  rms(prec ) = 0.14151E-01
  weight for this iteration     100.00

 eigenvalues of (default mixing * dielectric matrix)
  average eigenvalue GAMMA=   0.8057
  2.9396  2.4722  1.9609  1.1142  0.8216  0.8216  0.5860  0.5860  0.4888  0.4888
  0.4101  0.1758  0.3407  0.3029  0.2708  0.2504  0.2369  0.2348

 Free energy of the ion-electron system (eV)
  ---------------------------------------------------
  alpha Z        PSCENC =      1214.69000140
  Ewald energy   TEWEN  =    -20740.73272560
  -Hartree energ DENC   =    -11161.53816772
  -exchange      EXHF   =         0.00000000
  -V(xc)+E(xc)   XCENC  =      1420.93307619
  PAW double counting   =     39089.70780330   -40291.37694279
  entropy T*S    EENTRO =        -0.00000000
  eigenvalues    EBANDS =      -826.74453163
  atomic energy  EATOM  =     31013.67235384
  Solvation  Ediel_sol  =         0.00000000
  ---------------------------------------------------
  free energy    TOTEN  =      -281.38913301 eV

  energy without entropy =     -281.38913301  energy(sigma->0) =     -281.38913301


--------------------------------------------------------------------------------------------------------




--------------------------------------- Iteration      1(  24)  ---------------------------------------


    POTLOK:  cpu time    0.0424: real time    0.0425
    SETDIJ:  cpu time    0.0071: real time    0.0071
     EDDAV:  cpu time   32.1094: real time   32.1855
    CHARGE:  cpu time    0.8473: real time    0.8493
    MIXING:  cpu time    0.0031: real time    0.0031
    --------------------------------------------
      LOOP:  cpu time   33.0093: real time   33.0876

 eigenvalue-minimisations  : 21040
 total energy-change (2. order) : 0.5801335E-04  (-0.1229521E-04)
 number of electron     351.9999985 magnetization 
 augmentation part      115.4378992 magnetization 

 Broyden mixing:
  rms(total) = 0.75571E-02    rms(broyden)= 0.75562E-02
  rms(prec ) = 0.10486E-01
  weight for this iteration     100.00

 eigenvalues of (default mixing * dielectric matrix)
  average eigenvalue GAMMA=   0.8036
  2.9361  2.3570  2.1894  1.0976  0.9263  0.9263  0.6035  0.6035  0.5155  0.5155
  0.3961  0.3961  0.3448  0.1758  0.2787  0.2787  0.2552  0.2360  0.2360

 Free energy of the ion-electron system (eV)
  ---------------------------------------------------
  alpha Z        PSCENC =      1214.69000140
  Ewald energy   TEWEN  =    -20740.73272560
  -Hartree energ DENC   =    -11161.29167650
  -exchange      EXHF   =         0.00000000
  -V(xc)+E(xc)   XCENC  =      1420.91688188
  PAW double counting   =     39090.67072234   -40292.35114383
  entropy T*S    EENTRO =        -0.00000000
  eigenvalues    EBANDS =      -826.96348854
  atomic energy  EATOM  =     31013.67235384
  Solvation  Ediel_sol  =         0.00000000
  ---------------------------------------------------
  free energy    TOTEN  =      -281.38907500 eV

  energy without entropy =     -281.38907500  energy(sigma->0) =     -281.38907500


--------------------------------------------------------------------------------------------------------




--------------------------------------- Iteration      1(  25)  ---------------------------------------


    POTLOK:  cpu time    0.0429: real time    0.0430
    SETDIJ:  cpu time    0.0065: real time    0.0066
     EDDAV:  cpu time   29.9909: real time   30.0618
    CHARGE:  cpu time    0.7908: real time    0.7927
    MIXING:  cpu time    0.0030: real time    0.0030
    --------------------------------------------
      LOOP:  cpu time   30.8340: real time   30.9070

 eigenvalue-minimisations  : 18624
 total energy-change (2. order) : 0.2867048E-04  (-0.6752470E-05)
 number of electron     351.9999985 magnetization 
 augmentation part      115.4371554 magnetization 

 Broyden mixing:
  rms(total) = 0.54687E-02    rms(broyden)= 0.54679E-02
  rms(prec ) = 0.74923E-02
  weight for this iteration     100.00

 eigenvalues of (default mixing * dielectric matrix)
  average eigenvalue GAMMA=   0.8217
  3.1755  2.3116  2.3116  1.0745  1.0745  1.0675  0.6196  0.6196  0.5733  0.5733
  0.4513  0.4513  0.1758  0.3480  0.3333  0.2904  0.2690  0.2428  0.2393  0.2315

 Free energy of the ion-electron system (eV)
  ---------------------------------------------------
[...]
 total augmentation occupancy for first ion, spin component:           1
  9.675   0.081  -0.439   0.319  -0.173  -6.743  -0.138   0.529  -0.360   0.003  -0.581   0.161   0.331   0.041   0.016  -0.045
  0.081   8.694   0.272   0.191  -0.503  -0.136  -5.789  -0.457  -0.240   0.638  -0.914   0.214  -0.088   0.036   0.030  -0.013
 -0.439   0.272   5.839   0.492  -0.572   0.502  -0.431  -6.445  -0.583   0.829   0.274  -0.064   0.113   0.466   0.010  -0.025
  0.319   0.191   0.492   9.599   0.609  -0.362  -0.241  -0.617  -6.743  -0.820  -1.039   0.270   0.036   0.308   0.143  -0.004
 -0.173  -0.503  -0.572   0.609   6.841   0.004   0.596   0.829  -0.760  -7.472  -0.846   0.223   0.169   0.059  -0.033  -0.034
 -6.743  -0.136   0.502  -0.362   0.004   5.834   0.189  -0.584   0.399   0.135   0.569  -0.157  -0.321  -0.039  -0.012   0.050
 -0.138  -5.789  -0.431  -0.241   0.596   0.189   4.903   0.583   0.284  -0.716   0.893  -0.218   0.089  -0.034  -0.030  -0.001
  0.529  -0.457  -6.445  -0.617   0.829  -0.584   0.583   8.318   0.689  -1.076  -0.307   0.076  -0.134  -0.522  -0.020   0.029
 -0.360  -0.240  -0.583  -6.743  -0.760   0.399   0.284   0.689   5.890   0.945   1.020  -0.270  -0.036  -0.302  -0.133   0.005
  0.003   0.638   0.829  -0.820  -7.472   0.135  -0.716  -1.076   0.945   9.401   0.935  -0.248  -0.212  -0.068   0.053   0.042
 -0.581  -0.914   0.274  -1.039  -0.846   0.569   0.893  -0.307   1.020   0.935   3.905  -0.914   0.079  -0.172  -0.087  -0.016
  0.161   0.214  -0.064   0.270   0.223  -0.157  -0.218   0.076  -0.270  -0.248  -0.914   0.285  -0.014   0.047   0.031   0.004
  0.331  -0.088   0.113   0.036   0.169  -0.321   0.089  -0.134  -0.036  -0.212   0.079  -0.014   0.673   0.074   0.049  -0.117
  0.041   0.036   0.466   0.308   0.059  -0.039  -0.034  -0.522  -0.302  -0.068  -0.172   0.047   0.074   0.710   0.082  -0.016
  0.016   0.030   0.010   0.143  -0.033  -0.012  -0.030  -0.020  -0.133   0.053  -0.087   0.031   0.049   0.082   0.885  -0.011
 -0.045  -0.013  -0.025  -0.004  -0.034   0.050  -0.001   0.029   0.005   0.042  -0.016   0.004  -0.117  -0.016  -0.011   0.028
 -0.005  -0.018  -0.095  -0.053  -0.013   0.005   0.013   0.099   0.055   0.015   0.037  -0.013  -0.016  -0.123  -0.019   0.005
 -0.006  -0.007  -0.007  -0.041   0.008   0.003   0.007   0.008   0.033  -0.012   0.026  -0.009  -0.011  -0.019  -0.155   0.004


------------------------ aborting loop because EDIFF is reached ----------------------------------------


    CHARGE:  cpu time    0.8770: real time    0.8791
    FORLOC:  cpu time    0.0211: real time    0.0212
    FORNL :  cpu time    7.8308: real time    7.8493
    STRESS:  cpu time   23.7506: real time   23.8070
    FORCOR:  cpu time    0.0575: real time    0.0577
    FORHAR:  cpu time    0.0268: real time    0.0269
    MIXING:  cpu time    0.0035: real time    0.0035
    OFIELD:  cpu time    0.0001: real time    0.0001

  FORCE on cell =-STRESS in cart. coord.  units (eV):
  Direction    XX          YY          ZZ          XY          YZ          ZX
  --------------------------------------------------------------------------------------
  Alpha Z  1214.69000  1214.69000  1214.69000
  Ewald   -6950.97494 -6821.91647 -6967.96450    63.03157   260.98134  -180.83862
  Hartree  3711.77833  3736.90211  3712.47487    55.40055   180.41941  -129.76469
  E(xc)   -1813.38481 -1813.76390 -1813.34860    -0.01493     0.05659    -0.08815
  Local   -3809.63803 -3938.78788 -3790.01307  -121.47500  -434.79118   305.71098
  n-local  -715.77121  -704.78057  -716.26037    -0.00328     0.56953    -0.57489
  augment  2987.06341  2976.20086  2985.51762     1.32107    -1.93518     1.84826
  Kinetic  5462.79720  5461.32493  5461.98007     3.25058    -7.61537     6.40403
  Fock        0.00000     0.00000     0.00000     0.00000     0.00000     0.00000
  -------------------------------------------------------------------------------------
  Total       86.5599541    109.8690737     87.0760341      1.5105621     -2.3148784      2.6969209
  in kB      307.3542552    390.1195152    309.1867353      5.3636546     -8.2195946      9.5761387
  external PRESSURE =     335.5535019 kB  Pullay stress =       0.0000000 kB


 VOLUME and BASIS-vectors are now :
 -----------------------------------------------------------------------------
  energy-cutoff  :      500.00
  volume of cell :      451.22
      direct lattice vectors                 reciprocal lattice vectors
     7.670013410  0.000000000  0.000000000     0.130377869  0.000000000  0.000000000
     0.000000000  7.670013410  0.000000000     0.000000000  0.130377869  0.000000000
     0.000000000  0.000000000  7.670013410     0.000000000  0.000000000  0.130377869

  length of vectors
     7.670013410  7.670013410  7.670013410     0.130377869  0.130377869  0.130377869


 FORCES acting on ions
    electron-ion (+dipol)            ewald-force                    non-local-force                 convergence-correction
 -----------------------------------------------------------------------------------------------
   -.881E+02 0.460E+02 -.642E+02   0.886E+02 -.454E+02 0.677E+02   -.190E+01 -.995E+00 -.154E+00   0.510E-02 0.502E-03 -.110E-02
   -.175E+02 0.891E+02 -.956E+02   0.146E+02 -.903E+02 0.102E+03   0.149E+01 0.124E+01 -.871E+00   -.753E-02 -.604E-02 0.816E-02
   -.151E+03 0.119E+03 -.650E+02   0.153E+03 -.121E+03 0.673E+02   0.513E+00 0.524E+00 -.962E+00   0.804E-02 0.417E-02 0.715E-02
   -.741E+02 0.814E+02 0.130E+02   0.750E+02 -.869E+02 -.150E+02   -.202E+01 0.462E+00 0.117E+01   0.952E-02 -.740E-02 0.788E-04
   -.157E+03 -.153E+03 -.253E+02   0.168E+03 0.158E+03 0.252E+02   -.116E+01 -.230E+01 -.168E+01   0.204E-02 0.310E-02 0.531E-03
   0.677E+01 -.206E+01 -.168E+02   -.985E+01 -.149E+01 0.168E+02   0.501E+00 -.598E+00 -.136E+01   0.414E-03 0.480E-02 0.243E-03
   0.875E+02 -.121E+03 0.756E+02   -.910E+02 0.128E+03 -.782E+02   0.128E+01 -.376E+00 0.231E+01   0.235E-03 0.370E-02 -.804E-02
   -.191E+03 0.764E+02 0.120E+03   0.198E+03 -.807E+02 -.127E+03   -.313E+01 0.101E+01 0.455E+00   -.188E-02 0.389E-02 -.871E-02
   -.702E+01 0.293E+02 0.441E+02   0.851E+01 -.280E+02 -.454E+02   0.186E+00 -.519E+00 -.448E+00   0.637E-02 0.904E-02 -.580E-02
   0.150E+03 0.167E+03 -.519E+02   -.157E+03 -.176E+03 0.546E+02   0.201E+00 0.262E+01 -.196E+01   -.155E-01 -.179E-01 0.559E-02
   0.143E+03 -.198E+02 0.146E+03   -.147E+03 0.225E+02 -.156E+03   0.250E+01 -.146E+01 0.384E+00   -.137E-02 -.201E-02 -.188E-01
   0.242E+01 0.111E+03 0.120E+03   -.376E+00 -.115E+03 -.126E+03   -.977E+00 0.139E+01 0.256E+01   0.418E-02 -.101E-01 -.257E-01
   -.378E+02 -.277E+03 -.221E+03   0.425E+02 0.306E+03 0.233E+03   -.212E+01 -.439E+01 -.282E+01   -.514E-02 0.246E-05 -.956E-02
   0.135E+03 0.313E+02 -.137E+03   -.140E+03 -.351E+02 0.144E+03   0.273E+01 0.145E+01 -.169E+01   0.672E-02 0.585E-02 -.113E-01
   0.196E+03 -.193E+03 0.956E+02   -.205E+03 0.204E+03 -.102E+03   0.296E+01 -.267E+01 0.130E+01   0.581E-02 -.239E-02 0.917E-02
   -.281E+02 0.385E+02 0.918E+02   0.297E+02 -.450E+02 -.965E+02   -.766E+00 -.259E+00 0.355E+00   -.543E-02 0.192E-01 0.986E-02
   -.182E+03 0.155E+03 0.136E+03   0.198E+03 -.169E+03 -.147E+03   -.165E+02 0.142E+02 0.120E+02   0.158E-01 -.131E-02 -.809E-02
   -.306E+03 -.180E+03 -.222E+03   0.328E+03 0.198E+03 0.238E+03   -.189E+02 -.180E+02 -.155E+02   -.222E-02 -.559E-02 0.580E-02
   0.200E+03 -.306E+03 -.238E+03   -.215E+03 0.327E+03 0.256E+03   0.150E+02 -.199E+02 -.184E+02   -.130E-01 0.167E-02 0.158E-02
   -.283E+03 -.326E+03 0.214E+03   0.306E+03 0.354E+03 -.230E+03   -.192E+02 -.206E+02 0.150E+02   0.848E-02 -.524E-02 -.181E-02
   0.170E+03 0.169E+03 0.214E+03   -.185E+03 -.184E+03 -.228E+03   0.151E+02 0.171E+02 0.146E+02   0.396E-02 0.650E-02 0.316E-02
   -.292E+03 0.206E+03 -.296E+03   0.314E+03 -.220E+03 0.321E+03   -.165E+02 0.146E+02 -.222E+02   0.471E-02 -.400E-02 -.107E-01
   0.227E+03 0.131E+03 -.181E+03   -.244E+03 -.142E+03 0.193E+03   0.166E+02 0.120E+02 -.133E+02   -.683E-02 0.250E-02 0.166E-01
   0.175E+03 -.212E+03 0.222E+03   -.191E+03 0.230E+03 -.239E+03   0.169E+02 -.169E+02 0.155E+02   0.143E-02 0.472E-02 0.443E-02
   -.147E+03 0.230E+03 0.210E+03   0.160E+03 -.246E+03 -.223E+03   -.152E+02 0.159E+02 0.141E+02   -.651E-02 0.584E-02 -.351E-02
   -.223E+03 -.174E+03 -.201E+03   0.240E+03 0.185E+03 0.219E+03   -.173E+02 -.111E+02 -.173E+02   -.668E-02 0.571E-02 -.205E-02
   0.171E+03 -.219E+03 -.167E+03   -.187E+03 0.239E+03 0.181E+03   0.161E+02 -.177E+02 -.138E+02   0.839E-02 0.275E-02 -.192E-02
   -.260E+03 -.206E+03 0.302E+03   0.279E+03 0.223E+03 -.326E+03   -.156E+02 -.158E+02 0.221E+02   0.385E-02 -.930E-02 -.126E-01
   0.208E+03 0.270E+03 0.287E+03   -.224E+03 -.294E+03 -.311E+03   0.154E+02 0.204E+02 0.192E+02   0.258E-02 -.581E-02 -.854E-02
   -.285E+03 0.281E+03 -.233E+03   0.310E+03 -.301E+03 0.250E+03   -.215E+02 0.180E+02 -.147E+02   -.675E-02 -.983E-02 -.141E-02
   0.230E+03 0.243E+03 -.174E+03   -.248E+03 -.260E+03 0.191E+03   0.164E+02 0.157E+02 -.156E+02   -.435E-02 0.210E-02 -.139E-01
   0.175E+03 -.242E+03 0.195E+03   -.190E+03 0.260E+03 -.208E+03   0.147E+02 -.167E+02 0.143E+02   -.958E-04 0.920E-02 0.666E-02
   -.202E+03 0.158E+03 0.224E+03   0.214E+03 -.170E+03 -.243E+03   -.138E+02 0.130E+02 0.192E+02   0.528E-02 -.821E-03 -.318E-02
   -.199E+03 -.167E+03 -.154E+03   0.216E+03 0.183E+03 0.170E+03   -.152E+02 -.153E+02 -.148E+02   -.318E-02 0.149E-03 -.153E-01
   0.331E+03 -.285E+03 -.217E+03   -.360E+03 0.308E+03 0.236E+03   0.228E+02 -.197E+02 -.175E+02   -.776E-02 -.827E-02 0.825E-02
   -.175E+03 -.308E+03 0.301E+03   0.190E+03 0.332E+03 -.328E+03   -.147E+02 -.224E+02 0.201E+02   0.425E-03 -.222E-02 -.237E-01
   0.273E+03 0.193E+03 0.321E+03   -.294E+03 -.208E+03 -.348E+03   0.172E+02 0.153E+02 0.217E+02   0.910E-02 -.852E-03 -.950E-02
   -.228E+03 0.185E+03 -.205E+03   0.246E+03 -.203E+03 0.223E+03   -.163E+02 0.191E+02 -.159E+02   0.179E-02 0.109E-01 -.224E-02
   0.139E+03 0.144E+03 -.239E+03   -.153E+03 -.156E+03 0.262E+03   0.151E+02 0.122E+02 -.179E+02   -.274E-02 0.727E-02 0.475E-02
   0.196E+03 -.157E+03 0.265E+03   -.209E+03 0.172E+03 -.283E+03   0.131E+02 -.155E+02 0.172E+02   0.569E-02 -.105E-01 0.233E-03
   -.286E+03 0.263E+03 0.174E+03   0.306E+03 -.283E+03 -.190E+03   -.184E+02 0.191E+02 0.158E+02   0.698E-02 -.299E-02 0.433E-02
   -.143E+03 -.223E+03 -.216E+03   0.157E+03 0.238E+03 0.231E+03   -.150E+02 -.138E+02 -.129E+02   -.288E-02 0.104E-01 0.688E-02
   0.273E+03 -.177E+03 -.324E+03   -.291E+03 0.191E+03 0.354E+03   0.154E+02 -.136E+02 -.228E+02   -.581E-02 -.430E-04 0.329E-02
   -.162E+03 -.244E+03 0.187E+03   0.175E+03 0.267E+03 -.201E+03   -.148E+02 -.196E+02 0.148E+02   -.226E-02 -.868E-03 0.108E-01
   0.304E+03 0.326E+03 0.190E+03   -.324E+03 -.355E+03 -.205E+03   0.183E+02 0.212E+02 0.166E+02   0.268E-02 -.134E-01 0.117E-01
   -.173E+03 0.374E+03 -.291E+03   0.186E+03 -.420E+03 0.312E+03   -.141E+02 0.230E+02 -.192E+02   -.266E-02 -.257E-01 -.538E-02
   0.216E+03 0.280E+03 -.227E+03   -.236E+03 -.299E+03 0.243E+03   0.198E+02 0.159E+02 -.160E+02   0.389E-02 0.389E-02 0.931E-02
   0.282E+03 -.199E+03 0.121E+03   -.303E+03 0.210E+03 -.132E+03   0.178E+02 -.115E+02 0.123E+02   -.344E-02 0.169E-01 0.108E-02
 -----------------------------------------------------------------------------------------------
   -.303E+01 0.627E+01 0.669E+01   0.114E-12 0.114E-12 -.796E-12   0.302E+01 -.626E+01 -.663E+01   0.195E-01 -.797E-02 -.732E-01
 
 
 POSITION                                       TOTAL-FORCE (eV/Angst)
 -----------------------------------------------------------------------------------
      1.07642      4.92143      0.99377        -1.407987     -0.405614      3.354391
      2.94566      6.76309      0.99202        -1.451032     -0.004323      5.862088
      2.85994      4.92934      2.91651         3.175830     -2.174464      1.352746
      1.04841      6.87217      2.95088        -1.093797     -5.029533     -0.834735
      0.91880      1.02187      4.90586         9.871732      2.735125     -1.748185
      2.98722      2.99866      4.96335        -2.583751     -4.144548     -1.417136
      2.93576      0.86982      6.81302        -2.246252      6.641118     -0.307253
      1.03351      3.01056      6.96093         3.710525     -3.264409     -6.424404
      4.88372      4.85777      4.97156         1.681803      0.770832     -1.835808
      6.93573      6.88467      4.91643        -6.055787     -5.700208      0.729039
      6.80240      4.90418      6.96294        -1.523162      1.206979     -9.705564
      4.86170      6.85514      6.87438         1.067670     -2.701603     -3.401230
      4.89716      0.87499      0.95331         2.636460     24.401788      9.169917
      6.84946      2.93114      0.95953        -2.795011     -2.345397      5.754776
      6.88370      0.92351      3.05147        -5.538750      8.010136     -4.984594
      4.89769      3.03791      3.03782         0.815334     -6.776048     -4.401998
      6.78058      1.02314      0.96384        -0.034329      0.157709      1.155813
      2.74820      6.75527      2.84914         3.508218     -0.317640      0.010742
      3.01353      0.84179      1.03463        -0.183802      1.947854     -0.531205
      0.88935      0.80014      3.09574         3.714525      7.068836     -0.930685
      3.00159      2.91419      3.06867         0.745422      1.982003      0.212420
      0.82438      3.06171      0.97843         5.678374     -0.097974      2.764635
      5.03035      1.03984      2.93481        -0.121139      0.730472     -0.720402
      0.96326      6.69981      1.17510         1.446203      1.281462     -1.997188
      6.86148      5.00760      4.98014        -1.553740      0.156165      1.008675
      2.85456      2.85352      6.77738         0.503635     -0.643075      0.532226
      3.02643      4.72263      4.75720         0.049578      2.292656      0.515528
      0.84215      4.77559      6.94744         3.406285      1.300520     -2.076401
      3.04559      6.87980      7.04183        -0.230165     -3.381183     -5.396482
      0.94940      6.95178      4.71791         2.967515     -2.276929      2.042896
      5.04284      5.05468      6.76028        -1.865963     -1.205928      1.149329
      1.14975      2.80429      4.95919        -0.537780      1.704330      1.121195
      2.92859      1.06319      5.00028        -0.949396      0.444036     -0.047072
      6.63305      6.74924      6.73452         2.269454      0.570837      0.987226
      6.99153      0.91311      4.81675        -6.502516      2.584976      0.924936
      4.73572      0.93527      7.01543        -0.015707      1.766107     -6.537644
      7.02643      3.05542      6.99844        -3.770638      0.181964     -5.069747
      4.72187      2.96713      4.76463         2.049339      1.093689      2.227854
      1.04966      1.10477      6.57053         0.666901     -0.118078      4.780107
      4.98931      6.71882      5.08885         0.250509     -0.252582     -1.562726
      2.80056      4.98975      1.09175         2.192810     -0.803368      0.010548
      6.79415      2.71520      2.75792        -0.372297      1.716695      1.756079
      7.02510      4.81777      0.86580        -2.848391     -0.000589      7.720875
      4.89008      4.70476      3.05799        -1.612920      3.527256      0.675075
      6.95593      7.00318      3.00939        -1.719421     -7.188519      1.134290
      4.81512      7.14292      0.90418        -0.986367    -22.920363      2.382561
      1.10237      5.11990      2.87667        -0.815663     -2.591154     -0.432686
      5.15541      2.78587      1.02731        -3.592362      0.069985      1.027177
 -----------------------------------------------------------------------------------
    total drift:                                0.008317      0.003827     -0.017925


--------------------------------------------------------------------------------------------------------



  FREE ENERGIE OF THE ION-ELECTRON SYSTEM (eV)
  ---------------------------------------------------
  free  energy   TOTEN  =      -281.3890225395 eV

  energy  without entropy=     -281.3890225394  energy(sigma->0) =     -281.38902254
 


--------------------------------------------------------------------------------------------------------


    POTLOK:  cpu time    0.0489: real time    0.0491


--------------------------------------------------------------------------------------------------------


     LOOP+:  cpu time  965.9267: real time  968.4266
    4ORBIT:  cpu time    0.0000: real time    0.0000

volume of typ            1:    22.6 %

volume of typ            2:    11.6 %
 
total charge     
 
# of ion       s       p       d       tot
------------------------------------------
    1        0.352   0.537   7.899   8.788
    2        0.348   0.516   7.910   8.774
    3        0.302   0.404   7.842   8.547
    4        0.393   0.643   7.935   8.971
    5        0.382   0.590   7.927   8.899
    6        0.329   0.480   7.841   8.650
    7        0.324   0.457   7.865   8.646
    8        0.343   0.505   7.888   8.736
    9        0.293   0.391   7.823   8.507
   10        0.335   0.487   7.882   8.704
   11        0.364   0.549   7.909   8.822
   12        0.353   0.541   7.905   8.799
   13        0.422   0.663   8.000   9.086
   14        0.374   0.601   7.912   8.887
   15        0.369   0.572   7.919   8.860
   16        0.319   0.435   7.837   8.590
   17        1.298   2.676   0.006   3.980
   18        1.283   2.775   0.011   4.069
   19        1.291   2.742   0.010   4.042
   20        1.280   2.862   0.018   4.160
   21        1.294   2.680   0.006   3.981
   22        1.282   2.822   0.016   4.120
   23        1.286   2.704   0.006   3.996
   24        1.290   2.740   0.009   4.040
   25        1.290   2.690   0.006   3.987
   26        1.281   2.735   0.008   4.024
   27        1.279   2.760   0.010   4.049
   28        1.284   2.806   0.014   4.104
   29        1.277   2.846   0.018   4.141
   30        1.282   2.819   0.015   4.116
   31        1.276   2.779   0.011   4.067
   32        1.285   2.730   0.008   4.023
   33        1.291   2.701   0.007   3.999
   34        1.284   2.752   0.010   4.046
   35        1.284   2.841   0.019   4.144
   36        1.286   2.821   0.017   4.123
   37        1.284   2.828   0.017   4.129
   38        1.283   2.767   0.012   4.062
   39        1.282   2.764   0.010   4.056
   40        1.286   2.727   0.008   4.022
   41        1.277   2.794   0.012   4.083
   42        1.276   2.759   0.008   4.044
   43        1.283   2.833   0.017   4.133
   44        1.286   2.738   0.010   4.033
   45        1.288   2.814   0.016   4.118
   46        1.294   2.902   0.030   4.226
   47        1.286   2.767   0.011   4.064
   48        1.278   2.761   0.008   4.047
--------------------------------------------------
tot          46.71   97.11  126.68  270.49
 

 total amount of memory used by VASP MPI-rank0   165787. kBytes
=======================================================================

   base      :      30000. kBytes
   nonlr-proj:      21848. kBytes
   fftplans  :       3726. kBytes
   grid      :      12054. kBytes
   one-center:        746. kBytes
   wavefun   :      97413. kBytes
 
  
  
 General timing and accounting informations for this job:
 ========================================================
  
                  Total CPU time used (sec):      990.804
                            User time (sec):      988.265
                          System time (sec):        2.539
                         Elapsed time (sec):      996.836
  
                   Maximum memory used (kb):      223180.
                   Average memory used (kb):           0.
  
                          Minor page faults:        33967
                          Major page faults:           48
                 Voluntary context switches:         1240
