 vasp.5.4.4.18Apr17-6-g9f103f2a35 (build May 12 2020 04:58:55) complex          
  
 MD_VERSION_INFO: Compiled 2020-05-12T11:58:55-UTC in devlin.sd.materialsdesign.
 com:/home/medea2/data/build/wwolf/vasp-gpu5.4.4/13047/x86_64/src/src/build/std 
 from svn 13047
 
 This VASP executable licensed from Materials Design, Inc.
 
 executed on                        Lin64 date 2023.04.27  06:52:13
 running on   16 total cores
 distrk:  each k-point on   16 cores,    1 groups
 distr:  one band on NCORES_PER_BAND=   1 cores,   16 groups


--------------------------------------------------------------------------------------------------------


 INCAR:
 POTCAR:    PAW_PBE Ni 02Aug2007                  
 POTCAR:    PAW_PBE O 08Apr2002                   

 ----------------------------------------------------------------------------- 
|                                                                             |
|           W    W    AA    RRRRR   N    N  II  N    N   GGGG   !!!           |
|           W    W   A  A   R    R  NN   N  II  NN   N  G    G  !!!           |
|           W    W  A    A  R    R  N N  N  II  N N  N  G       !!!           |
|           W WW W  AAAAAA  RRRRR   N  N N  II  N  N N  G  GGG   !            |
|           WW  WW  A    A  R   R   N   NN  II  N   NN  G    G                |
|           W    W  A    A  R    R  N    N  II  N    N   GGGG   !!!           |
|                                                                             |
|      For optimal performance we recommend to set                            |
|        NCORE= 4 - approx SQRT( number of cores)                             |
|      NCORE specifies how many cores store one orbital (NPAR=cpu/NCORE).     |
|      This setting can  greatly improve the performance of VASP for DFT.     |
|      The default,   NCORE=1            might be grossly inefficient         |
|      on modern multi-core architectures or massively parallel machines.     |
|      Do your own testing !!!!                                               |
|      Unfortunately you need to use the default for GW and RPA calculations. |
|      (for HF NCORE is supported but not extensively tested yet)             |
|                                                                             |
 ----------------------------------------------------------------------------- 

 POTCAR:    PAW_PBE Ni 02Aug2007                  
  local pseudopotential read in
  partial core-charges read in
  partial kinetic energy density read in
  atomic valenz-charges read in
  non local Contribution for L=           2  read in
    real space projection operators read in
  non local Contribution for L=           2  read in
    real space projection operators read in
  non local Contribution for L=           0  read in
    real space projection operators read in
  non local Contribution for L=           0  read in
    real space projection operators read in
  non local Contribution for L=           1  read in
    real space projection operators read in
  non local Contribution for L=           1  read in
    real space projection operators read in
    PAW grid and wavefunctions read in
 
   number of l-projection  operators is LMAX  =           6
   number of lm-projection operators is LMMAX =          18
 
 POTCAR:    PAW_PBE O 08Apr2002                   
  local pseudopotential read in
  partial core-charges read in
  partial kinetic energy density read in
  kinetic energy density of atom read in
  atomic valenz-charges read in
  non local Contribution for L=           0  read in
    real space projection operators read in
  non local Contribution for L=           0  read in
    real space projection operators read in
  non local Contribution for L=           1  read in
    real space projection operators read in
  non local Contribution for L=           1  read in
    real space projection operators read in
    PAW grid and wavefunctions read in
 
   number of l-projection  operators is LMAX  =           4
   number of lm-projection operators is LMMAX =           8
 
 Optimization of the real space projectors (new method)

 maximal supplied QI-value         = 16.25
 optimisation between [QCUT,QGAM] = [ 11.38, 22.75] = [ 36.24,144.96] Ry 
 Optimized for a Real-space Cutoff    1.47 Angstroem

   l    n(q)    QCUT    max X(q) W(low)/X(q) W(high)/X(q)  e(spline) 
   2      9    11.376    60.317    0.17E-03    0.16E-04    0.16E-06
   2      9    11.376    55.921    0.17E-03    0.16E-04    0.17E-06
   0     10    11.376    51.690    0.45E-04    0.60E-04    0.21E-06
   0     10    11.376    30.015    0.37E-04    0.55E-04    0.19E-06
   1     10    11.376    18.849    0.83E-04    0.11E-03    0.92E-07
   1     10    11.376    14.624    0.69E-04    0.92E-04    0.82E-07
 Optimization of the real space projectors (new method)

 maximal supplied QI-value         = 24.76
 optimisation between [QCUT,QGAM] = [ 11.39, 22.77] = [ 36.31,145.25] Ry 
 Optimized for a Real-space Cutoff    1.10 Angstroem

   l    n(q)    QCUT    max X(q) W(low)/X(q) W(high)/X(q)  e(spline) 
   0      7    11.387    20.381    0.22E-03    0.48E-03    0.18E-06
   0      7    11.387    15.268    0.22E-03    0.52E-03    0.19E-06
   1      7    11.387     5.964    0.22E-03    0.73E-03    0.24E-06
   1      7    11.387     5.382    0.19E-03    0.60E-03    0.21E-06

 ----------------------------------------------------------------------------- 
|                                                                             |
|  ADVICE TO THIS USER RUNNING 'VASP/VAMP'   (HEAR YOUR MASTER'S VOICE ...):  |
|                                                                             |
|      You enforced a specific xc-type in the INCAR file,                     |
|      a different type was found on the POTCAR file                          |
|          I HOPE YOU KNOW, WHAT YOU ARE  DOING                               |
|                                                                             |
 ----------------------------------------------------------------------------- 

  PAW_PBE Ni 02Aug2007                  :
 energy of atom  1       EATOM=-1077.6739
 kinetic energy error for atom=    0.0030 (will be added to EATOM!!)
  PAW_PBE O 08Apr2002                   :
 energy of atom  2       EATOM= -432.3788
 kinetic energy error for atom=    0.0224 (will be added to EATOM!!)
 
 
 POSCAR: NiO2_C2_m_scale_1_050_disp_0_08_round_1 
  positions in direct lattice
  No initial velocities read in
 exchange correlation table for  LEXCH =       14
   RHO(1)=    0.500       N(1)  =     2000
   RHO(2)=  100.500       N(2)  =     4000
 


--------------------------------------------------------------------------------------------------------


 ion  position               nearest neighbor table
   1  0.998  0.001  0.010-  19 1.75  51 1.99  22 2.10  27 2.15  46 2.40  54 2.41   3 2.71   7 2.76
                             9 2.94
   2  0.988  0.001  0.476-  21 1.75  20 2.00  44 2.13  53 2.18  29 2.20  52 2.20   4 2.60  10 2.76
                             8 2.97
   3  0.991  0.306  0.997-  19 1.86  23 1.93  46 2.02  43 2.17  26 2.32  50 2.40   1 2.71  11 2.91
                             5 2.95  13 2.96   9 2.97
   4  0.021  0.312  0.471-  21 1.73  24 1.77  44 1.90  25 2.01  45 2.31  48 2.39   2 2.60  10 2.61
                            12 2.82   6 2.86
   5  0.992  0.643  0.995-  27 1.90  23 1.90  50 2.06  47 2.21  30 2.22  54 2.40  11 2.76   3 2.95
                             7 2.98  15 3.00
   6  0.993  0.622  0.468-  25 1.68  48 1.81  28 1.97  52 2.06  29 2.11  49 2.26   4 2.86  12 2.86
                            16 3.04
   7  0.311  0.999  0.007-  31 1.87  27 1.94  39 2.13  22 2.17  34 2.31  30 2.42   1 2.76   9 2.78
                            15 2.83  13 2.84   5 2.98  11 3.07
   8  0.335  0.018  0.480-  33 1.66  32 1.82  29 1.83  20 1.95  41 2.10  28 2.41  16 2.53  10 2.61
                            14 2.69   2 2.97
   9  0.340  0.329  0.003-  31 1.76  35 1.77  38 1.96  19 2.03  26 2.10  22 2.14  17 2.58  15 2.62
                             7 2.78   1 2.94  11 2.95   3 2.97
  10  0.313  0.303  0.468-  20 1.72  36 1.81  24 1.91  21 1.97  33 1.99  37 2.11   4 2.61   8 2.61
                            16 2.75   2 2.76  18 2.88  12 2.94
  11  0.310  0.649  0.003-  23 1.68  39 1.78  35 1.88  30 2.04  26 2.25  42 2.37   5 2.76  17 2.83
                             3 2.91  13 2.95   9 2.95   7 3.07
  12  0.329  0.645  0.475-  28 1.84  40 1.86  41 1.89  24 1.93  37 2.01  25 2.19  18 2.69   4 2.82
                             6 2.86  10 2.94  14 2.94
  13  0.633  0.996  0.003-  39 1.82  43 1.86  46 2.17  51 2.18  34 2.22  42 2.44   7 2.84  15 2.85
                            11 2.95   3 2.96
  14  0.634  0.004  0.472-  44 1.75  32 1.78  45 1.86  41 2.07  40 2.24  53 2.24  16 2.67   8 2.69
                            12 2.94
  15  0.634  0.321  0.003-  47 1.81  31 1.87  43 1.88  50 2.07  38 2.18  34 2.28   9 2.62  17 2.78
                             7 2.83  13 2.85   5 3.00
  16  0.626  0.303  0.485-  33 1.82  32 1.84  45 1.85  36 1.94  48 1.99  49 2.06   8 2.53  14 2.67
                            10 2.75  18 2.93   6 3.04
  17  0.623  0.632  0.995-  35 1.81  47 1.85  51 1.88  42 2.11  38 2.14  54 2.18   9 2.58  15 2.78
                            11 2.83
  18  0.632  0.640  0.483-  53 1.78  37 1.82  49 1.91  52 1.98  40 2.05  36 2.11  12 2.69  10 2.88
                            16 2.93
  19  0.099  0.204  0.095-   1 1.75   3 1.86   9 2.03
  20  0.216  0.113  0.372-  10 1.72   8 1.95   2 2.00
  21  0.091  0.197  0.571-   4 1.73   2 1.75  10 1.97
  22  0.203  0.112  0.865-   1 2.10   9 2.14   7 2.17
  23  0.112  0.537  0.080-  11 1.68   5 1.90   3 1.93
  24  0.217  0.427  0.374-   4 1.77  10 1.91  12 1.93
  25  0.073  0.530  0.576-   6 1.68   4 2.01  12 2.19
  26  0.236  0.426  0.855-   9 2.10  11 2.25   3 2.32
  27  0.096  0.848  0.107-   5 1.90   7 1.94   1 2.15
  28  0.220  0.737  0.370-  12 1.84   6 1.97   8 2.41
  29  0.124  0.872  0.564-   8 1.83   6 2.11   2 2.20
  30  0.223  0.751  0.855-  11 2.04   5 2.22   7 2.42
  31  0.421  0.215  0.099-   9 1.76  15 1.87   7 1.87
  32  0.535  0.104  0.377-  14 1.78   8 1.82  16 1.84
  33  0.421  0.194  0.582-   8 1.66  16 1.82  10 1.99
  34  0.531  0.102  0.843-  13 2.22  15 2.28   7 2.31
  35  0.416  0.533  0.088-   9 1.77  17 1.81  11 1.88
  36  0.516  0.403  0.371-  10 1.81  16 1.94  18 2.11
  37  0.436  0.533  0.590-  18 1.82  12 2.01  10 2.11
  38  0.514  0.415  0.854-   9 1.96  17 2.14  15 2.18
  39  0.426  0.855  0.090-  11 1.78  13 1.82   7 2.13
  40  0.523  0.748  0.359-  12 1.86  18 2.05  14 2.24
  41  0.405  0.850  0.582-  12 1.89  14 2.07   8 2.10
  42  0.545  0.750  0.844-  17 2.11  11 2.37  13 2.44
  43  0.739  0.209  0.097-  13 1.86  15 1.88   3 2.17
  44  0.838  0.106  0.387-  14 1.75   4 1.90   2 2.13
  45  0.749  0.211  0.572-  16 1.85  14 1.86   4 2.31
  46  0.854  0.109  0.862-   3 2.02  13 2.17   1 2.40
  47  0.730  0.529  0.092-  15 1.81  17 1.85   5 2.21
  48  0.846  0.424  0.375-   6 1.81  16 1.99   4 2.39
  49  0.744  0.540  0.589-  18 1.91  16 2.06   6 2.26
  50  0.846  0.431  0.869-   5 2.06  15 2.07   3 2.40
  51  0.755  0.851  0.082-  17 1.88   1 1.99  13 2.18
  52  0.859  0.736  0.384-  18 1.98   6 2.06   2 2.20
  53  0.734  0.843  0.575-  18 1.78   2 2.18  14 2.24
  54  0.846  0.756  0.856-  17 2.18   5 2.40   1 2.41
 
  LATTYP: Found a hexagonal cell.
 ALAT       =     8.7810134983
 C/A-ratio  =     1.1065328053
  
  Lattice vectors:
  
 A1 = (   8.7810135000,   0.0000000000,   0.0000000000)
 A2 = (  -4.3905067500,   7.6045807600,   0.0000000000)
 A3 = (   0.0000000000,   0.0000000000,   9.7164795000)


Analysis of symmetry for initial positions (statically):
=====================================================================
 Subroutine PRICEL returns:
 Original cell was already a primitive cell.
 

 Routine SETGRP: Setting up the symmetry group for a 
 hexagonal supercell.


 Subroutine GETGRP returns: Found  1 space group operations
 (whereof  1 operations were pure point group operations)
 out of a pool of 24 trial point group operations.


The static configuration has the point symmetry C_1 .


Analysis of symmetry for dynamics (positions and initial velocities):
=====================================================================
 Subroutine PRICEL returns:
 Original cell was already a primitive cell.
 

 Routine SETGRP: Setting up the symmetry group for a 
 hexagonal supercell.


 Subroutine GETGRP returns: Found  1 space group operations
 (whereof  1 operations were pure point group operations)
 out of a pool of 24 trial point group operations.


The dynamic configuration has the point symmetry C_1 .


 Subroutine INISYM returns: Found  1 space group operations
 (whereof  1 operations are pure point group operations),
 and found     1 'primitive' translations

 
 
 KPOINTS: Automatic mesh                          

Automatic generation of k-mesh.
Space group operators:
 irot       det(A)        alpha          n_x          n_y          n_z        tau_x        tau_y        tau_z
    1     1.000000     0.000000     1.000000     0.000000     0.000000     0.000000     0.000000     0.000000
 
 Subroutine IBZKPT returns following result:
 ===========================================
 
 Found     26 irreducible k-points:
 
 Following reciprocal coordinates:
            Coordinates               Weight
  0.000000  0.000000  0.000000      1.000000
  0.250000  0.000000  0.000000      2.000000
  0.500000  0.000000  0.000000      1.000000
  0.000000  0.250000  0.000000      2.000000
  0.250000  0.250000  0.000000      2.000000
  0.500000  0.250000  0.000000      2.000000
 -0.250000  0.250000  0.000000      2.000000
  0.000000  0.500000  0.000000      1.000000
  0.250000  0.500000  0.000000      2.000000
  0.500000  0.500000  0.000000      1.000000
  0.000000  0.000000  0.333333      2.000000
  0.250000  0.000000  0.333333      2.000000
  0.500000  0.000000  0.333333      2.000000
 -0.250000  0.000000  0.333333      2.000000
  0.000000  0.250000  0.333333      2.000000
  0.250000  0.250000  0.333333      2.000000
  0.500000  0.250000  0.333333      2.000000
 -0.250000  0.250000  0.333333      2.000000
  0.000000  0.500000  0.333333      2.000000
  0.250000  0.500000  0.333333      2.000000
  0.500000  0.500000  0.333333      2.000000
 -0.250000  0.500000  0.333333      2.000000
  0.000000 -0.250000  0.333333      2.000000
  0.250000 -0.250000  0.333333      2.000000
  0.500000 -0.250000  0.333333      2.000000
 -0.250000 -0.250000  0.333333      2.000000
 
 Following cartesian coordinates:
            Coordinates               Weight
  0.000000  0.000000  0.000000      1.000000
  0.028471  0.016437  0.000000      2.000000
  0.056941  0.032875  0.000000      1.000000
  0.000000  0.032875  0.000000      2.000000
  0.028471  0.049312  0.000000      2.000000
  0.056941  0.065750  0.000000      2.000000
 -0.028471  0.016437  0.000000      2.000000
  0.000000  0.065750  0.000000      1.000000
  0.028471  0.082187  0.000000      2.000000
  0.056941  0.098625  0.000000      1.000000
  0.000000  0.000000  0.034306      2.000000
  0.028471  0.016437  0.034306      2.000000
  0.056941  0.032875  0.034306      2.000000
 -0.028471 -0.016437  0.034306      2.000000
  0.000000  0.032875  0.034306      2.000000
  0.028471  0.049312  0.034306      2.000000
  0.056941  0.065750  0.034306      2.000000
 -0.028471  0.016437  0.034306      2.000000
  0.000000  0.065750  0.034306      2.000000
  0.028471  0.082187  0.034306      2.000000
  0.056941  0.098625  0.034306      2.000000
 -0.028471  0.049312  0.034306      2.000000
  0.000000 -0.032875  0.034306      2.000000
  0.028471 -0.016437  0.034306      2.000000
  0.056941  0.000000  0.034306      2.000000
 -0.028471 -0.049312  0.034306      2.000000
 


--------------------------------------------------------------------------------------------------------




 Dimension of arrays:
   k-points           NKPTS =     26   k-points in BZ     NKDIM =     26   number of bands    NBANDS=    240
   number of dos      NEDOS =    301   number of ions     NIONS =     54
   non local maximal  LDIM  =      6   non local SUM 2l+1 LMDIM =     18
   total plane-waves  NPLWV = 294912
   max r-space proj   IRMAX =   6152   max aug-charges    IRDMAX=  14931
   dimension x,y,z NGX =    64 NGY =   64 NGZ =   72
   dimension x,y,z NGXF=   128 NGYF=  128 NGZF=  144
   support grid    NGXF=   128 NGYF=  128 NGZF=  144
   ions per type =              18  36
   NGX,Y,Z   is equivalent  to a cutoff of  12.12, 12.12, 12.32 a.u.
   NGXF,Y,Z  is equivalent  to a cutoff of  24.23, 24.23, 24.64 a.u.

 SYSTEM =  unknown system                          
 POSCAR =  NiO2_C2_m_scale_1_050_disp_0_08_round_1 

 Startparameter for this run:
   NWRITE =      1    write-flag & timer
   PREC   = accura    normal or accurate (medium, high low for compatibility)
   ISTART =      0    job   : 0-new  1-cont  2-samecut
   ICHARG =      2    charge: 1-file 2-atom 10-const
   ISPIN  =      1    spin polarized calculation?
   LNONCOLLINEAR =      F non collinear calculations
   LSORBIT =      F    spin-orbit coupling
   INIWAV =      1    electr: 0-lowe 1-rand  2-diag
   LASPH  =      F    aspherical Exc in radial PAW
   METAGGA=      F    non-selfconsistent MetaGGA calc.

 Electronic Relaxation 1
   ENCUT  =  500.0 eV  36.75 Ry    6.06 a.u.  16.01 16.01 17.72*2*pi/ulx,y,z
   ENINI  =  500.0     initial cutoff
   ENAUG  =  605.4 eV  augmentation charge cutoff
   NELM   =    120;   NELMIN=  2; NELMDL= -5     # of ELM steps 
   EDIFF  = 0.1E-04   stopping-criterion for ELM
   LREAL  =      T    real-space projection
   NLSPLINE    = F    spline interpolate recip. space projectors
   LCOMPAT=      F    compatible to vasp.4.4
   GGA_COMPAT  = T    GGA compatible to vasp.4.4-vasp.4.6
   LMAXPAW     = -100 max onsite density
   LMAXMIX     =    2 max onsite mixed and CHGCAR
   VOSKOWN=      1    Vosko Wilk Nusair interpolation
   ROPT   =   -0.00025  -0.00025
 Ionic relaxation
   EDIFFG = 0.1E-03   stopping-criterion for IOM
   NSW    =      0    number of steps for IOM
   NBLOCK =      1;   KBLOCK =      1    inner block; outer block 
   IBRION =     -1    ionic relax: 0-MD 1-quasi-New 2-CG
   NFREE  =      0    steps in history (QN), initial steepest desc. (CG)
   ISIF   =      2    stress and relaxation
   IWAVPR =     10    prediction:  0-non 1-charg 2-wave 3-comb
   ISYM   =      2    0-nonsym 1-usesym 2-fastsym
   LCORR  =      T    Harris-Foulkes like correction to forces

   POTIM  = 0.5000    time-step for ionic-motion
   TEIN   =    0.0    initial temperature
   TEBEG  =    0.0;   TEEND  =   0.0 temperature during run
   SMASS  =  -3.00    Nose mass-parameter (am)
   estimated Nose-frequenzy (Omega)   =  0.10E-29 period in steps =****** mass=  -0.176E-26a.u.
   SCALEE = 1.0000    scale energy and forces
   NPACO  =    256;   APACO  = 16.0  distance and # of slots for P.C.
   PSTRESS=    0.0 pullay stress

  Mass of Ions in am
   POMASS =  58.69 16.00
  Ionic Valenz
   ZVAL   =  10.00  6.00
  Atomic Wigner-Seitz radii
   RWIGS  =   1.15  0.73
  virtual crystal weights 
   VCA    =   1.00  1.00
   NELECT =     396.0000    total number of electrons
   NUPDOWN=      -1.0000    fix difference up-down

 DOS related values:
   EMIN   =  10.00;   EMAX   =-10.00  energy-range for DOS
   EFERMI =   0.00
   ISMEAR =     0;   SIGMA  =   0.05  broadening in eV -4-tet -1-fermi 0-gaus

 Electronic relaxation 2 (details)
   IALGO  =     38    algorithm
   LDIAG  =      T    sub-space diagonalisation (order eigenvalues)
   LSUBROT=      F    optimize rotation matrix (better conditioning)
   TURBO    =      0    0=normal 1=particle mesh
   IRESTART =      0    0=no restart 2=restart with 2 vectors
   NREBOOT  =      0    no. of reboots
   NMIN     =      0    reboot dimension
   EREF     =   0.00    reference energy to select bands
   IMIX   =      4    mixing-type and parameters
     AMIX     =   0.40;   BMIX     =  1.00
     AMIX_MAG =   1.60;   BMIX_MAG =  1.00
     AMIN     =   0.10
     WC   =   100.;   INIMIX=   1;  MIXPRE=   1;  MAXMIX= -45

 Intra band minimization:
   WEIMIN = 0.0000     energy-eigenvalue tresh-hold
   EBREAK =  0.10E-07  absolut break condition
   DEPER  =   0.30     relativ break condition  

   TIME   =   0.40     timestep for ELM

  volume/ion in A,a.u.               =      12.02        81.08
  Fermi-wavevector in a.u.,A,eV,Ry     =   1.388663  2.624193 26.237279  1.928386
  Thomas-Fermi vector in A             =   2.512768
 
 Write flags
   LWAVE        =      F    write WAVECAR
   LDOWNSAMPLE  =      F    k-point downsampling of WAVECAR
   LCHARG       =      T    write CHGCAR
   LVTOT        =      F    write LOCPOT, total local potential
   LVHAR        =      F    write LOCPOT, Hartree potential only
   LELF         =      F    write electronic localiz. function (ELF)
   LORBIT       =      0    0 simple, 1 ext, 2 COOP (PROOUT), +10 PAW based schemes


 Dipole corrections
   LMONO  =      F    monopole corrections only (constant potential shift)
   LDIPOL =      F    correct potential (dipole corrections)
   IDIPOL =      0    1-x, 2-y, 3-z, 4-all directions 
   EPSILON=  1.0000000 bulk dielectric constant

 Exchange correlation treatment:
   GGA     =    PS    GGA type
   LEXCH   =    14    internal setting for exchange type
   VOSKOWN=      1    Vosko Wilk Nusair interpolation
   LHFCALC =     F    Hartree Fock is set to
   LHFONE  =     F    Hartree Fock one center treatment
   AEXX    =    0.0000 exact exchange contribution

 Linear response parameters
   LEPSILON=     F    determine dielectric tensor
   LRPA    =     F    only Hartree local field effects (RPA)
   LNABLA  =     F    use nabla operator in PAW spheres
   LVEL    =     F    velocity operator in full k-point grid
   LINTERFAST=   F  fast interpolation
   KINTER  =     0    interpolate to denser k-point grid
   CSHIFT  =0.1000    complex shift for real part using Kramers Kronig
   OMEGAMAX=  -1.0    maximum frequency
   DEG_THRESHOLD= 0.2000000E-02 threshold for treating states as degnerate
   RTIME   =   -0.100 relaxation time in fs
  (WPLASMAI=    0.000 imaginary part of plasma frequency in eV, 0.658/RTIME)
   DFIELD  = 0.0000000 0.0000000 0.0000000 field for delta impulse in time
 
 Orbital magnetization related:
   ORBITALMAG=     F  switch on orbital magnetization
   LCHIMAG   =     F  perturbation theory with respect to B field
   DQ        =  0.001000  dq finite difference perturbation B field
   LLRAUG    =     F  two centre corrections for induced B field



--------------------------------------------------------------------------------------------------------


 Static calculation
 charge density and potential will be updated during run
 non-spin polarized calculation
 Variant of blocked Davidson
 Davidson routine will perform the subspace rotation
 perform sub-space diagonalisation
    after iterative eigenvector-optimisation
 modified Broyden-mixing scheme, WC =      100.0
 initial mixing is a Kerker type mixing with AMIX =  0.4000 and BMIX =      1.0000
 Hartree-type preconditioning will be used
 using additional bands           42
 real space projection scheme for non local part
 use partial core corrections
 calculate Harris-corrections to forces 
   (improved forces if not selfconsistent)
 use gradient corrections 
 use of overlap-Matrix (Vanderbilt PP)
 Gauss-broadening in eV      SIGMA  =   0.05


--------------------------------------------------------------------------------------------------------


  energy-cutoff  :      500.00
  volume of cell :      648.83
      direct lattice vectors                 reciprocal lattice vectors
     8.781013500  0.000000000  0.000000000     0.113882071  0.065749844  0.000000000
    -4.390506750  7.604580760  0.000000000     0.000000000  0.131499688  0.000000000
     0.000000000  0.000000000  9.716479500     0.000000000  0.000000000  0.102917934

  length of vectors
     8.781013500  8.781013498  9.716479500     0.131499688  0.131499688  0.102917934


 
 k-points in units of 2pi/SCALE and weight: Automatic mesh                          
   0.00000000  0.00000000  0.00000000       0.021
   0.02847052  0.01643746  0.00000000       0.042
   0.05694104  0.03287492  0.00000000       0.021
   0.00000000  0.03287492  0.00000000       0.042
   0.02847052  0.04931238  0.00000000       0.042
   0.05694104  0.06574984  0.00000000       0.042
  -0.02847052  0.01643746  0.00000000       0.042
   0.00000000  0.06574984  0.00000000       0.021
   0.02847052  0.08218731  0.00000000       0.042
   0.05694104  0.09862477  0.00000000       0.021
   0.00000000  0.00000000  0.03430598       0.042
   0.02847052  0.01643746  0.03430598       0.042
   0.05694104  0.03287492  0.03430598       0.042
  -0.02847052 -0.01643746  0.03430598       0.042
   0.00000000  0.03287492  0.03430598       0.042
   0.02847052  0.04931238  0.03430598       0.042
   0.05694104  0.06574984  0.03430598       0.042
  -0.02847052  0.01643746  0.03430598       0.042
   0.00000000  0.06574984  0.03430598       0.042
   0.02847052  0.08218731  0.03430598       0.042
   0.05694104  0.09862477  0.03430598       0.042
  -0.02847052  0.04931238  0.03430598       0.042
   0.00000000 -0.03287492  0.03430598       0.042
   0.02847052 -0.01643746  0.03430598       0.042
   0.05694104  0.00000000  0.03430598       0.042
  -0.02847052 -0.04931238  0.03430598       0.042
 
 k-points in reciprocal lattice and weights: Automatic mesh                          
   0.00000000  0.00000000  0.00000000       0.021
   0.25000000  0.00000000  0.00000000       0.042
   0.50000000  0.00000000  0.00000000       0.021
   0.00000000  0.25000000  0.00000000       0.042
   0.25000000  0.25000000  0.00000000       0.042
   0.50000000  0.25000000  0.00000000       0.042
  -0.25000000  0.25000000  0.00000000       0.042
   0.00000000  0.50000000  0.00000000       0.021
   0.25000000  0.50000000  0.00000000       0.042
   0.50000000  0.50000000  0.00000000       0.021
   0.00000000  0.00000000  0.33333333       0.042
   0.25000000  0.00000000  0.33333333       0.042
   0.50000000  0.00000000  0.33333333       0.042
  -0.25000000  0.00000000  0.33333333       0.042
   0.00000000  0.25000000  0.33333333       0.042
   0.25000000  0.25000000  0.33333333       0.042
   0.50000000  0.25000000  0.33333333       0.042
  -0.25000000  0.25000000  0.33333333       0.042
   0.00000000  0.50000000  0.33333333       0.042
   0.25000000  0.50000000  0.33333333       0.042
   0.50000000  0.50000000  0.33333333       0.042
  -0.25000000  0.50000000  0.33333333       0.042
   0.00000000 -0.25000000  0.33333333       0.042
   0.25000000 -0.25000000  0.33333333       0.042
   0.50000000 -0.25000000  0.33333333       0.042
  -0.25000000 -0.25000000  0.33333333       0.042
 
 position of ions in fractional coordinates (direct lattice) 
   0.99794314  0.00117958  0.01029834
   0.98812717  0.00105129  0.47579534
   0.99102874  0.30600553  0.99710992
   0.02092207  0.31213771  0.47137960
   0.99232941  0.64277995  0.99540289
   0.99274516  0.62243306  0.46788931
   0.31072163  0.99909904  0.00677409
   0.33483324  0.01806120  0.48046577
   0.33981126  0.32884409  0.00303504
   0.31311185  0.30340031  0.46759954
   0.30952880  0.64889501  0.00343733
   0.32926754  0.64546648  0.47450652
   0.63266120  0.99607461  0.00260002
   0.63405497  0.00381514  0.47157440
   0.63387039  0.32084166  0.00296706
   0.62609137  0.30335393  0.48520294
   0.62264747  0.63179257  0.99544186
   0.63221419  0.63961805  0.48304520
   0.09944758  0.20437482  0.09453931
   0.21563005  0.11318923  0.37176826
   0.09115858  0.19656450  0.57122194
   0.20278217  0.11166311  0.86530919
   0.11212043  0.53704269  0.08021430
   0.21674769  0.42674046  0.37392841
   0.07275619  0.53001843  0.57551908
   0.23568079  0.42593734  0.85461166
   0.09625670  0.84765491  0.10718900
   0.21964033  0.73657693  0.36975965
   0.12431407  0.87160029  0.56438476
   0.22274285  0.75092284  0.85500308
   0.42138363  0.21513470  0.09923894
   0.53456616  0.10449232  0.37736788
   0.42128287  0.19356156  0.58171235
   0.53057523  0.10236591  0.84278080
   0.41591912  0.53305396  0.08828651
   0.51635985  0.40252975  0.37120493
   0.43596032  0.53282131  0.58955687
   0.51425712  0.41531779  0.85444805
   0.42566009  0.85481774  0.09006967
   0.52299663  0.74774697  0.35855471
   0.40526618  0.85041460  0.58176128
   0.54488622  0.75049027  0.84368442
   0.73863928  0.20933951  0.09677081
   0.83754192  0.10591663  0.38725474
   0.74926866  0.21133353  0.57246228
   0.85383355  0.10854459  0.86186439
   0.73013097  0.52935755  0.09219280
   0.84600709  0.42371181  0.37544854
   0.74354194  0.53958001  0.58850067
   0.84625826  0.43056321  0.86903871
   0.75493146  0.85069740  0.08240441
   0.85853435  0.73630452  0.38392069
   0.73396102  0.84254172  0.57487829
   0.84625201  0.75565730  0.85560290
 
 position of ions in cartesian coordinates  (Angst):
   8.75777323  0.00897021  0.10006361
   8.67214232  0.00799462  4.62305567
   7.35871740  2.32704377  9.68839810
  -1.18672574  2.37367642  4.58015022
   5.89152824  4.88807204  9.67181177
   5.98451210  4.73334247  4.54623689
  -1.65810025  7.59772934  0.06582031
   2.86087738  0.13734785  4.66843580
   1.54009506  2.50072144  0.02948990
   1.41735827  2.30723216  4.54342134
  -0.13100135  4.93457451  0.03339875
   0.05737778  4.90850198  4.61053287
   1.18213424  7.57472981  0.02526304
   5.55089485  0.02901254  4.58204299
   4.15736698  2.43986631  0.02882938
   4.16583929  2.30687946  4.71446442
   2.69358630  4.80451762  9.67219043
   2.74323397  4.86402712  4.69349878
  -0.02405848  1.55418482  0.91858927
   1.39649230  0.86075664  3.61227868
  -0.06255304  1.49479061  5.55026627
   1.29037533  0.84915114  8.40775901
  -1.37335855  4.08398451  0.77940060
   0.02965752  3.24518229  3.63326773
  -1.68817641  4.03056796  5.59201934
   0.19943543  3.23907490  8.30381667
  -2.87640322  6.44606022  1.04149972
  -1.30528128  5.60135875  3.59276206
  -2.73516343  6.62815480  5.48383295
  -1.34102382  5.71045338  8.30761990
   2.75562499  1.63600920  0.96425313
   4.23525843  0.79462029  3.66668727
   2.84945723  1.47195452  5.65219612
   4.20955004  0.77844983  8.18886237
   1.31181440  4.05365189  0.85783406
   2.76685323  3.06106999  3.60680509
   1.48881790  4.05188268  5.72841724
   2.69224315  3.15831768  8.30222696
  -0.01535606  6.50053054  0.87516010
   1.30945235  5.68630222  3.48388949
  -0.17510324  6.46704651  5.65267155
   1.48962066  5.70716387  8.19764237
   5.56689496  1.59193921  0.94027159
   6.88943923  0.80545157  3.76275274
   5.65147693  1.60710290  5.56231801
   7.02095817  0.82543610  8.37428768
   4.08714201  4.02554224  0.89578945
   5.56849012  3.22215068  3.64803804
   4.16002214  4.10327976  5.71815470
   5.54061453  3.27425270  8.44399681
   2.89407066  6.46919708  0.80068076
   4.30605175  5.59928719  3.73035751
   2.74573652  6.40717655  5.58579312
   4.11323185  5.74645696  8.31344804
 


--------------------------------------------------------------------------------------------------------


 k-point  1 :   0.0000 0.0000 0.0000  plane waves:   16385
 k-point  2 :   0.2500 0.0000 0.0000  plane waves:   16470
 k-point  3 :   0.5000 0.0000 0.0000  plane waves:   16488
 k-point  4 :   0.0000 0.2500 0.0000  plane waves:   16470
 k-point  5 :   0.2500 0.2500 0.0000  plane waves:   16468
 k-point  6 :   0.5000 0.2500 0.0000  plane waves:   16468
 k-point  7 :  -0.2500 0.2500 0.0000  plane waves:   16470
 k-point  8 :   0.0000 0.5000 0.0000  plane waves:   16488
 k-point  9 :   0.2500 0.5000 0.0000  plane waves:   16468
 k-point 10 :   0.5000 0.5000 0.0000  plane waves:   16488
 k-point 11 :   0.0000 0.0000 0.3333  plane waves:   16410
 k-point 12 :   0.2500 0.0000 0.3333  plane waves:   16466
 k-point 13 :   0.5000 0.0000 0.3333  plane waves:   16452
 k-point 14 :  -0.2500 0.0000 0.3333  plane waves:   16466
 k-point 15 :   0.0000 0.2500 0.3333  plane waves:   16466
 k-point 16 :   0.2500 0.2500 0.3333  plane waves:   16464
 k-point 17 :   0.5000 0.2500 0.3333  plane waves:   16464
 k-point 18 :  -0.2500 0.2500 0.3333  plane waves:   16466
 k-point 19 :   0.0000 0.5000 0.3333  plane waves:   16452
 k-point 20 :   0.2500 0.5000 0.3333  plane waves:   16464
 k-point 21 :   0.5000 0.5000 0.3333  plane waves:   16452
 k-point 22 :  -0.2500 0.5000 0.3333  plane waves:   16464
 k-point 23 :   0.0000-0.2500 0.3333  plane waves:   16466
 k-point 24 :   0.2500-0.2500 0.3333  plane waves:   16466
 k-point 25 :   0.5000-0.2500 0.3333  plane waves:   16464
 k-point 26 :  -0.2500-0.2500 0.3333  plane waves:   16464

 maximum and minimum number of plane-waves per node :     16488    16385

 maximum number of plane-waves:     16488
 maximum index in each direction: 
   IXMAX=   16   IYMAX=   16   IZMAX=   17
   IXMIN=  -16   IYMIN=  -16   IZMIN=  -18

 The following grids will avoid any aliasing or wrap around errors in the Hartre
 e energy
  - symmetry arguments have not been applied
  - exchange correlation energies might require even more grid points
  - we recommend to set PREC=Normal or Accurate and rely on VASP defaults
 WARNING: aliasing errors must be expected set NGX to    70 to avoid them
 WARNING: aliasing errors must be expected set NGY to    70 to avoid them
 NGZ is ok and might be reduce to    72

 serial   3D FFT for wavefunctions
 parallel 3D FFT for charge:
    minimum data exchange during FFTs selected (reduces bandwidth)


 total amount of memory used by VASP MPI-rank0   192791. kBytes
=======================================================================

   base      :      30000. kBytes
   nonlr-proj:      28699. kBytes
   fftplans  :       6224. kBytes
   grid      :      20201. kBytes
   one-center:        839. kBytes
   wavefun   :     106828. kBytes
 
     INWAV:  cpu time    0.0000: real time    0.0000
 Broyden mixing: mesh for mixing (old mesh)
   NGX = 33   NGY = 33   NGZ = 35
  (NGX  =128   NGY  =128   NGZ  =144)
  gives a total of  38115 points

 initial charge density was supplied:
 charge density of overlapping atoms calculated
 number of electron     396.0000000 magnetization 
 keeping initial charge density in first step


--------------------------------------------------------------------------------------------------------


 Maximum index for non-local projection operator         5930
 Maximum index for augmentation-charges          995 (set IRDMAX)


--------------------------------------------------------------------------------------------------------


 First call to EWALD:  gamma=   0.205
 Maximum number of real-space cells 3x 3x 3
 Maximum number of reciprocal cells 3x 3x 3

    FEWALD:  cpu time    0.0033: real time    0.0033


--------------------------------------- Iteration      1(   1)  ---------------------------------------


    POTLOK:  cpu time    0.0994: real time    0.1093
    SETDIJ:  cpu time    0.0089: real time    0.0089
     EDDAV:  cpu time   33.0601: real time   33.1529
    --------------------------------------------
      LOOP:  cpu time   33.1700: real time   33.2727

 eigenvalue-minimisations  : 12480
 total energy-change (2. order) : 0.5023840E+04  (-0.1758992E+05)
 number of electron     396.0000000 magnetization 
 augmentation part      396.0000000 magnetization 

 Free energy of the ion-electron system (eV)
  ---------------------------------------------------
  alpha Z        PSCENC =      1069.12875734
  Ewald energy   TEWEN  =    -21882.90025694
  -Hartree energ DENC   =    -13494.68875467
  -exchange      EXHF   =         0.00000000
  -V(xc)+E(xc)   XCENC  =      1568.94156966
  PAW double counting   =     29784.60368500   -31040.73694357
  entropy T*S    EENTRO =        -0.00794004
  eigenvalues    EBANDS =      4129.11895262
  atomic energy  EATOM  =     34890.38139807
  Solvation  Ediel_sol  =         0.00000000
  ---------------------------------------------------
  free energy    TOTEN  =      5023.84046746 eV

  energy without entropy =     5023.84840749  energy(sigma->0) =     5023.84443748


--------------------------------------------------------------------------------------------------------




--------------------------------------- Iteration      1(   2)  ---------------------------------------


     EDDAV:  cpu time   34.3032: real time   34.3847
    --------------------------------------------
      LOOP:  cpu time   34.3031: real time   34.3846

 eigenvalue-minimisations  : 12992
 total energy-change (2. order) :-0.4364981E+04  (-0.4080003E+04)
 number of electron     396.0000000 magnetization 
 augmentation part      396.0000000 magnetization 

 Free energy of the ion-electron system (eV)
  ---------------------------------------------------
  alpha Z        PSCENC =      1069.12875734
  Ewald energy   TEWEN  =    -21882.90025694
  -Hartree energ DENC   =    -13494.68875467
  -exchange      EXHF   =         0.00000000
  -V(xc)+E(xc)   XCENC  =      1568.94156966
  PAW double counting   =     29784.60368500   -31040.73694357
  entropy T*S    EENTRO =        -0.03167985
  eigenvalues    EBANDS =      -235.83839683
  atomic energy  EATOM  =     34890.38139807
  Solvation  Ediel_sol  =         0.00000000
  ---------------------------------------------------
  free energy    TOTEN  =       658.85937819 eV

  energy without entropy =      658.89105805  energy(sigma->0) =      658.87521812


--------------------------------------------------------------------------------------------------------




--------------------------------------- Iteration      1(   3)  ---------------------------------------


     EDDAV:  cpu time   34.7842: real time   34.8666
    --------------------------------------------
      LOOP:  cpu time   34.7843: real time   34.8666

 eigenvalue-minimisations  : 13424
 total energy-change (2. order) :-0.1001705E+04  (-0.8799646E+03)
 number of electron     396.0000000 magnetization 
 augmentation part      396.0000000 magnetization 

 Free energy of the ion-electron system (eV)
  ---------------------------------------------------
  alpha Z        PSCENC =      1069.12875734
  Ewald energy   TEWEN  =    -21882.90025694
  -Hartree energ DENC   =    -13494.68875467
  -exchange      EXHF   =         0.00000000
  -V(xc)+E(xc)   XCENC  =      1568.94156966
  PAW double counting   =     29784.60368500   -31040.73694357
  entropy T*S    EENTRO =        -0.01519731
  eigenvalues    EBANDS =     -1237.55949545
  atomic energy  EATOM  =     34890.38139807
  Solvation  Ediel_sol  =         0.00000000
  ---------------------------------------------------
  free energy    TOTEN  =      -342.84523789 eV

  energy without entropy =     -342.83004058  energy(sigma->0) =     -342.83763923


--------------------------------------------------------------------------------------------------------




--------------------------------------- Iteration      1(   4)  ---------------------------------------


     EDDAV:  cpu time   37.5335: real time   37.6225
    --------------------------------------------
      LOOP:  cpu time   37.5334: real time   37.6223

 eigenvalue-minimisations  : 13312
 total energy-change (2. order) :-0.1099049E+03  (-0.1069128E+03)
 number of electron     396.0000000 magnetization 
 augmentation part      396.0000000 magnetization 

 Free energy of the ion-electron system (eV)
  ---------------------------------------------------
  alpha Z        PSCENC =      1069.12875734
  Ewald energy   TEWEN  =    -21882.90025694
  -Hartree energ DENC   =    -13494.68875467
  -exchange      EXHF   =         0.00000000
  -V(xc)+E(xc)   XCENC  =      1568.94156966
  PAW double counting   =     29784.60368500   -31040.73694357
  entropy T*S    EENTRO =        -0.00008464
  eigenvalues    EBANDS =     -1347.47955704
  atomic energy  EATOM  =     34890.38139807
  Solvation  Ediel_sol  =         0.00000000
  ---------------------------------------------------
  free energy    TOTEN  =      -452.75018680 eV

  energy without entropy =     -452.75010217  energy(sigma->0) =     -452.75014448


--------------------------------------------------------------------------------------------------------




--------------------------------------- Iteration      1(   5)  ---------------------------------------


     EDDAV:  cpu time   42.8647: real time   42.9663
    CHARGE:  cpu time    1.7965: real time    1.8008
    MIXING:  cpu time    0.0046: real time    0.0081
    --------------------------------------------
      LOOP:  cpu time   44.6644: real time   44.7738

 eigenvalue-minimisations  : 15712
 total energy-change (2. order) :-0.4235195E+01  (-0.4224113E+01)
 number of electron     396.0000017 magnetization 
 augmentation part      110.9166342 magnetization 

 Broyden mixing:
  rms(total) = 0.11212E+02    rms(broyden)= 0.11209E+02
  rms(prec ) = 0.14635E+02
  weight for this iteration     100.00

 Free energy of the ion-electron system (eV)
  ---------------------------------------------------
  alpha Z        PSCENC =      1069.12875734
  Ewald energy   TEWEN  =    -21882.90025694
  -Hartree energ DENC   =    -13494.68875467
  -exchange      EXHF   =         0.00000000
  -V(xc)+E(xc)   XCENC  =      1568.94156966
  PAW double counting   =     29784.60368500   -31040.73694357
  entropy T*S    EENTRO =        -0.00008144
  eigenvalues    EBANDS =     -1351.71475474
  atomic energy  EATOM  =     34890.38139807
  Solvation  Ediel_sol  =         0.00000000
  ---------------------------------------------------
  free energy    TOTEN  =      -456.98538131 eV

  energy without entropy =     -456.98529987  energy(sigma->0) =     -456.98534059


--------------------------------------------------------------------------------------------------------




--------------------------------------- Iteration      1(   6)  ---------------------------------------


    POTLOK:  cpu time    0.0772: real time    0.0774
    SETDIJ:  cpu time    0.0085: real time    0.0086
     EDDAV:  cpu time   49.7153: real time   49.8329
    CHARGE:  cpu time    1.6415: real time    1.6453
    MIXING:  cpu time    0.0028: real time    0.0028
    --------------------------------------------
      LOOP:  cpu time   51.4453: real time   51.5670

 eigenvalue-minimisations  : 19568
 total energy-change (2. order) :-0.2549825E+03  (-0.1495224E+03)
 number of electron     396.0000023 magnetization 
 augmentation part      158.2741749 magnetization 

 Broyden mixing:
  rms(total) = 0.24398E+02    rms(broyden)= 0.24396E+02
  rms(prec ) = 0.28344E+02
  weight for this iteration     100.00

 eigenvalues of (default mixing * dielectric matrix)
  average eigenvalue GAMMA=   0.1660
  0.1660

 Free energy of the ion-electron system (eV)
  ---------------------------------------------------
  alpha Z        PSCENC =      1069.12875734
  Ewald energy   TEWEN  =    -21882.90025694
  -Hartree energ DENC   =    -12685.32182188
  -exchange      EXHF   =         0.00000000
  -V(xc)+E(xc)   XCENC  =      1562.43701882
  PAW double counting   =     31560.27668229   -32575.37870549
  entropy T*S    EENTRO =        -0.03218036
  eigenvalues    EBANDS =     -2650.55880245
  atomic energy  EATOM  =     34890.38139807
  Solvation  Ediel_sol  =         0.00000000
  ---------------------------------------------------
  free energy    TOTEN  =      -711.96791062 eV

  energy without entropy =     -711.93573026  energy(sigma->0) =     -711.95182044


--------------------------------------------------------------------------------------------------------




--------------------------------------- Iteration      1(   7)  ---------------------------------------


    POTLOK:  cpu time    0.0778: real time    0.0780
    SETDIJ:  cpu time    0.0090: real time    0.0090
     EDDAV:  cpu time   41.9145: real time   42.0136
    CHARGE:  cpu time    1.5783: real time    1.5821
    MIXING:  cpu time    0.0026: real time    0.0026
    --------------------------------------------
      LOOP:  cpu time   43.5823: real time   43.6853

 eigenvalue-minimisations  : 16736
 total energy-change (2. order) : 0.2989989E+03  (-0.3979710E+02)
 number of electron     396.0000019 magnetization 
 augmentation part      147.1762858 magnetization 

 Broyden mixing:
  rms(total) = 0.11343E+02    rms(broyden)= 0.11342E+02
  rms(prec ) = 0.14599E+02
  weight for this iteration     100.00

 eigenvalues of (default mixing * dielectric matrix)
  average eigenvalue GAMMA=   0.4521
  0.4521  0.4521

 Free energy of the ion-electron system (eV)
  ---------------------------------------------------
  alpha Z        PSCENC =      1069.12875734
  Ewald energy   TEWEN  =    -21882.90025694
  -Hartree energ DENC   =    -12987.12748205
  -exchange      EXHF   =         0.00000000
  -V(xc)+E(xc)   XCENC  =      1566.56956251
  PAW double counting   =     32803.56418572   -33956.76870635
  entropy T*S    EENTRO =        -0.05780465
  eigenvalues    EBANDS =     -1915.75863221
  atomic energy  EATOM  =     34890.38139807
  Solvation  Ediel_sol  =         0.00000000
  ---------------------------------------------------
  free energy    TOTEN  =      -412.96897856 eV

  energy without entropy =     -412.91117392  energy(sigma->0) =     -412.94007624


--------------------------------------------------------------------------------------------------------




--------------------------------------- Iteration      1(   8)  ---------------------------------------


    POTLOK:  cpu time    0.0682: real time    0.0684
    SETDIJ:  cpu time    0.0084: real time    0.0085
     EDDAV:  cpu time   48.5677: real time   48.6829
    CHARGE:  cpu time    1.8403: real time    1.8446
    MIXING:  cpu time    0.0028: real time    0.0028
    --------------------------------------------
      LOOP:  cpu time   50.4875: real time   50.6071

 eigenvalue-minimisations  : 20432
 total energy-change (2. order) : 0.2851125E+02  (-0.3233704E+02)
 number of electron     396.0000021 magnetization 
 augmentation part      143.6837788 magnetization 

 Broyden mixing:
  rms(total) = 0.10843E+02    rms(broyden)= 0.10841E+02
  rms(prec ) = 0.16791E+02
  weight for this iteration     100.00

 eigenvalues of (default mixing * dielectric matrix)
  average eigenvalue GAMMA=   0.4501
  0.5770  0.5770  0.1963

 Free energy of the ion-electron system (eV)
  ---------------------------------------------------
  alpha Z        PSCENC =      1069.12875734
  Ewald energy   TEWEN  =    -21882.90025694
  -Hartree energ DENC   =    -13056.93789638
  -exchange      EXHF   =         0.00000000
  -V(xc)+E(xc)   XCENC  =      1564.08055969
  PAW double counting   =     33466.33148543   -34707.15277947
  entropy T*S    EENTRO =        -0.04280837
  eigenvalues    EBANDS =     -1727.34619023
  atomic energy  EATOM  =     34890.38139807
  Solvation  Ediel_sol  =         0.00000000
  ---------------------------------------------------
  free energy    TOTEN  =      -384.45773087 eV

  energy without entropy =     -384.41492250  energy(sigma->0) =     -384.43632668


--------------------------------------------------------------------------------------------------------




--------------------------------------- Iteration      1(   9)  ---------------------------------------


    POTLOK:  cpu time    0.0763: real time    0.0764
    SETDIJ:  cpu time    0.0089: real time    0.0089
     EDDAV:  cpu time   45.5937: real time   45.7016
    CHARGE:  cpu time    1.8153: real time    1.8196
    MIXING:  cpu time    0.0029: real time    0.0029
    --------------------------------------------
      LOOP:  cpu time   47.4971: real time   47.6095

 eigenvalue-minimisations  : 17664
 total energy-change (2. order) : 0.3219785E+02  (-0.3795986E+02)
 number of electron     396.0000013 magnetization 
 augmentation part      120.6399995 magnetization 

 Broyden mixing:
  rms(total) = 0.87958E+01    rms(broyden)= 0.87939E+01
  rms(prec ) = 0.13455E+02
  weight for this iteration     100.00

 eigenvalues of (default mixing * dielectric matrix)
  average eigenvalue GAMMA=   0.3906
  0.5930  0.5930  0.2088  0.1674

 Free energy of the ion-electron system (eV)
  ---------------------------------------------------
  alpha Z        PSCENC =      1069.12875734
  Ewald energy   TEWEN  =    -21882.90025694
  -Hartree energ DENC   =    -13192.26559690
  -exchange      EXHF   =         0.00000000
  -V(xc)+E(xc)   XCENC  =      1562.79209206
  PAW double counting   =     34337.10796441   -35627.92799775
  entropy T*S    EENTRO =        -0.08600205
  eigenvalues    EBANDS =     -1508.49023779
  atomic energy  EATOM  =     34890.38139807
  Solvation  Ediel_sol  =         0.00000000
  ---------------------------------------------------
  free energy    TOTEN  =      -352.25987956 eV

  energy without entropy =     -352.17387751  energy(sigma->0) =     -352.21687854


--------------------------------------------------------------------------------------------------------




--------------------------------------- Iteration      1(  10)  ---------------------------------------


    POTLOK:  cpu time    0.0748: real time    0.0749
    SETDIJ:  cpu time    0.0083: real time    0.0083
     EDDAV:  cpu time   44.9903: real time   45.0969
    CHARGE:  cpu time    1.8246: real time    1.8289
    MIXING:  cpu time    0.0031: real time    0.0032
    --------------------------------------------
      LOOP:  cpu time   46.9011: real time   47.0122

 eigenvalue-minimisations  : 16688
 total energy-change (2. order) :-0.2562042E+01  (-0.1694696E+02)
 number of electron     396.0000012 magnetization 
 augmentation part      119.6134101 magnetization 

 Broyden mixing:
  rms(total) = 0.10135E+02    rms(broyden)= 0.10134E+02
  rms(prec ) = 0.15432E+02
  weight for this iteration     100.00

 eigenvalues of (default mixing * dielectric matrix)
  average eigenvalue GAMMA=   0.3842
  0.9196  0.3574  0.3574  0.2171  0.0692

 Free energy of the ion-electron system (eV)
  ---------------------------------------------------
  alpha Z        PSCENC =      1069.12875734
  Ewald energy   TEWEN  =    -21882.90025694
  -Hartree energ DENC   =    -13167.80803002
  -exchange      EXHF   =         0.00000000
  -V(xc)+E(xc)   XCENC  =      1561.95805126
  PAW double counting   =     34720.18710558   -36017.21559300
  entropy T*S    EENTRO =        -0.08184159
  eigenvalues    EBANDS =     -1528.47151256
  atomic energy  EATOM  =     34890.38139807
  Solvation  Ediel_sol  =         0.00000000
  ---------------------------------------------------
  free energy    TOTEN  =      -354.82192187 eV

  energy without entropy =     -354.74008028  energy(sigma->0) =     -354.78100108


--------------------------------------------------------------------------------------------------------




--------------------------------------- Iteration      1(  11)  ---------------------------------------


    POTLOK:  cpu time    0.0782: real time    0.0783
    SETDIJ:  cpu time    0.0087: real time    0.0087
     EDDAV:  cpu time   47.3740: real time   47.4862
    CHARGE:  cpu time    1.5922: real time    1.5959
    MIXING:  cpu time    0.0032: real time    0.0032
    --------------------------------------------
      LOOP:  cpu time   49.0562: real time   49.1724

 eigenvalue-minimisations  : 18112
 total energy-change (2. order) : 0.1036355E+02  (-0.1618981E+02)
 number of electron     396.0000012 magnetization 
 augmentation part      120.9341316 magnetization 

 Broyden mixing:
  rms(total) = 0.92366E+01    rms(broyden)= 0.92362E+01
  rms(prec ) = 0.13421E+02
  weight for this iteration     100.00

 eigenvalues of (default mixing * dielectric matrix)
  average eigenvalue GAMMA=   0.3719
  1.1368  0.3669  0.3669  0.2211  0.0805  0.0593

 Free energy of the ion-electron system (eV)
  ---------------------------------------------------
  alpha Z        PSCENC =      1069.12875734
  Ewald energy   TEWEN  =    -21882.90025694
  -Hartree energ DENC   =    -13135.19061129
  -exchange      EXHF   =         0.00000000
  -V(xc)+E(xc)   XCENC  =      1561.18882162
  PAW double counting   =     35158.92938589   -36459.45569714
  entropy T*S    EENTRO =        -0.07624466
  eigenvalues    EBANDS =     -1546.46392843
  atomic energy  EATOM  =     34890.38139807
  Solvation  Ediel_sol  =         0.00000000
  ---------------------------------------------------
  free energy    TOTEN  =      -344.45837555 eV

  energy without entropy =     -344.38213089  energy(sigma->0) =     -344.42025322


--------------------------------------------------------------------------------------------------------




--------------------------------------- Iteration      1(  12)  ---------------------------------------


    POTLOK:  cpu time    0.0787: real time    0.0789
    SETDIJ:  cpu time    0.0086: real time    0.0086
     EDDAV:  cpu time   43.1110: real time   43.2130
    CHARGE:  cpu time    1.6416: real time    1.6455
    MIXING:  cpu time    0.0030: real time    0.0030
    --------------------------------------------
      LOOP:  cpu time   44.8429: real time   44.9490

 eigenvalue-minimisations  : 17536
 total energy-change (2. order) : 0.2224793E+02  (-0.1002247E+02)
 number of electron     396.0000016 magnetization 
 augmentation part      124.2879572 magnetization 

 Broyden mixing:
  rms(total) = 0.45698E+01    rms(broyden)= 0.45688E+01
  rms(prec ) = 0.64616E+01
  weight for this iteration     100.00

 eigenvalues of (default mixing * dielectric matrix)
  average eigenvalue GAMMA=   0.3543
  1.2181  0.3616  0.3616  0.2518  0.1340  0.0957  0.0576

 Free energy of the ion-electron system (eV)
  ---------------------------------------------------
  alpha Z        PSCENC =      1069.12875734
  Ewald energy   TEWEN  =    -21882.90025694
  -Hartree energ DENC   =    -13105.49327133
  -exchange      EXHF   =         0.00000000
  -V(xc)+E(xc)   XCENC  =      1560.74556998
  PAW double counting   =     35485.38860870   -36787.45410186
  entropy T*S    EENTRO =        -0.05098391
  eigenvalues    EBANDS =     -1551.95616847
  atomic energy  EATOM  =     34890.38139807
  Solvation  Ediel_sol  =         0.00000000
  ---------------------------------------------------
  free energy    TOTEN  =      -322.21044842 eV

  energy without entropy =     -322.15946452  energy(sigma->0) =     -322.18495647


--------------------------------------------------------------------------------------------------------




--------------------------------------- Iteration      1(  13)  ---------------------------------------


    POTLOK:  cpu time    0.0680: real time    0.0681
    SETDIJ:  cpu time    0.0082: real time    0.0082
     EDDAV:  cpu time   40.7606: real time   40.8572
    CHARGE:  cpu time    1.6338: real time    1.6376
    MIXING:  cpu time    0.0035: real time    0.0035
    --------------------------------------------
      LOOP:  cpu time   42.4741: real time   42.5747

 eigenvalue-minimisations  : 16288
 total energy-change (2. order) : 0.6709989E+01  (-0.3024972E+01)
 number of electron     396.0000018 magnetization 
 augmentation part      125.6993700 magnetization 

 Broyden mixing:
  rms(total) = 0.32787E+01    rms(broyden)= 0.32781E+01
  rms(prec ) = 0.46360E+01
  weight for this iteration     100.00

 eigenvalues of (default mixing * dielectric matrix)
  average eigenvalue GAMMA=   0.3805
  1.3621  0.4170  0.4170  0.4088  0.1900  0.1092  0.0798  0.0600

 Free energy of the ion-electron system (eV)
  ---------------------------------------------------
  alpha Z        PSCENC =      1069.12875734
  Ewald energy   TEWEN  =    -21882.90025694
  -Hartree energ DENC   =    -13092.45287984
  -exchange      EXHF   =         0.00000000
  -V(xc)+E(xc)   XCENC  =      1560.67052474
  PAW double counting   =     35617.61960404   -36920.28671360
  entropy T*S    EENTRO =        -0.03757063
  eigenvalues    EBANDS =     -1557.62332228
  atomic energy  EATOM  =     34890.38139807
  Solvation  Ediel_sol  =         0.00000000
  ---------------------------------------------------
  free energy    TOTEN  =      -315.50045911 eV

  energy without entropy =     -315.46288847  energy(sigma->0) =     -315.48167379


--------------------------------------------------------------------------------------------------------




--------------------------------------- Iteration      1(  14)  ---------------------------------------


    POTLOK:  cpu time    0.0753: real time    0.0755
    SETDIJ:  cpu time    0.0087: real time    0.0087
     EDDAV:  cpu time   47.8043: real time   47.9174
    CHARGE:  cpu time    1.7983: real time    1.8026
    MIXING:  cpu time    0.0039: real time    0.0039
    --------------------------------------------
      LOOP:  cpu time   49.6905: real time   49.8081

 eigenvalue-minimisations  : 19536
 total energy-change (2. order) : 0.3283343E+01  (-0.3406256E+01)
 number of electron     396.0000016 magnetization 
 augmentation part      127.3919494 magnetization 

 Broyden mixing:
  rms(total) = 0.33920E+01    rms(broyden)= 0.33916E+01
  rms(prec ) = 0.50376E+01
  weight for this iteration     100.00

 eigenvalues of (default mixing * dielectric matrix)
  average eigenvalue GAMMA=   0.3626
  1.4334  0.4310  0.4310  0.3846  0.1763  0.1763  0.0926  0.0785  0.0598

 Free energy of the ion-electron system (eV)
  ---------------------------------------------------
  alpha Z        PSCENC =      1069.12875734
  Ewald energy   TEWEN  =    -21882.90025694
  -Hartree energ DENC   =    -13071.98411946
  -exchange      EXHF   =         0.00000000
  -V(xc)+E(xc)   XCENC  =      1560.64745863
  PAW double counting   =     35854.64095720   -37154.43996296
  entropy T*S    EENTRO =        -0.06566524
  eigenvalues    EBANDS =     -1577.62568272
  atomic energy  EATOM  =     34890.38139807
  Solvation  Ediel_sol  =         0.00000000
  ---------------------------------------------------
  free energy    TOTEN  =      -312.21711609 eV

  energy without entropy =     -312.15145086  energy(sigma->0) =     -312.18428347


--------------------------------------------------------------------------------------------------------




--------------------------------------- Iteration      1(  15)  ---------------------------------------


    POTLOK:  cpu time    0.0756: real time    0.0757
    SETDIJ:  cpu time    0.0086: real time    0.0086
     EDDAV:  cpu time   47.2824: real time   47.3943
    CHARGE:  cpu time    1.7855: real time    1.7897
    MIXING:  cpu time    0.0039: real time    0.0039
    --------------------------------------------
      LOOP:  cpu time   49.1560: real time   49.2723

 eigenvalue-minimisations  : 17728
 total energy-change (2. order) : 0.3580441E+01  (-0.2855574E+01)
 number of electron     396.0000017 magnetization 
 augmentation part      128.4879930 magnetization 

 Broyden mixing:
  rms(total) = 0.14844E+01    rms(broyden)= 0.14839E+01
  rms(prec ) = 0.20755E+01
  weight for this iteration     100.00

 eigenvalues of (default mixing * dielectric matrix)
  average eigenvalue GAMMA=   0.3647
  1.4300  0.4716  0.4716  0.3566  0.3566  0.2116  0.1180  0.0967  0.0607  0.0734

 Free energy of the ion-electron system (eV)
  ---------------------------------------------------
  alpha Z        PSCENC =      1069.12875734
  Ewald energy   TEWEN  =    -21882.90025694
  -Hartree energ DENC   =    -13065.62610317
  -exchange      EXHF   =         0.00000000
  -V(xc)+E(xc)   XCENC  =      1560.66823350
  PAW double counting   =     35953.57607789   -37251.54977120
  entropy T*S    EENTRO =        -0.00721866
  eigenvalues    EBANDS =     -1582.30779241
  atomic energy  EATOM  =     34890.38139807
  Solvation  Ediel_sol  =         0.00000000
  ---------------------------------------------------
  free energy    TOTEN  =      -308.63667559 eV

  energy without entropy =     -308.62945693  energy(sigma->0) =     -308.63306626


--------------------------------------------------------------------------------------------------------




--------------------------------------- Iteration      1(  16)  ---------------------------------------


    POTLOK:  cpu time    0.0772: real time    0.0774
    SETDIJ:  cpu time    0.0085: real time    0.0085
     EDDAV:  cpu time   51.1463: real time   51.2675
    CHARGE:  cpu time    1.8004: real time    1.8046
    MIXING:  cpu time    0.0049: real time    0.0134
    --------------------------------------------
      LOOP:  cpu time   53.0372: real time   53.1714

 eigenvalue-minimisations  : 19136
 total energy-change (2. order) : 0.1011600E+01  (-0.2489673E+00)
 number of electron     396.0000019 magnetization 
 augmentation part      128.7705534 magnetization 

 Broyden mixing:
  rms(total) = 0.12087E+01    rms(broyden)= 0.12085E+01
  rms(prec ) = 0.16508E+01
  weight for this iteration     100.00

 eigenvalues of (default mixing * dielectric matrix)
  average eigenvalue GAMMA=   0.3729
  1.4809  0.5423  0.5423  0.3903  0.3903  0.2240  0.1663  0.1339  0.0963  0.0605
  0.0745

 Free energy of the ion-electron system (eV)
  ---------------------------------------------------
  alpha Z        PSCENC =      1069.12875734
  Ewald energy   TEWEN  =    -21882.90025694
  -Hartree energ DENC   =    -13063.83174858
  -exchange      EXHF   =         0.00000000
  -V(xc)+E(xc)   XCENC  =      1560.78973907
  PAW double counting   =     36019.06285473   -37316.87083907
  entropy T*S    EENTRO =        -0.01093014
  eigenvalues    EBANDS =     -1583.37404983
  atomic energy  EATOM  =     34890.38139807
  Solvation  Ediel_sol  =         0.00000000
  ---------------------------------------------------
  free energy    TOTEN  =      -307.62507534 eV

  energy without entropy =     -307.61414521  energy(sigma->0) =     -307.61961028


--------------------------------------------------------------------------------------------------------




--------------------------------------- Iteration      1(  17)  ---------------------------------------


    POTLOK:  cpu time    0.0773: real time    0.0775
    SETDIJ:  cpu time    0.0084: real time    0.0084
     EDDAV:  cpu time   44.7723: real time   44.8782
    CHARGE:  cpu time    1.8068: real time    1.8111
    MIXING:  cpu time    0.0042: real time    0.0042
    --------------------------------------------
      LOOP:  cpu time   46.6689: real time   46.7794

 eigenvalue-minimisations  : 18576
 total energy-change (2. order) : 0.5530596E+00  (-0.1851927E+00)
 number of electron     396.0000018 magnetization 
 augmentation part      129.3054257 magnetization 

 Broyden mixing:
  rms(total) = 0.94836E+00    rms(broyden)= 0.94820E+00
  rms(prec ) = 0.13099E+01
  weight for this iteration     100.00

 eigenvalues of (default mixing * dielectric matrix)
  average eigenvalue GAMMA=   0.4011
  1.5609  0.6977  0.6977  0.4160  0.4160  0.2946  0.1890  0.1890  0.1210  0.0605
  0.0744  0.0960

 Free energy of the ion-electron system (eV)
  ---------------------------------------------------
  alpha Z        PSCENC =      1069.12875734
  Ewald energy   TEWEN  =    -21882.90025694
  -Hartree energ DENC   =    -13060.57209109
  -exchange      EXHF   =         0.00000000
  -V(xc)+E(xc)   XCENC  =      1560.84413890
  PAW double counting   =     36122.52071448   -37420.02378442
  entropy T*S    EENTRO =        -0.02018916
  eigenvalues    EBANDS =     -1586.43070291
  atomic energy  EATOM  =     34890.38139807
  Solvation  Ediel_sol  =         0.00000000
  ---------------------------------------------------
  free energy    TOTEN  =      -307.07201575 eV

  energy without entropy =     -307.05182659  energy(sigma->0) =     -307.06192117


--------------------------------------------------------------------------------------------------------




--------------------------------------- Iteration      1(  18)  ---------------------------------------


    POTLOK:  cpu time    0.0762: real time    0.0764
    SETDIJ:  cpu time    0.0086: real time    0.0086
     EDDAV:  cpu time   46.4798: real time   46.5899
    CHARGE:  cpu time    1.6477: real time    1.6517
    MIXING:  cpu time    0.0043: real time    0.0043
    --------------------------------------------
      LOOP:  cpu time   48.2166: real time   48.3309

 eigenvalue-minimisations  : 18592
 total energy-change (2. order) : 0.2753726E+00  (-0.1700633E+00)
 number of electron     396.0000018 magnetization 
 augmentation part      129.6880638 magnetization 

 Broyden mixing:
  rms(total) = 0.81536E+00    rms(broyden)= 0.81517E+00
  rms(prec ) = 0.11290E+01
  weight for this iteration     100.00

 eigenvalues of (default mixing * dielectric matrix)
  average eigenvalue GAMMA=   0.4292
  1.6717  0.8666  0.8666  0.4313  0.4313  0.3929  0.2315  0.2001  0.0605  0.0744
  0.0958  0.1325  0.1242

 Free energy of the ion-electron system (eV)
  ---------------------------------------------------
  alpha Z        PSCENC =      1069.12875734
  Ewald energy   TEWEN  =    -21882.90025694
  -Hartree energ DENC   =    -13056.96258680
  -exchange      EXHF   =         0.00000000
  -V(xc)+E(xc)   XCENC  =      1560.89037558
  PAW double counting   =     36235.25021270   -37532.46561764
  entropy T*S    EENTRO =        -0.02115742
  eigenvalues    EBANDS =     -1590.09776799
  atomic energy  EATOM  =     34890.38139807
  Solvation  Ediel_sol  =         0.00000000
  ---------------------------------------------------
  free energy    TOTEN  =      -306.79664311 eV

  energy without entropy =     -306.77548569  energy(sigma->0) =     -306.78606440


--------------------------------------------------------------------------------------------------------




--------------------------------------- Iteration      1(  19)  ---------------------------------------


    POTLOK:  cpu time    0.0768: real time    0.0770
    SETDIJ:  cpu time    0.0091: real time    0.0091
     EDDAV:  cpu time   47.5844: real time   47.6971
    CHARGE:  cpu time    1.8002: real time    1.8045
    MIXING:  cpu time    0.0042: real time    0.0042
    --------------------------------------------
      LOOP:  cpu time   49.4748: real time   49.5919

 eigenvalue-minimisations  : 19152
 total energy-change (2. order) : 0.1601466E+00  (-0.1414439E+00)
 number of electron     396.0000018 magnetization 
 augmentation part      130.0225651 magnetization 

 Broyden mixing:
  rms(total) = 0.65635E+00    rms(broyden)= 0.65613E+00
  rms(prec ) = 0.90258E+00
  weight for this iteration     100.00

 eigenvalues of (default mixing * dielectric matrix)
  average eigenvalue GAMMA=   0.4444
  1.8032  0.9250  0.9250  0.5685  0.4328  0.4328  0.2792  0.1914  0.1781  0.0605
  0.0744  0.0958  0.1340  0.1207

 Free energy of the ion-electron system (eV)
  ---------------------------------------------------
  alpha Z        PSCENC =      1069.12875734
  Ewald energy   TEWEN  =    -21882.90025694
  -Hartree energ DENC   =    -13055.68876788
  -exchange      EXHF   =         0.00000000
  -V(xc)+E(xc)   XCENC  =      1561.00523331
  PAW double counting   =     36359.34044591   -37656.82975013
  entropy T*S    EENTRO =        -0.02198985
  eigenvalues    EBANDS =     -1591.05156629
  atomic energy  EATOM  =     34890.38139807
  Solvation  Ediel_sol  =         0.00000000
  ---------------------------------------------------
  free energy    TOTEN  =      -306.63649648 eV

  energy without entropy =     -306.61450663  energy(sigma->0) =     -306.62550156


--------------------------------------------------------------------------------------------------------




--------------------------------------- Iteration      1(  20)  ---------------------------------------


    POTLOK:  cpu time    0.0762: real time    0.0764
    SETDIJ:  cpu time    0.0088: real time    0.0088
     EDDAV:  cpu time   49.5788: real time   49.6963
    CHARGE:  cpu time    1.7850: real time    1.7893
    MIXING:  cpu time    0.0047: real time    0.0047
    --------------------------------------------
      LOOP:  cpu time   51.4535: real time   51.5754

 eigenvalue-minimisations  : 18416
 total energy-change (2. order) : 0.8767468E-01  (-0.1144531E+00)
 number of electron     396.0000018 magnetization 
 augmentation part      130.2142179 magnetization 

 Broyden mixing:
  rms(total) = 0.55499E+00    rms(broyden)= 0.55485E+00
  rms(prec ) = 0.77521E+00
  weight for this iteration     100.00

 eigenvalues of (default mixing * dielectric matrix)
  average eigenvalue GAMMA=   0.4449
  1.9285  0.8742  0.8742  0.7273  0.4285  0.4285  0.3683  0.2016  0.2016  0.1678
  0.0605  0.0744  0.0958  0.1209  0.1209

 Free energy of the ion-electron system (eV)
  ---------------------------------------------------
  alpha Z        PSCENC =      1069.12875734
  Ewald energy   TEWEN  =    -21882.90025694
  -Hartree energ DENC   =    -13057.44467226
  -exchange      EXHF   =         0.00000000
  -V(xc)+E(xc)   XCENC  =      1561.15491583
  PAW double counting   =     36457.64801929   -37755.58666786
  entropy T*S    EENTRO =        -0.03873117
  eigenvalues    EBANDS =     -1588.89158408
  atomic energy  EATOM  =     34890.38139807
  Solvation  Ediel_sol  =         0.00000000
  ---------------------------------------------------
  free energy    TOTEN  =      -306.54882180 eV

  energy without entropy =     -306.51009063  energy(sigma->0) =     -306.52945621


--------------------------------------------------------------------------------------------------------




--------------------------------------- Iteration      1(  21)  ---------------------------------------


    POTLOK:  cpu time    0.0755: real time    0.0757
    SETDIJ:  cpu time    0.0090: real time    0.0090
     EDDAV:  cpu time   49.7438: real time   49.8616
    CHARGE:  cpu time    1.8482: real time    1.8526
    MIXING:  cpu time    0.0051: real time    0.0051
    --------------------------------------------
      LOOP:  cpu time   51.6816: real time   51.8039

 eigenvalue-minimisations  : 18592
 total energy-change (2. order) : 0.7844989E-01  (-0.6888983E-01)
 number of electron     396.0000019 magnetization 
 augmentation part      130.1737869 magnetization 

 Broyden mixing:
  rms(total) = 0.35371E+00    rms(broyden)= 0.35357E+00
  rms(prec ) = 0.49027E+00
  weight for this iteration     100.00

 eigenvalues of (default mixing * dielectric matrix)
  average eigenvalue GAMMA=   0.4571
  2.0878  0.9034  0.9034  0.6478  0.6478  0.4217  0.4217  0.2380  0.2183  0.2063
  0.0605  0.0744  0.1443  0.0958  0.1252  0.1170

 Free energy of the ion-electron system (eV)
  ---------------------------------------------------
  alpha Z        PSCENC =      1069.12875734
  Ewald energy   TEWEN  =    -21882.90025694
  -Hartree energ DENC   =    -13059.36199000
  -exchange      EXHF   =         0.00000000
  -V(xc)+E(xc)   XCENC  =      1561.25969757
  PAW double counting   =     36519.53307062   -37817.82828463
  entropy T*S    EENTRO =        -0.01554828
  eigenvalues    EBANDS =     -1586.66721565
  atomic energy  EATOM  =     34890.38139807
  Solvation  Ediel_sol  =         0.00000000
  ---------------------------------------------------
  free energy    TOTEN  =      -306.47037191 eV

  energy without entropy =     -306.45482363  energy(sigma->0) =     -306.46259777


--------------------------------------------------------------------------------------------------------




--------------------------------------- Iteration      1(  22)  ---------------------------------------


    POTLOK:  cpu time    0.0797: real time    0.0799
    SETDIJ:  cpu time    0.0095: real time    0.0095
     EDDAV:  cpu time   46.0246: real time   46.1335
    CHARGE:  cpu time    1.7929: real time    1.7972
    MIXING:  cpu time    0.0051: real time    0.0051
    --------------------------------------------
      LOOP:  cpu time   47.9118: real time   48.0252

 eigenvalue-minimisations  : 19200
 total energy-change (2. order) : 0.4261453E-01  (-0.2133903E-01)
 number of electron     396.0000018 magnetization 
 augmentation part      130.1740811 magnetization 

 Broyden mixing:
  rms(total) = 0.25092E+00    rms(broyden)= 0.25084E+00
  rms(prec ) = 0.35205E+00
  weight for this iteration     100.00

 eigenvalues of (default mixing * dielectric matrix)
  average eigenvalue GAMMA=   0.4891
  2.3306  1.0880  1.0880  0.6902  0.6902  0.4256  0.4256  0.3198  0.2494  0.1944
  0.1944  0.0605  0.0744  0.1464  0.0958  0.1178  0.1227

 Free energy of the ion-electron system (eV)
  ---------------------------------------------------
  alpha Z        PSCENC =      1069.12875734
  Ewald energy   TEWEN  =    -21882.90025694
  -Hartree energ DENC   =    -13060.12905241
  -exchange      EXHF   =         0.00000000
  -V(xc)+E(xc)   XCENC  =      1561.27887872
  PAW double counting   =     36562.92769919   -37861.46831440
  entropy T*S    EENTRO =        -0.02610440
  eigenvalues    EBANDS =     -1585.62076254
  atomic energy  EATOM  =     34890.38139807
  Solvation  Ediel_sol  =         0.00000000
  ---------------------------------------------------
  free energy    TOTEN  =      -306.42775737 eV

  energy without entropy =     -306.40165297  energy(sigma->0) =     -306.41470517


--------------------------------------------------------------------------------------------------------




--------------------------------------- Iteration      1(  23)  ---------------------------------------


    POTLOK:  cpu time    0.0763: real time    0.0765
    SETDIJ:  cpu time    0.0085: real time    0.0085
     EDDAV:  cpu time   44.7177: real time   44.8236
    CHARGE:  cpu time    1.6762: real time    1.6802
    MIXING:  cpu time    0.0053: real time    0.0053
    --------------------------------------------
      LOOP:  cpu time   46.4840: real time   46.5941

 eigenvalue-minimisations  : 17952
 total energy-change (2. order) :-0.2771649E-02  (-0.1232712E-01)
 number of electron     396.0000018 magnetization 
 augmentation part      130.2432427 magnetization 

 Broyden mixing:
  rms(total) = 0.24532E+00    rms(broyden)= 0.24528E+00
  rms(prec ) = 0.33287E+00
  weight for this iteration     100.00

 eigenvalues of (default mixing * dielectric matrix)
  average eigenvalue GAMMA=   0.5047
  2.5191  1.1891  1.1891  0.7385  0.7385  0.4293  0.4293  0.3729  0.2830  0.2102
  0.1867  0.1867  0.0605  0.0744  0.0958  0.1419  0.1235  0.1168

 Free energy of the ion-electron system (eV)
  ---------------------------------------------------
  alpha Z        PSCENC =      1069.12875734
  Ewald energy   TEWEN  =    -21882.90025694
  -Hartree energ DENC   =    -13059.37718113
  -exchange      EXHF   =         0.00000000
  -V(xc)+E(xc)   XCENC  =      1561.25801847
  PAW double counting   =     36604.35432338   -37902.88930516
  entropy T*S    EENTRO =        -0.02152552
  eigenvalues    EBANDS =     -1586.36475752
  atomic energy  EATOM  =     34890.38139807
  Solvation  Ediel_sol  =         0.00000000
  ---------------------------------------------------
  free energy    TOTEN  =      -306.43052902 eV

  energy without entropy =     -306.40900350  energy(sigma->0) =     -306.41976626


--------------------------------------------------------------------------------------------------------




--------------------------------------- Iteration      1(  24)  ---------------------------------------


    POTLOK:  cpu time    0.0770: real time    0.0772
    SETDIJ:  cpu time    0.0091: real time    0.0091
     EDDAV:  cpu time   44.8858: real time   44.9920
    CHARGE:  cpu time    1.8424: real time    1.8468
    MIXING:  cpu time    0.0060: real time    0.0060
    --------------------------------------------
      LOOP:  cpu time   46.8204: real time   46.9312

 eigenvalue-minimisations  : 18032
 total energy-change (2. order) : 0.1226849E-01  (-0.6298701E-02)
 number of electron     396.0000018 magnetization 
 augmentation part      130.2942348 magnetization 

 Broyden mixing:
  rms(total) = 0.19356E+00    rms(broyden)= 0.19353E+00
  rms(prec ) = 0.27097E+00
  weight for this iteration     100.00

 eigenvalues of (default mixing * dielectric matrix)
  average eigenvalue GAMMA=   0.5119
  2.5769  1.2336  1.2336  0.7853  0.7853  0.4302  0.4302  0.4500  0.3645  0.2420
  0.2049  0.2049  0.1688  0.0605  0.0744  0.0958  0.1445  0.1231  0.1172

 Free energy of the ion-electron system (eV)
  ---------------------------------------------------
  alpha Z        PSCENC =      1069.12875734
  Ewald energy   TEWEN  =    -21882.90025694
  -Hartree energ DENC   =    -13058.96491145
  -exchange      EXHF   =         0.00000000
  -V(xc)+E(xc)   XCENC  =      1561.23090889
  PAW double counting   =     36634.52712152   -37933.01230239
  entropy T*S    EENTRO =        -0.02212148
  eigenvalues    EBANDS =     -1586.78685410
  atomic energy  EATOM  =     34890.38139807
  Solvation  Ediel_sol  =         0.00000000
  ---------------------------------------------------
  free energy    TOTEN  =      -306.41826054 eV

  energy without entropy =     -306.39613906  energy(sigma->0) =     -306.40719980


--------------------------------------------------------------------------------------------------------




--------------------------------------- Iteration      1(  25)  ---------------------------------------


    POTLOK:  cpu time    0.0752: real time    0.0754
    SETDIJ:  cpu time    0.0086: real time    0.0086
     EDDAV:  cpu time   48.5873: real time   48.7023
    CHARGE:  cpu time    1.8214: real time    1.8258
    MIXING:  cpu time    0.0056: real time    0.0056
    --------------------------------------------
      LOOP:  cpu time   50.4981: real time   50.6176

 eigenvalue-minimisations  : 18000
 total energy-change (2. order) : 0.1054563E-01  (-0.3712845E-02)
 number of electron     396.0000018 magnetization 
 augmentation part      130.2200125 magnetization 

 Broyden mixing:
  rms(total) = 0.15943E+00    rms(broyden)= 0.15940E+00
  rms(prec ) = 0.22199E+00
  weight for this iteration     100.00

 eigenvalues of (default mixing * dielectric matrix)
  average eigenvalue GAMMA=   0.5217
  2.5442  1.2511  1.2511  1.0988  0.6855  0.6855  0.4276  0.4276  0.4026  0.2717
  0.2235  0.1939  0.1939  0.0605  0.0744  0.1633  0.0958  0.1418  0.1233  0.1171

 Free energy of the ion-electron system (eV)
  ---------------------------------------------------
  alpha Z        PSCENC =      1069.12875734
  Ewald energy   TEWEN  =    -21882.90025694
  -Hartree energ DENC   =    -13059.62210150
  -exchange      EXHF   =         0.00000000
  -V(xc)+E(xc)   XCENC  =      1561.22219312
  PAW double counting   =     36640.16165808   -37938.65537331
  entropy T*S    EENTRO =        -0.02224484
  eigenvalues    EBANDS =     -1586.10174492
  atomic energy  EATOM  =     34890.38139807
  Solvation  Ediel_sol  =         0.00000000
  ---------------------------------------------------
  free energy    TOTEN  =      -306.40771491 eV

  energy without entropy =     -306.38547007  energy(sigma->0) =     -306.39659249


--------------------------------------------------------------------------------------------------------




--------------------------------------- Iteration      1(  26)  ---------------------------------------


    POTLOK:  cpu time    0.0743: real time    0.0745
    SETDIJ:  cpu time    0.0086: real time    0.0086
     EDDAV:  cpu time   48.9027: real time   49.0186
    CHARGE:  cpu time    1.8274: real time    1.8317
    MIXING:  cpu time    0.0057: real time    0.0057
    --------------------------------------------
      LOOP:  cpu time   50.8187: real time   50.9391

 eigenvalue-minimisations  : 17968
 total energy-change (2. order) : 0.9629947E-02  (-0.2160039E-02)
 number of electron     396.0000018 magnetization 
 augmentation part      130.1202114 magnetization 

 Broyden mixing:
  rms(total) = 0.11123E+00    rms(broyden)= 0.11121E+00
  rms(prec ) = 0.15508E+00
  weight for this iteration     100.00

 eigenvalues of (default mixing * dielectric matrix)
  average eigenvalue GAMMA=   0.5291
  2.5833  1.3686  1.3686  1.1922  0.6908  0.6908  0.4269  0.4269  0.4614  0.2761
[...]
  0.092  -0.577   0.097   0.087   0.688  -0.094   0.683  -0.109  -0.070  -0.756   0.298  -0.074   0.451   0.057   0.046  -0.075
 -0.006  -0.336   0.178  -0.068   0.273  -0.003   0.399  -0.167   0.080  -0.312   0.199  -0.049   0.057   0.258  -0.038  -0.012
  0.128  -0.008  -0.112  -0.040   0.001  -0.134  -0.001   0.111   0.074   0.009  -0.001   0.002   0.046  -0.038   0.290  -0.007
 -0.011   0.119  -0.030  -0.001  -0.129   0.015  -0.138   0.026   0.003   0.142  -0.064   0.020  -0.075  -0.012  -0.007   0.018
  0.000   0.069  -0.015   0.011  -0.047   0.002  -0.076   0.023  -0.013   0.057  -0.042   0.012  -0.012  -0.037   0.007   0.004
 -0.008   0.000   0.007   0.025   0.009   0.020   0.002  -0.013  -0.025  -0.006   0.002  -0.001  -0.007   0.007  -0.043   0.002


------------------------ aborting loop because EDIFF is reached ----------------------------------------


    CHARGE:  cpu time    1.7434: real time    1.7475
    FORLOC:  cpu time    0.0338: real time    0.0339
    FORNL :  cpu time   10.4121: real time   10.4369
    STRESS:  cpu time   31.3539: real time   31.4281
    FORCOR:  cpu time    0.0995: real time    0.0997
    FORHAR:  cpu time    0.0467: real time    0.0468
    MIXING:  cpu time    0.0084: real time    0.0085
    OFIELD:  cpu time    0.0001: real time    0.0001

  FORCE on cell =-STRESS in cart. coord.  units (eV):
  Direction    XX          YY          ZZ          XY          YZ          ZX
  --------------------------------------------------------------------------------------
  Alpha Z  1069.12876  1069.12876  1069.12876
  Ewald   -2799.15120 -2481.09774-16602.79188   -13.19253    26.95092     9.81224
  Hartree  7696.74897  7789.52710 -2423.79070   -81.65007    -7.28913     4.79253
  E(xc)   -1997.38597 -1997.26515 -2000.33137     0.01492    -0.15936     0.09954
  Local  -12451.56615-12819.93841 11329.29753   106.94526   -13.13853    -9.15625
  n-local  -906.34912  -902.67392  -913.85366     2.43630     4.30235    -1.09100
  augment  3376.24307  3347.27061  3413.92824    -6.70681    -3.18699    -3.55172
  Kinetic  5951.94931  5938.84690  6057.25326    -7.58333    -0.63123    -4.22301
  Fock        0.00000     0.00000     0.00000     0.00000     0.00000     0.00000
  -------------------------------------------------------------------------------------
  Total      -60.3823489    -56.2018641    -71.1598238      0.2637401      6.8480150     -3.3176740
  in kB     -149.1048347   -138.7817766   -175.7181355      0.6512653     16.9101096     -8.1924807
  external PRESSURE =    -154.5349156 kB  Pullay stress =       0.0000000 kB


 VOLUME and BASIS-vectors are now :
 -----------------------------------------------------------------------------
  energy-cutoff  :      500.00
  volume of cell :      648.83
      direct lattice vectors                 reciprocal lattice vectors
     8.781013500  0.000000000  0.000000000     0.113882071  0.065749844  0.000000000
    -4.390506750  7.604580760  0.000000000     0.000000000  0.131499688  0.000000000
     0.000000000  0.000000000  9.716479500     0.000000000  0.000000000  0.102917934

  length of vectors
     8.781013500  8.781013498  9.716479500     0.131499688  0.131499688  0.102917934


 FORCES acting on ions
    electron-ion (+dipol)            ewald-force                    non-local-force                 convergence-correction
 -----------------------------------------------------------------------------------------------
   0.532E+02 0.168E+03 0.741E+02   -.540E+02 -.171E+03 -.759E+02   0.124E+00 -.369E+00 -.198E+01   -.111E-01 -.130E-01 0.296E-01
   0.617E+02 0.245E+03 -.240E+02   -.611E+02 -.251E+03 0.240E+02   -.428E+00 0.911E+00 -.729E+00   0.545E-02 0.164E-01 -.175E-01
   0.106E+03 0.105E+02 0.100E+03   -.107E+03 -.113E+02 -.103E+03   -.567E+00 0.146E+01 -.512E+00   -.863E-02 -.139E-01 0.203E-01
   0.187E+03 -.149E+02 -.450E+02   -.192E+03 0.161E+02 0.449E+02   -.104E+01 -.283E-01 0.544E+00   0.109E-01 -.469E-02 -.127E-01
   0.973E+02 -.405E+02 0.110E+03   -.981E+02 0.405E+02 -.112E+03   -.681E+00 0.130E+00 -.435E+00   -.165E-01 0.518E-02 0.302E-01
   0.119E+03 -.136E+03 -.134E+02   -.123E+03 0.139E+03 0.112E+02   -.938E-01 0.513E+00 0.180E+01   0.120E-01 0.175E-02 -.132E-01
   -.604E+01 0.124E+03 0.986E+02   0.540E+01 -.126E+03 -.997E+02   0.137E+01 0.319E-01 -.169E+01   0.180E-01 0.117E-01 0.372E-01
   0.527E+02 0.270E+03 -.152E+02   -.545E+02 -.279E+03 0.147E+02   0.127E+01 0.594E+00 -.199E+01   -.341E-02 0.135E-01 -.169E-01
   0.111E+03 0.804E+02 0.641E+02   -.115E+03 -.816E+02 -.684E+02   -.516E+00 -.519E+00 -.622E+00   0.256E-01 0.159E-01 0.307E-01
   0.588E+02 -.616E+02 -.114E+03   -.583E+02 0.660E+02 0.114E+03   -.592E+00 -.782E+00 0.251E+01   -.199E-02 -.852E-02 -.163E-01
   0.163E+01 -.609E+02 0.132E+03   -.272E+00 0.623E+02 -.136E+03   0.140E+01 -.802E+00 -.220E+01   0.371E-01 0.170E-01 0.354E-01
   0.394E+02 -.116E+02 -.129E+03   -.396E+02 0.138E+02 0.129E+03   -.120E+01 -.197E+01 0.791E+00   0.377E-02 -.424E-02 -.221E-01
   -.110E+03 0.275E+02 0.871E+02   0.111E+03 -.271E+02 -.891E+02   0.270E+00 -.121E+01 -.194E+01   -.335E-03 -.128E-01 0.316E-01
   -.126E+03 0.172E+03 -.867E+02   0.128E+03 -.175E+03 0.884E+02   0.402E-01 -.496E+00 0.119E+00   -.350E-02 0.654E-02 -.214E-01
   -.141E+03 0.230E+02 0.104E+03   0.145E+03 -.222E+02 -.106E+03   -.198E+01 -.126E+01 -.181E+01   -.155E-01 -.170E-02 0.342E-01
   -.119E+03 -.166E+03 -.116E+03   0.122E+03 0.172E+03 0.116E+03   -.983E+00 -.155E+01 -.476E+00   -.117E-01 -.188E-01 -.195E-01
   -.952E+02 -.171E+03 0.987E+02   0.976E+02 0.175E+03 -.102E+03   -.528E+00 -.160E+01 -.168E+01   -.943E-02 -.105E-02 0.336E-01
   -.935E+02 -.996E+02 0.214E+02   0.964E+02 0.101E+03 -.214E+02   -.268E+00 -.836E+00 -.180E+01   -.151E-01 -.315E-02 -.281E-01
   0.412E+02 0.107E+02 -.265E+03   -.385E+02 -.468E+01 0.291E+03   -.264E+01 -.488E+01 -.258E+02   0.157E-01 0.673E-02 0.495E-01
   0.597E+02 0.156E+03 0.348E+03   -.607E+02 -.165E+03 -.375E+03   0.754E+00 0.597E+01 0.276E+02   0.372E-02 0.265E-02 0.195E-01
   0.205E+02 0.439E+02 -.455E+03   -.162E+02 -.430E+02 0.487E+03   -.290E+01 -.431E+00 -.312E+02   -.934E-03 0.209E-02 -.341E-01
   0.395E+02 0.923E+02 0.321E+03   -.399E+02 -.914E+02 -.340E+03   0.817E+00 -.130E+01 0.230E+02   0.105E-01 0.721E-02 -.231E-01
   0.977E+02 0.531E+02 -.249E+03   -.104E+03 -.581E+02 0.276E+03   0.340E+01 0.327E+01 -.266E+02   0.142E-01 0.969E-02 0.470E-01
   0.353E+02 -.346E+02 0.328E+03   -.332E+02 0.398E+02 -.355E+03   -.124E+01 -.500E+01 0.275E+02   0.152E-02 -.227E-02 0.186E-01
   -.135E+02 0.181E+02 -.410E+03   0.186E+02 -.213E+02 0.436E+03   -.190E+01 0.210E+01 -.266E+02   0.643E-02 -.524E-02 -.307E-01
   0.942E+02 0.921E+01 0.306E+03   -.946E+02 -.835E+01 -.321E+03   -.195E+00 -.106E+01 0.195E+02   0.156E-01 0.426E-02 -.231E-01
   0.593E+02 0.222E+02 -.231E+03   -.613E+02 -.233E+02 0.253E+03   0.177E+01 0.223E+01 -.250E+02   0.635E-02 0.859E-02 0.464E-01
   0.765E+02 -.679E+02 0.284E+03   -.786E+02 0.759E+02 -.304E+03   0.128E+01 -.798E+01 0.210E+02   0.713E-02 0.264E-02 0.152E-01
   0.997E+02 0.810E+02 -.315E+03   -.104E+03 -.870E+02 0.334E+03   0.321E+01 0.650E+01 -.200E+02   0.551E-02 0.119E-01 -.289E-01
   0.605E+02 -.333E+02 0.295E+03   -.606E+02 0.362E+02 -.311E+03   -.686E+00 -.310E+01 0.209E+02   0.114E-01 0.877E-02 -.219E-01
   -.309E+02 0.727E+02 -.286E+03   0.330E+02 -.749E+02 0.316E+03   -.109E+01 0.144E+01 -.296E+02   0.431E-02 0.483E-02 0.323E-01
   -.304E+02 0.421E+02 0.382E+03   0.300E+02 -.409E+02 -.414E+03   -.171E-01 -.792E+00 0.311E+02   -.103E-01 -.208E-02 0.982E-02
   0.388E+02 -.241E+02 -.472E+03   -.431E+02 0.311E+02 0.506E+03   0.330E+01 -.402E+01 -.322E+02   -.457E-02 -.740E-02 -.323E-01
   -.228E+02 0.353E+02 0.253E+03   0.228E+02 -.353E+02 -.269E+03   -.106E+00 0.972E-01 0.200E+02   0.486E-02 -.136E-02 -.111E-01
   0.357E+02 -.570E+02 -.289E+03   -.386E+02 0.594E+02 0.318E+03   0.311E+01 -.174E+01 -.283E+02   0.103E-01 0.394E-02 0.328E-01
   -.581E+02 -.998E+02 0.319E+03   0.626E+02 0.105E+03 -.344E+03   -.383E+01 -.410E+01 0.265E+02   -.728E-02 -.403E-02 0.798E-02
   0.456E+02 0.869E+01 -.374E+03   -.484E+02 -.127E+02 0.400E+03   0.140E+01 0.348E+01 -.273E+02   -.303E-02 -.260E-02 -.300E-01
   -.586E+02 -.135E+02 0.339E+03   0.604E+02 0.139E+02 -.361E+03   -.112E+01 -.174E-01 0.255E+02   -.895E-03 0.794E-03 -.131E-01
   0.169E+02 -.419E+02 -.233E+03   -.200E+02 0.438E+02 0.259E+03   0.194E+01 -.119E+00 -.255E+02   0.159E-01 0.109E-01 0.295E-01
   -.729E+02 -.814E+02 0.297E+03   0.766E+02 0.857E+02 -.319E+03   -.327E+01 -.402E+01 0.244E+02   -.227E-02 -.473E-02 0.848E-02
   0.561E+01 0.142E+01 -.358E+03   -.763E+01 -.917E+00 0.380E+03   0.284E+01 0.811E+00 -.239E+02   -.332E-02 0.183E-03 -.293E-01
   0.578E+01 -.830E+02 0.253E+03   -.669E+01 0.853E+02 -.268E+03   0.638E+00 -.238E+01 0.187E+02   0.236E-02 0.463E-02 -.923E-02
   -.856E+02 -.207E+02 -.234E+03   0.901E+02 0.246E+02 0.257E+03   -.412E+01 -.401E+01 -.240E+02   -.153E-01 -.199E-01 0.316E-01
   -.587E+02 0.462E+02 0.294E+03   0.611E+02 -.453E+02 -.318E+03   0.207E+00 -.127E+01 0.233E+02   0.559E-02 0.499E-02 0.866E-02
   -.119E+03 -.382E+02 -.386E+03   0.128E+03 0.435E+02 0.409E+03   -.957E+01 -.581E+01 -.223E+02   0.340E-02 0.555E-03 -.241E-01
   -.184E+02 0.419E+02 0.290E+03   0.184E+02 -.455E+02 -.308E+03   0.206E+00 0.386E+01 0.215E+02   -.150E-01 -.166E-01 -.225E-01
   -.109E+03 -.103E+03 -.256E+03   0.114E+03 0.109E+03 0.281E+03   -.450E+01 -.566E+01 -.254E+02   -.169E-01 -.437E-02 0.349E-01
   -.297E+02 0.129E+02 0.289E+03   0.298E+02 -.201E+02 -.310E+03   0.377E+00 0.676E+01 0.214E+02   0.258E-02 -.419E-02 0.116E-01
   -.962E+02 -.626E+02 -.337E+03   0.102E+03 0.651E+02 0.357E+03   -.571E+01 -.352E+01 -.220E+02   -.494E-02 -.277E-02 -.251E-01
   -.538E+02 -.642E+01 0.293E+03   0.544E+02 0.396E+01 -.311E+03   0.672E-01 0.273E+01 0.217E+02   -.139E-01 -.108E-01 -.227E-01
   -.216E+02 -.623E+02 -.204E+03   0.203E+02 0.646E+02 0.223E+03   0.671E+00 -.124E+01 -.196E+02   -.221E-01 -.704E-02 0.302E-01
   -.249E+02 -.678E+02 0.240E+03   0.260E+02 0.693E+02 -.257E+03   -.116E+01 -.467E+00 0.178E+02   -.358E-02 0.384E-02 0.592E-02
   -.421E+02 -.109E+03 -.313E+03   0.414E+02 0.117E+03 0.334E+03   0.673E+00 -.551E+01 -.223E+02   0.141E-04 0.123E-02 -.255E-01
   -.636E+02 -.620E+02 0.250E+03   0.637E+02 0.635E+02 -.263E+03   0.312E+00 -.171E+01 0.168E+02   -.138E-01 -.216E-02 -.182E-01
 -----------------------------------------------------------------------------------------------
   0.214E+02 0.387E+02 0.614E+02   0.519E-12 -.355E-12 0.000E+00   -.215E+02 -.387E+02 -.616E+02   0.249E-01 0.892E-02 0.130E+00
 
 
 POSITION                                       TOTAL-FORCE (eV/Angst)
 -----------------------------------------------------------------------------------
      8.75777      0.00897      0.10006        -0.624010     -3.204725     -3.724268
      8.67214      0.00799      4.62306         0.189728     -4.917126     -0.720701
      7.35872      2.32704      9.68840        -1.361886      0.680909     -2.830248
     -1.18673      2.37368      4.58015        -6.355116      1.166189      0.448055
      5.89153      4.88807      9.67181        -1.571177      0.121463     -2.494215
      5.98451      4.73334      4.54624        -4.069087      3.430590     -0.415769
     -1.65810      7.59773      0.06582         0.741533     -1.568604     -2.703044
      2.86088      0.13735      4.66844        -0.562337     -8.055108     -2.525148
      1.54010      2.50072      0.02949        -3.987317     -1.660203     -4.838577
      1.41736      2.30723      4.54342        -0.140582      3.599790      2.958147
     -0.13100      4.93457      0.03340         2.799496      0.625987     -6.130575
      0.05738      4.90850      4.61053        -1.399162      0.170174      0.637595
      1.18213      7.57473      0.02526         1.858876     -0.780456     -3.885609
      5.55089      0.02901      4.58204         2.037548     -3.200578      1.802250
      4.15737      2.43987      0.02883         1.551089     -0.431987     -3.849543
      4.16584      2.30688      4.71446         2.315633      4.203511     -0.820472
      2.69359      4.80452      9.67219         1.875228      2.823377     -4.466531
      2.74323      4.86403      4.69350         2.688259      0.202226     -1.804026
     -0.02406      1.55418      0.91859         0.063013      1.120767      0.001349
      1.39649      0.86076      3.61228        -0.219228     -2.341214      0.084202
     -0.06255      1.49479      5.55027         1.395546      0.435524      0.502739
      1.29038      0.84915      8.40776         0.478728     -0.373320      4.267416
     -1.37336      4.08398      0.77940        -2.628475     -1.748314      0.998803
      0.02966      3.24518      3.63327         0.946613      0.209211      0.507636
     -1.68818      4.03057      5.59202         3.235173     -1.149493     -0.298678
      0.19944      3.23907      8.30382        -0.533112     -0.188081      3.886703
     -2.87640      6.44606      1.04150        -0.269994      1.138043     -2.102861
     -1.30528      5.60136      3.59276        -0.781285     -0.021409      0.768604
     -2.73516      6.62815      5.48383        -1.521475      0.455457     -0.881990
     -1.34102      5.71045      8.30762        -0.687153     -0.116495      4.043032
      2.75562      1.63601      0.96425         0.979624     -0.778285      0.098489
      4.23526      0.79462      3.66669        -0.432185      0.401445     -0.137526
      2.84946      1.47195      5.65220        -1.023263      2.962784      1.248195
      4.20955      0.77845      8.18886        -0.108207      0.026253      4.439125
      1.31181      4.05365      0.85783         0.264135      0.676245      0.924843
      2.76685      3.06107      3.60681         0.622201      0.921123      1.633124
      1.48882      4.05188      5.72842        -1.421774     -0.542766     -2.140549
      2.69224      3.15832      8.30223         0.634267      0.404499      3.991050
     -0.01536      6.50053      0.87516        -1.115511      1.799081      0.236088
      1.30945      5.68630      3.48389         0.448290      0.230839      2.558590
     -0.17510      6.46705      5.65267         0.819976      1.312220     -1.914436
      1.48962      5.70716      8.19764        -0.273508     -0.089400      3.982640
      5.56689      1.59194      0.94027         0.418561     -0.144851     -0.961995
      6.88944      0.80545      3.76275         2.617994     -0.391180     -0.717745
      5.65148      1.60710      5.56232        -0.077646     -0.531275      0.110556
      7.02096      0.82544      8.37429         0.279968      0.211741      4.125336
      4.08714      4.02554      0.89579         0.792442      0.436655     -0.338161
      5.56849      3.22215      3.64804         0.488223     -0.488259      0.836462
      4.16002      4.10328      5.71815         0.212615     -1.066514     -1.798186
      5.54061      3.27425      8.44400         0.615506      0.262146      3.720598
      2.89407      6.46920      0.80068        -0.629074      1.050718     -0.176127
      4.30605      5.59929      3.73036        -0.006069      0.975992      1.035070
      2.74574      6.40718      5.58579         0.001465      2.027894     -0.901652
      4.11323      5.74646      8.31345         0.426903     -0.293210      3.731937
 -----------------------------------------------------------------------------------
    total drift:                               -0.019321      0.012210     -0.009023


--------------------------------------------------------------------------------------------------------



  FREE ENERGIE OF THE ION-ELECTRON SYSTEM (eV)
  ---------------------------------------------------
  free  energy   TOTEN  =      -306.3889507794 eV

  energy  without entropy=     -306.3683324445  energy(sigma->0) =     -306.37864161
 


--------------------------------------------------------------------------------------------------------


    POTLOK:  cpu time    0.0818: real time    0.0820


--------------------------------------------------------------------------------------------------------


     LOOP+:  cpu time 1764.6216: real time 1769.0428
    4ORBIT:  cpu time    0.0000: real time    0.0000

volume of typ            1:    17.7 %

volume of typ            2:     9.0 %
 
total charge     
 
# of ion       s       p       d       tot
------------------------------------------
    1        0.236   0.249   7.812   8.297
    2        0.235   0.253   7.825   8.313
    3        0.226   0.239   7.814   8.280
    4        0.286   0.334   7.853   8.473
    5        0.224   0.237   7.794   8.255
    6        0.284   0.345   7.792   8.421
    7        0.223   0.227   7.818   8.269
    8        0.305   0.390   7.850   8.545
    9        0.282   0.361   7.817   8.460
   10        0.297   0.387   7.838   8.522
   11        0.292   0.360   7.818   8.470
   12        0.275   0.343   7.796   8.414
   13        0.236   0.253   7.795   8.285
   14        0.279   0.339   7.821   8.439
   15        0.263   0.315   7.797   8.375
   16        0.285   0.379   7.808   8.472
   17        0.264   0.325   7.784   8.373
   18        0.281   0.357   7.780   8.417
   19        1.282   2.714   0.009   4.005
   20        1.289   2.710   0.009   4.008
   21        1.286   2.741   0.012   4.038
   22        1.309   2.582   0.003   3.894
   23        1.280   2.739   0.011   4.029
   24        1.286   2.713   0.009   4.008
   25        1.296   2.685   0.009   3.989
   26        1.315   2.559   0.002   3.876
   27        1.290   2.652   0.005   3.947
   28        1.296   2.649   0.005   3.950
   29        1.295   2.643   0.005   3.943
   30        1.312   2.565   0.003   3.879
   31        1.282   2.728   0.010   4.021
   32        1.286   2.739   0.011   4.036
   33        1.292   2.733   0.013   4.038
   34        1.315   2.547   0.002   3.864
   35        1.280   2.741   0.010   4.031
   36        1.291   2.685   0.007   3.983
   37        1.294   2.666   0.006   3.967
   38        1.313   2.587   0.004   3.904
   39        1.283   2.704   0.008   3.996
   40        1.298   2.636   0.005   3.939
   41        1.298   2.638   0.005   3.941
   42        1.318   2.540   0.002   3.860
   43        1.288   2.668   0.006   3.963
   44        1.287   2.700   0.008   3.994
   45        1.296   2.662   0.006   3.965
   46        1.309   2.573   0.003   3.885
   47        1.290   2.679   0.007   3.977
   48        1.295   2.657   0.005   3.957
   49        1.303   2.614   0.004   3.922
   50        1.307   2.585   0.003   3.894
   51        1.287   2.656   0.005   3.947
   52        1.290   2.640   0.003   3.933
   53        1.299   2.635   0.005   3.939
   54        1.316   2.539   0.002   3.857
--------------------------------------------------
tot          51.43  101.20  140.84  293.46
 

 total amount of memory used by VASP MPI-rank0   192791. kBytes
=======================================================================

   base      :      30000. kBytes
   nonlr-proj:      28699. kBytes
   fftplans  :       6224. kBytes
   grid      :      20201. kBytes
   one-center:        839. kBytes
   wavefun   :     106828. kBytes
 
  
  
 General timing and accounting informations for this job:
 ========================================================
  
                  Total CPU time used (sec):     1793.366
                            User time (sec):     1790.231
                          System time (sec):        3.135
                         Elapsed time (sec):     1801.768
  
                   Maximum memory used (kb):      263452.
                   Average memory used (kb):           0.
  
                          Minor page faults:        39237
                          Major page faults:           49
                 Voluntary context switches:         1196
