 vasp.5.4.4.18Apr17-6-g9f103f2a35 (build May 12 2020 04:58:55) complex          
  
 MD_VERSION_INFO: Compiled 2020-05-12T11:58:55-UTC in devlin.sd.materialsdesign.
 com:/home/medea2/data/build/wwolf/vasp-gpu5.4.4/13047/x86_64/src/src/build/std 
 from svn 13047
 
 This VASP executable licensed from Materials Design, Inc.
 
 executed on                        Lin64 date 2023.04.27  08:06:03
 running on   16 total cores
 distrk:  each k-point on   16 cores,    1 groups
 distr:  one band on NCORES_PER_BAND=   1 cores,   16 groups


--------------------------------------------------------------------------------------------------------


 INCAR:
 POTCAR:    PAW_PBE Ni 02Aug2007                  
 POTCAR:    PAW_PBE O 08Apr2002                   

 ----------------------------------------------------------------------------- 
|                                                                             |
|           W    W    AA    RRRRR   N    N  II  N    N   GGGG   !!!           |
|           W    W   A  A   R    R  NN   N  II  NN   N  G    G  !!!           |
|           W    W  A    A  R    R  N N  N  II  N N  N  G       !!!           |
|           W WW W  AAAAAA  RRRRR   N  N N  II  N  N N  G  GGG   !            |
|           WW  WW  A    A  R   R   N   NN  II  N   NN  G    G                |
|           W    W  A    A  R    R  N    N  II  N    N   GGGG   !!!           |
|                                                                             |
|      For optimal performance we recommend to set                            |
|        NCORE= 4 - approx SQRT( number of cores)                             |
|      NCORE specifies how many cores store one orbital (NPAR=cpu/NCORE).     |
|      This setting can  greatly improve the performance of VASP for DFT.     |
|      The default,   NCORE=1            might be grossly inefficient         |
|      on modern multi-core architectures or massively parallel machines.     |
|      Do your own testing !!!!                                               |
|      Unfortunately you need to use the default for GW and RPA calculations. |
|      (for HF NCORE is supported but not extensively tested yet)             |
|                                                                             |
 ----------------------------------------------------------------------------- 

 POTCAR:    PAW_PBE Ni 02Aug2007                  
  local pseudopotential read in
  partial core-charges read in
  partial kinetic energy density read in
  atomic valenz-charges read in
  non local Contribution for L=           2  read in
    real space projection operators read in
  non local Contribution for L=           2  read in
    real space projection operators read in
  non local Contribution for L=           0  read in
    real space projection operators read in
  non local Contribution for L=           0  read in
    real space projection operators read in
  non local Contribution for L=           1  read in
    real space projection operators read in
  non local Contribution for L=           1  read in
    real space projection operators read in
    PAW grid and wavefunctions read in
 
   number of l-projection  operators is LMAX  =           6
   number of lm-projection operators is LMMAX =          18
 
 POTCAR:    PAW_PBE O 08Apr2002                   
  local pseudopotential read in
  partial core-charges read in
  partial kinetic energy density read in
  kinetic energy density of atom read in
  atomic valenz-charges read in
  non local Contribution for L=           0  read in
    real space projection operators read in
  non local Contribution for L=           0  read in
    real space projection operators read in
  non local Contribution for L=           1  read in
    real space projection operators read in
  non local Contribution for L=           1  read in
    real space projection operators read in
    PAW grid and wavefunctions read in
 
   number of l-projection  operators is LMAX  =           4
   number of lm-projection operators is LMMAX =           8
 
 Optimization of the real space projectors (new method)

 maximal supplied QI-value         = 16.25
 optimisation between [QCUT,QGAM] = [ 11.38, 22.75] = [ 36.24,144.96] Ry 
 Optimized for a Real-space Cutoff    1.47 Angstroem

   l    n(q)    QCUT    max X(q) W(low)/X(q) W(high)/X(q)  e(spline) 
   2      9    11.376    60.317    0.17E-03    0.16E-04    0.16E-06
   2      9    11.376    55.921    0.17E-03    0.16E-04    0.17E-06
   0     10    11.376    51.690    0.45E-04    0.60E-04    0.21E-06
   0     10    11.376    30.015    0.37E-04    0.55E-04    0.19E-06
   1     10    11.376    18.849    0.83E-04    0.11E-03    0.92E-07
   1     10    11.376    14.624    0.69E-04    0.92E-04    0.82E-07
 Optimization of the real space projectors (new method)

 maximal supplied QI-value         = 24.76
 optimisation between [QCUT,QGAM] = [ 11.39, 22.77] = [ 36.31,145.25] Ry 
 Optimized for a Real-space Cutoff    1.10 Angstroem

   l    n(q)    QCUT    max X(q) W(low)/X(q) W(high)/X(q)  e(spline) 
   0      7    11.387    20.381    0.22E-03    0.48E-03    0.18E-06
   0      7    11.387    15.268    0.22E-03    0.52E-03    0.19E-06
   1      7    11.387     5.964    0.22E-03    0.73E-03    0.24E-06
   1      7    11.387     5.382    0.19E-03    0.60E-03    0.21E-06

 ----------------------------------------------------------------------------- 
|                                                                             |
|  ADVICE TO THIS USER RUNNING 'VASP/VAMP'   (HEAR YOUR MASTER'S VOICE ...):  |
|                                                                             |
|      You enforced a specific xc-type in the INCAR file,                     |
|      a different type was found on the POTCAR file                          |
|          I HOPE YOU KNOW, WHAT YOU ARE  DOING                               |
|                                                                             |
 ----------------------------------------------------------------------------- 

  PAW_PBE Ni 02Aug2007                  :
 energy of atom  1       EATOM=-1077.6739
 kinetic energy error for atom=    0.0030 (will be added to EATOM!!)
  PAW_PBE O 08Apr2002                   :
 energy of atom  2       EATOM= -432.3788
 kinetic energy error for atom=    0.0224 (will be added to EATOM!!)
 
 
 POSCAR: NiO2_C2_m_scale_1_025_disp_0_10_round_1 
  positions in direct lattice
  No initial velocities read in
 exchange correlation table for  LEXCH =       14
   RHO(1)=    0.500       N(1)  =     2000
   RHO(2)=  100.500       N(2)  =     4000
 


--------------------------------------------------------------------------------------------------------


 ion  position               nearest neighbor table
   1  0.992  0.998  0.993-  19 1.82  51 1.99  54 2.08  22 2.12  46 2.15  27 2.16   3 2.71   7 2.83
                            17 2.90   9 2.93   5 2.97  13 3.08
   2  0.998  0.975  0.483-  29 1.90  52 1.95  20 2.05  21 2.10  53 2.11  44 2.35   8 2.72  10 2.78
                             6 2.82  18 2.91   4 2.95
   3  0.030  0.332  0.007-  23 1.72  19 1.83  26 1.91  46 1.99  43 2.17  50 2.30  11 2.61   9 2.67
                             1 2.71   5 2.92
   4  0.013  0.326  0.491-  44 1.61  25 1.67  24 1.71  21 1.88  45 2.06  48 2.08  12 2.59  10 2.66
                             6 2.81  14 2.91   2 2.95  16 3.08
   5  0.013  0.662  0.989-  30 1.77  27 1.82  23 1.91  54 2.06  47 2.16  50 2.22   7 2.67  11 2.73
                             3 2.92   1 2.97  15 3.04  17 3.07
   6  0.995  0.645  0.493-  25 1.84  52 1.85  48 1.90  49 1.90  28 1.91  29 1.91  12 2.76   4 2.81
                             2 2.82  16 2.84   8 2.95  18 3.02
   7  0.314  0.983  0.003-  27 1.73  31 1.79  39 1.99  30 2.14  22 2.20  34 2.24  13 2.67   5 2.67
                             1 2.83  15 2.87   9 2.88  11 2.93
   8  0.327  0.000  0.501-  29 1.72  32 1.73  33 1.79  41 1.90  20 2.02  28 2.13  10 2.69   2 2.72
                            14 2.73  16 2.79   6 2.95
   9  0.341  0.331  0.016-  35 1.61  31 1.89  22 2.06  38 2.07  19 2.09  26 2.16   3 2.67  15 2.69
                            17 2.77  11 2.79   7 2.88   1 2.93
  10  0.312  0.307  0.502-  20 1.68  33 1.70  21 1.74  24 1.88  37 1.90  36 2.09   4 2.66   8 2.69
                             2 2.78  12 2.80  16 2.85  18 2.92
  11  0.323  0.646  0.991-  23 1.80  39 1.82  30 1.85  26 1.85  35 1.99  42 2.01   3 2.61   5 2.73
                            17 2.77   9 2.79  13 2.82   7 2.93
  12  0.311  0.632  0.490-  25 1.68  28 1.76  40 1.77  37 1.82  24 1.90  41 1.92   4 2.59   6 2.76
                            10 2.80  18 2.80
  13  0.630  0.993  0.001-  39 1.71  43 1.77  34 1.87  42 2.01  51 2.03  46 2.16   7 2.67  15 2.73
                            11 2.82  17 2.96   1 3.08
  14  0.652  0.014  0.498-  45 1.74  32 1.84  41 1.87  44 2.02  53 2.04  40 2.34  16 2.66   8 2.73
                             4 2.91
  15  0.648  0.319  0.006-  31 1.78  43 1.87  47 1.89  38 1.93  50 2.02  34 2.04   9 2.69  13 2.73
                             7 2.87  17 2.90   5 3.04
  16  0.654  0.325  0.495-  48 1.76  45 1.80  49 1.93  36 2.01  33 2.05  32 2.15  14 2.66   8 2.79
                            18 2.83   6 2.84  10 2.85   4 3.08
  17  0.653  0.660  0.987-  54 1.84  51 1.85  42 1.88  47 1.99  35 2.01  38 2.15   9 2.77  11 2.77
                            15 2.90   1 2.90  13 2.96   5 3.07
  18  0.647  0.651  0.476-  36 1.78  53 1.79  52 1.88  37 1.90  40 1.96  49 2.01  12 2.80  16 2.83
                             2 2.91  10 2.92   6 3.02
  19  0.088  0.189  0.113-   1 1.82   3 1.83   9 2.09
  20  0.239  0.138  0.384-  10 1.68   8 2.02   2 2.05
  21  0.114  0.216  0.600-  10 1.74   4 1.88   2 2.10
  22  0.226  0.131  0.866-   9 2.06   1 2.12   7 2.20
  23  0.115  0.540  0.087-   3 1.72  11 1.80   5 1.91
  24  0.204  0.409  0.391-   4 1.71  10 1.88  12 1.90
  25  0.108  0.528  0.567-   4 1.67  12 1.68   6 1.84
  26  0.224  0.444  0.876-  11 1.85   3 1.91   9 2.16
  27  0.117  0.865  0.098-   7 1.73   5 1.82   1 2.16
  28  0.221  0.748  0.398-  12 1.76   6 1.91   8 2.13
  29  0.121  0.875  0.581-   8 1.72   2 1.90   6 1.91
  30  0.208  0.739  0.883-   5 1.77  11 1.85   7 2.14
  31  0.438  0.194  0.093-  15 1.78   7 1.79   9 1.89
  32  0.508  0.070  0.389-   8 1.73  14 1.84  16 2.15
  33  0.410  0.208  0.596-  10 1.70   8 1.79  16 2.05
  34  0.562  0.109  0.868-  13 1.87  15 2.04   7 2.24
  35  0.425  0.519  0.100-   9 1.61  11 1.99  17 2.01
  36  0.546  0.444  0.380-  18 1.78  16 2.01  10 2.09
  37  0.432  0.540  0.585-  12 1.82  18 1.90  10 1.90
  38  0.547  0.412  0.871-  15 1.93   9 2.07  17 2.15
  39  0.434  0.857  0.089-  13 1.71  11 1.82   7 1.99
  40  0.503  0.737  0.379-  12 1.77  18 1.96  14 2.34
  41  0.426  0.864  0.579-  14 1.87   8 1.90  12 1.92
  42  0.553  0.773  0.880-  17 1.88  11 2.01  13 2.01
  43  0.757  0.200  0.090-  13 1.77  15 1.87   3 2.17
  44  0.886  0.155  0.393-   4 1.61  14 2.02   2 2.35
  45  0.764  0.221  0.584-  14 1.74  16 1.80   4 2.06
  46  0.875  0.130  0.879-   3 1.99   1 2.15  13 2.16
  47  0.761  0.543  0.102-  15 1.89  17 1.99   5 2.16
  48  0.857  0.422  0.399-  16 1.76   6 1.90   4 2.08
  49  0.774  0.552  0.593-   6 1.90  16 1.93  18 2.01
  50  0.857  0.407  0.870-  15 2.02   5 2.22   3 2.30
  51  0.756  0.870  0.091-  17 1.85   1 1.99  13 2.03
  52  0.876  0.738  0.394-   6 1.85  18 1.88   2 1.95
  53  0.742  0.853  0.579-  18 1.79  14 2.04   2 2.11
  54  0.863  0.754  0.886-  17 1.84   5 2.06   1 2.08
 
  LATTYP: Found a hexagonal cell.
 ALAT       =     8.5719417516
 C/A-ratio  =     1.1065328049
  
  Lattice vectors:
  
 A1 = (   8.5719417500,   0.0000000000,   0.0000000000)
 A2 = (  -4.2859708800,   7.4235193200,   0.0000000000)
 A3 = (   0.0000000000,   0.0000000000,   9.4851347500)


Analysis of symmetry for initial positions (statically):
=====================================================================
 Subroutine PRICEL returns:
 Original cell was already a primitive cell.
 

 Routine SETGRP: Setting up the symmetry group for a 
 hexagonal supercell.


 Subroutine GETGRP returns: Found  1 space group operations
 (whereof  1 operations were pure point group operations)
 out of a pool of 24 trial point group operations.


The static configuration has the point symmetry C_1 .


Analysis of symmetry for dynamics (positions and initial velocities):
=====================================================================
 Subroutine PRICEL returns:
 Original cell was already a primitive cell.
 

 Routine SETGRP: Setting up the symmetry group for a 
 hexagonal supercell.


 Subroutine GETGRP returns: Found  1 space group operations
 (whereof  1 operations were pure point group operations)
 out of a pool of 24 trial point group operations.


The dynamic configuration has the point symmetry C_1 .


 Subroutine INISYM returns: Found  1 space group operations
 (whereof  1 operations are pure point group operations),
 and found     1 'primitive' translations

 
 
 KPOINTS: Automatic mesh                          

Automatic generation of k-mesh.
Space group operators:
 irot       det(A)        alpha          n_x          n_y          n_z        tau_x        tau_y        tau_z
    1     1.000000     0.000000     1.000000     0.000000     0.000000     0.000000     0.000000     0.000000
 
 Subroutine IBZKPT returns following result:
 ===========================================
 
 Found     26 irreducible k-points:
 
 Following reciprocal coordinates:
            Coordinates               Weight
  0.000000  0.000000  0.000000      1.000000
  0.250000  0.000000  0.000000      2.000000
  0.500000  0.000000  0.000000      1.000000
  0.000000  0.250000  0.000000      2.000000
  0.250000  0.250000  0.000000      2.000000
  0.500000  0.250000  0.000000      2.000000
 -0.250000  0.250000  0.000000      2.000000
  0.000000  0.500000  0.000000      1.000000
  0.250000  0.500000  0.000000      2.000000
  0.500000  0.500000  0.000000      1.000000
  0.000000  0.000000  0.333333      2.000000
  0.250000  0.000000  0.333333      2.000000
  0.500000  0.000000  0.333333      2.000000
 -0.250000  0.000000  0.333333      2.000000
  0.000000  0.250000  0.333333      2.000000
  0.250000  0.250000  0.333333      2.000000
  0.500000  0.250000  0.333333      2.000000
 -0.250000  0.250000  0.333333      2.000000
  0.000000  0.500000  0.333333      2.000000
  0.250000  0.500000  0.333333      2.000000
  0.500000  0.500000  0.333333      2.000000
 -0.250000  0.500000  0.333333      2.000000
  0.000000 -0.250000  0.333333      2.000000
  0.250000 -0.250000  0.333333      2.000000
  0.500000 -0.250000  0.333333      2.000000
 -0.250000 -0.250000  0.333333      2.000000
 
 Following cartesian coordinates:
            Coordinates               Weight
  0.000000  0.000000  0.000000      1.000000
  0.029165  0.016838  0.000000      2.000000
  0.058330  0.033677  0.000000      1.000000
  0.000000  0.033677  0.000000      2.000000
  0.029165  0.050515  0.000000      2.000000
  0.058330  0.067353  0.000000      2.000000
 -0.029165  0.016838  0.000000      2.000000
  0.000000  0.067353  0.000000      1.000000
  0.029165  0.084192  0.000000      2.000000
  0.058330  0.101030  0.000000      1.000000
  0.000000  0.000000  0.035143      2.000000
  0.029165  0.016838  0.035143      2.000000
  0.058330  0.033677  0.035143      2.000000
 -0.029165 -0.016838  0.035143      2.000000
  0.000000  0.033677  0.035143      2.000000
  0.029165  0.050515  0.035143      2.000000
  0.058330  0.067353  0.035143      2.000000
 -0.029165  0.016838  0.035143      2.000000
  0.000000  0.067353  0.035143      2.000000
  0.029165  0.084192  0.035143      2.000000
  0.058330  0.101030  0.035143      2.000000
 -0.029165  0.050515  0.035143      2.000000
  0.000000 -0.033677  0.035143      2.000000
  0.029165 -0.016838  0.035143      2.000000
  0.058330  0.000000  0.035143      2.000000
 -0.029165 -0.050515  0.035143      2.000000
 


--------------------------------------------------------------------------------------------------------




 Dimension of arrays:
   k-points           NKPTS =     26   k-points in BZ     NKDIM =     26   number of bands    NBANDS=    240
   number of dos      NEDOS =    301   number of ions     NIONS =     54
   non local maximal  LDIM  =      6   non local SUM 2l+1 LMDIM =     18
   total plane-waves  NPLWV = 286720
   max r-space proj   IRMAX =   6427   max aug-charges    IRDMAX=  15596
   dimension x,y,z NGX =    64 NGY =   64 NGZ =   70
   dimension x,y,z NGXF=   128 NGYF=  128 NGZF=  140
   support grid    NGXF=   128 NGYF=  128 NGZF=  140
   ions per type =              18  36
   NGX,Y,Z   is equivalent  to a cutoff of  12.41, 12.41, 12.27 a.u.
   NGXF,Y,Z  is equivalent  to a cutoff of  24.82, 24.82, 24.54 a.u.

 SYSTEM =  unknown system                          
 POSCAR =  NiO2_C2_m_scale_1_025_disp_0_10_round_1 

 Startparameter for this run:
   NWRITE =      1    write-flag & timer
   PREC   = accura    normal or accurate (medium, high low for compatibility)
   ISTART =      0    job   : 0-new  1-cont  2-samecut
   ICHARG =      2    charge: 1-file 2-atom 10-const
   ISPIN  =      1    spin polarized calculation?
   LNONCOLLINEAR =      F non collinear calculations
   LSORBIT =      F    spin-orbit coupling
   INIWAV =      1    electr: 0-lowe 1-rand  2-diag
   LASPH  =      F    aspherical Exc in radial PAW
   METAGGA=      F    non-selfconsistent MetaGGA calc.

 Electronic Relaxation 1
   ENCUT  =  500.0 eV  36.75 Ry    6.06 a.u.  15.63 15.63 17.29*2*pi/ulx,y,z
   ENINI  =  500.0     initial cutoff
   ENAUG  =  605.4 eV  augmentation charge cutoff
   NELM   =    120;   NELMIN=  2; NELMDL= -5     # of ELM steps 
   EDIFF  = 0.1E-04   stopping-criterion for ELM
   LREAL  =      T    real-space projection
   NLSPLINE    = F    spline interpolate recip. space projectors
   LCOMPAT=      F    compatible to vasp.4.4
   GGA_COMPAT  = T    GGA compatible to vasp.4.4-vasp.4.6
   LMAXPAW     = -100 max onsite density
   LMAXMIX     =    2 max onsite mixed and CHGCAR
   VOSKOWN=      1    Vosko Wilk Nusair interpolation
   ROPT   =   -0.00025  -0.00025
 Ionic relaxation
   EDIFFG = 0.1E-03   stopping-criterion for IOM
   NSW    =      0    number of steps for IOM
   NBLOCK =      1;   KBLOCK =      1    inner block; outer block 
   IBRION =     -1    ionic relax: 0-MD 1-quasi-New 2-CG
   NFREE  =      0    steps in history (QN), initial steepest desc. (CG)
   ISIF   =      2    stress and relaxation
   IWAVPR =     10    prediction:  0-non 1-charg 2-wave 3-comb
   ISYM   =      2    0-nonsym 1-usesym 2-fastsym
   LCORR  =      T    Harris-Foulkes like correction to forces

   POTIM  = 0.5000    time-step for ionic-motion
   TEIN   =    0.0    initial temperature
   TEBEG  =    0.0;   TEEND  =   0.0 temperature during run
   SMASS  =  -3.00    Nose mass-parameter (am)
   estimated Nose-frequenzy (Omega)   =  0.10E-29 period in steps =****** mass=  -0.168E-26a.u.
   SCALEE = 1.0000    scale energy and forces
   NPACO  =    256;   APACO  = 16.0  distance and # of slots for P.C.
   PSTRESS=    0.0 pullay stress

  Mass of Ions in am
   POMASS =  58.69 16.00
  Ionic Valenz
   ZVAL   =  10.00  6.00
  Atomic Wigner-Seitz radii
   RWIGS  =   1.15  0.73
  virtual crystal weights 
   VCA    =   1.00  1.00
   NELECT =     396.0000    total number of electrons
   NUPDOWN=      -1.0000    fix difference up-down

 DOS related values:
   EMIN   =  10.00;   EMAX   =-10.00  energy-range for DOS
   EFERMI =   0.00
   ISMEAR =     0;   SIGMA  =   0.05  broadening in eV -4-tet -1-fermi 0-gaus

 Electronic relaxation 2 (details)
   IALGO  =     38    algorithm
   LDIAG  =      T    sub-space diagonalisation (order eigenvalues)
   LSUBROT=      F    optimize rotation matrix (better conditioning)
   TURBO    =      0    0=normal 1=particle mesh
   IRESTART =      0    0=no restart 2=restart with 2 vectors
   NREBOOT  =      0    no. of reboots
   NMIN     =      0    reboot dimension
   EREF     =   0.00    reference energy to select bands
   IMIX   =      4    mixing-type and parameters
     AMIX     =   0.40;   BMIX     =  1.00
     AMIX_MAG =   1.60;   BMIX_MAG =  1.00
     AMIN     =   0.10
     WC   =   100.;   INIMIX=   1;  MIXPRE=   1;  MAXMIX= -45

 Intra band minimization:
   WEIMIN = 0.0000     energy-eigenvalue tresh-hold
   EBREAK =  0.10E-07  absolut break condition
   DEPER  =   0.30     relativ break condition  

   TIME   =   0.40     timestep for ELM

  volume/ion in A,a.u.               =      11.18        75.43
  Fermi-wavevector in a.u.,A,eV,Ry     =   1.422533  2.688198 27.532754  2.023600
  Thomas-Fermi vector in A             =   2.543227
 
 Write flags
   LWAVE        =      F    write WAVECAR
   LDOWNSAMPLE  =      F    k-point downsampling of WAVECAR
   LCHARG       =      T    write CHGCAR
   LVTOT        =      F    write LOCPOT, total local potential
   LVHAR        =      F    write LOCPOT, Hartree potential only
   LELF         =      F    write electronic localiz. function (ELF)
   LORBIT       =      0    0 simple, 1 ext, 2 COOP (PROOUT), +10 PAW based schemes


 Dipole corrections
   LMONO  =      F    monopole corrections only (constant potential shift)
   LDIPOL =      F    correct potential (dipole corrections)
   IDIPOL =      0    1-x, 2-y, 3-z, 4-all directions 
   EPSILON=  1.0000000 bulk dielectric constant

 Exchange correlation treatment:
   GGA     =    PS    GGA type
   LEXCH   =    14    internal setting for exchange type
   VOSKOWN=      1    Vosko Wilk Nusair interpolation
   LHFCALC =     F    Hartree Fock is set to
   LHFONE  =     F    Hartree Fock one center treatment
   AEXX    =    0.0000 exact exchange contribution

 Linear response parameters
   LEPSILON=     F    determine dielectric tensor
   LRPA    =     F    only Hartree local field effects (RPA)
   LNABLA  =     F    use nabla operator in PAW spheres
   LVEL    =     F    velocity operator in full k-point grid
   LINTERFAST=   F  fast interpolation
   KINTER  =     0    interpolate to denser k-point grid
   CSHIFT  =0.1000    complex shift for real part using Kramers Kronig
   OMEGAMAX=  -1.0    maximum frequency
   DEG_THRESHOLD= 0.2000000E-02 threshold for treating states as degnerate
   RTIME   =   -0.100 relaxation time in fs
  (WPLASMAI=    0.000 imaginary part of plasma frequency in eV, 0.658/RTIME)
   DFIELD  = 0.0000000 0.0000000 0.0000000 field for delta impulse in time
 
 Orbital magnetization related:
   ORBITALMAG=     F  switch on orbital magnetization
   LCHIMAG   =     F  perturbation theory with respect to B field
   DQ        =  0.001000  dq finite difference perturbation B field
   LLRAUG    =     F  two centre corrections for induced B field



--------------------------------------------------------------------------------------------------------


 Static calculation
 charge density and potential will be updated during run
 non-spin polarized calculation
 Variant of blocked Davidson
 Davidson routine will perform the subspace rotation
 perform sub-space diagonalisation
    after iterative eigenvector-optimisation
 modified Broyden-mixing scheme, WC =      100.0
 initial mixing is a Kerker type mixing with AMIX =  0.4000 and BMIX =      1.0000
 Hartree-type preconditioning will be used
 using additional bands           42
 real space projection scheme for non local part
 use partial core corrections
 calculate Harris-corrections to forces 
   (improved forces if not selfconsistent)
 use gradient corrections 
 use of overlap-Matrix (Vanderbilt PP)
 Gauss-broadening in eV      SIGMA  =   0.05


--------------------------------------------------------------------------------------------------------


  energy-cutoff  :      500.00
  volume of cell :      603.58
      direct lattice vectors                 reciprocal lattice vectors
     8.571941750  0.000000000  0.000000000     0.116659682  0.067353499  0.000000000
    -4.285970880  7.423519320  0.000000000     0.000000000  0.134706998  0.000000000
     0.000000000  0.000000000  9.485134750     0.000000000  0.000000000  0.105428128

  length of vectors
     8.571941750  8.571941757  9.485134750     0.134706998  0.134706998  0.105428128


 
 k-points in units of 2pi/SCALE and weight: Automatic mesh                          
   0.00000000  0.00000000  0.00000000       0.021
   0.02916492  0.01683837  0.00000000       0.042
   0.05832984  0.03367675  0.00000000       0.021
   0.00000000  0.03367675  0.00000000       0.042
   0.02916492  0.05051512  0.00000000       0.042
   0.05832984  0.06735350  0.00000000       0.042
  -0.02916492  0.01683837  0.00000000       0.042
   0.00000000  0.06735350  0.00000000       0.021
   0.02916492  0.08419187  0.00000000       0.042
   0.05832984  0.10103025  0.00000000       0.021
   0.00000000  0.00000000  0.03514271       0.042
   0.02916492  0.01683837  0.03514271       0.042
   0.05832984  0.03367675  0.03514271       0.042
  -0.02916492 -0.01683837  0.03514271       0.042
   0.00000000  0.03367675  0.03514271       0.042
   0.02916492  0.05051512  0.03514271       0.042
   0.05832984  0.06735350  0.03514271       0.042
  -0.02916492  0.01683837  0.03514271       0.042
   0.00000000  0.06735350  0.03514271       0.042
   0.02916492  0.08419187  0.03514271       0.042
   0.05832984  0.10103025  0.03514271       0.042
  -0.02916492  0.05051512  0.03514271       0.042
   0.00000000 -0.03367675  0.03514271       0.042
   0.02916492 -0.01683837  0.03514271       0.042
   0.05832984  0.00000000  0.03514271       0.042
  -0.02916492 -0.05051512  0.03514271       0.042
 
 k-points in reciprocal lattice and weights: Automatic mesh                          
   0.00000000  0.00000000  0.00000000       0.021
   0.25000000  0.00000000  0.00000000       0.042
   0.50000000  0.00000000  0.00000000       0.021
   0.00000000  0.25000000  0.00000000       0.042
   0.25000000  0.25000000  0.00000000       0.042
   0.50000000  0.25000000  0.00000000       0.042
  -0.25000000  0.25000000  0.00000000       0.042
   0.00000000  0.50000000  0.00000000       0.021
   0.25000000  0.50000000  0.00000000       0.042
   0.50000000  0.50000000  0.00000000       0.021
   0.00000000  0.00000000  0.33333333       0.042
   0.25000000  0.00000000  0.33333333       0.042
   0.50000000  0.00000000  0.33333333       0.042
  -0.25000000  0.00000000  0.33333333       0.042
   0.00000000  0.25000000  0.33333333       0.042
   0.25000000  0.25000000  0.33333333       0.042
   0.50000000  0.25000000  0.33333333       0.042
  -0.25000000  0.25000000  0.33333333       0.042
   0.00000000  0.50000000  0.33333333       0.042
   0.25000000  0.50000000  0.33333333       0.042
   0.50000000  0.50000000  0.33333333       0.042
  -0.25000000  0.50000000  0.33333333       0.042
   0.00000000 -0.25000000  0.33333333       0.042
   0.25000000 -0.25000000  0.33333333       0.042
   0.50000000 -0.25000000  0.33333333       0.042
  -0.25000000 -0.25000000  0.33333333       0.042
 
 position of ions in fractional coordinates (direct lattice) 
   0.99206279  0.99830085  0.99278232
   0.99841167  0.97515463  0.48288136
   0.03003643  0.33178461  0.00748821
   0.01267803  0.32592840  0.49052443
   0.01282530  0.66233462  0.98927789
   0.99548901  0.64450709  0.49300716
   0.31429091  0.98282508  0.00309425
   0.32668470  0.00042738  0.50122208
   0.34050016  0.33080136  0.01634852
   0.31227780  0.30662067  0.50226338
   0.32336528  0.64609375  0.99107898
   0.31113824  0.63239897  0.49001014
   0.63006581  0.99254428  0.00078859
   0.65159955  0.01417667  0.49804617
   0.64837619  0.31934024  0.00583012
   0.65358181  0.32532109  0.49456390
   0.65302630  0.65978910  0.98746749
   0.64674276  0.65081490  0.47612434
   0.08829224  0.18941529  0.11340927
   0.23908945  0.13820725  0.38368716
   0.11416424  0.21566200  0.59999220
   0.22610634  0.13113567  0.86600965
   0.11472600  0.53967984  0.08684156
   0.20434378  0.40917059  0.39138472
   0.10775482  0.52830974  0.56688708
   0.22410829  0.44419068  0.87629041
   0.11682168  0.86453947  0.09759304
   0.22130561  0.74750525  0.39791845
   0.12061679  0.87527009  0.58101504
   0.20833827  0.73870993  0.88349258
   0.43810837  0.19386302  0.09309644
   0.50820124  0.06959099  0.38907326
   0.40967974  0.20845309  0.59558858
   0.56230057  0.10886191  0.86809902
   0.42500739  0.51855219  0.09989945
   0.54563896  0.44447006  0.37984210
   0.43192910  0.54017419  0.58453740
   0.54686307  0.41247037  0.87094342
   0.43361533  0.85706755  0.08882322
   0.50288283  0.73741707  0.37945518
   0.42571517  0.86434655  0.57863769
   0.55327816  0.77269674  0.88024885
   0.75728787  0.20038477  0.09043238
   0.88624982  0.15470484  0.39301019
   0.76356759  0.22107452  0.58413300
   0.87452845  0.13035368  0.87887229
   0.76073853  0.54319603  0.10177038
   0.85678556  0.42160603  0.39860652
   0.77399314  0.55236076  0.59273433
   0.85709293  0.40733121  0.87029813
   0.75554782  0.87032904  0.09086962
   0.87586717  0.73837434  0.39404658
   0.74164088  0.85294352  0.57854400
   0.86283474  0.75440865  0.88552376
 
 position of ions in cartesian coordinates  (Angst):
   4.22521608  7.41090565  9.41667408
   4.37884233  7.23907924  4.58019477
  -1.16454865  2.46300946  0.07102668
  -1.28824430  2.41953577  4.65269032
  -2.72880917  4.91685385  9.38343409
   5.77093519  4.78451083  4.67623935
  -1.51827630  7.29602097  0.02934938
   2.79849048  0.00317266  4.75415897
   1.50094254  2.45571029  0.15506792
   1.36265985  2.27620447  4.76403584
   0.00272935  4.79628944  9.40051767
  -0.04338470  4.69462597  4.64781221
   1.14687154  7.36817164  0.00747988
   5.52471259  0.10524078  4.72403503
   4.18915996  2.37062844  0.05529947
   4.20814849  2.41502740  4.69100523
   2.76986654  4.89795713  9.36626220
   2.75446756  4.83133698  4.51610352
  -0.05499248  1.40612806  1.07570221
   1.45710859  1.02598419  3.63932441
   0.05428816  1.60097102  5.69100687
   1.37612671  0.97348818  8.21421823
  -1.32962749  4.00632372  0.82370390
  -0.00207025  3.03748578  3.71233681
  -1.34065212  3.92191756  5.37700034
   0.01725489  3.29745809  8.31173262
  -2.70400236  6.41792546  0.92568314
  -1.30676694  5.54911967  3.77431012
  -2.71746202  6.49758442  5.51100595
  -1.38022573  5.48382744  8.38004617
   2.92454817  1.43914587  0.88303228
   4.05800647  0.51661006  3.69041230
   2.61832699  1.54745554  5.64923794
   4.35342876  0.80813849  8.23403618
   1.42063900  3.84948220  0.94755974
   2.77219965  3.29953208  3.60285350
   1.38730024  4.00999354  5.54441601
   2.91984239  3.06198176  8.26101570
   0.04355879  6.36245752  0.84250021
   1.15013424  5.47422987  3.59918351
  -0.05535850  6.41649331  5.48845646
   1.43091243  5.73612918  8.34927896
   5.63258422  1.48756021  0.85776331
   6.93382139  1.14845437  3.72775461
   5.59773795  1.64115097  5.54058022
   6.93771486  0.96768306  8.33622210
   4.19288400  4.03242622  0.96530577
   5.53732475  3.12980051  3.78083655
   4.26722198  4.10046077  5.62216499
   5.60114097  3.02383111  8.25489504
   2.74630698  6.46090444  0.86191059
   4.34323144  5.48133618  3.73758491
   2.70161133  6.33184270  5.48756780
   4.16279563  5.60036719  8.39931219
 


--------------------------------------------------------------------------------------------------------


 k-point  1 :   0.0000 0.0000 0.0000  plane waves:   15335
 k-point  2 :   0.2500 0.0000 0.0000  plane waves:   15345
 k-point  3 :   0.5000 0.0000 0.0000  plane waves:   15328
 k-point  4 :   0.0000 0.2500 0.0000  plane waves:   15345
 k-point  5 :   0.2500 0.2500 0.0000  plane waves:   15308
 k-point  6 :   0.5000 0.2500 0.0000  plane waves:   15308
 k-point  7 :  -0.2500 0.2500 0.0000  plane waves:   15345
 k-point  8 :   0.0000 0.5000 0.0000  plane waves:   15328
 k-point  9 :   0.2500 0.5000 0.0000  plane waves:   15308
 k-point 10 :   0.5000 0.5000 0.0000  plane waves:   15328
 k-point 11 :   0.0000 0.0000 0.3333  plane waves:   15364
 k-point 12 :   0.2500 0.0000 0.3333  plane waves:   15329
 k-point 13 :   0.5000 0.0000 0.3333  plane waves:   15304
 k-point 14 :  -0.2500 0.0000 0.3333  plane waves:   15329
 k-point 15 :   0.0000 0.2500 0.3333  plane waves:   15329
 k-point 16 :   0.2500 0.2500 0.3333  plane waves:   15318
 k-point 17 :   0.5000 0.2500 0.3333  plane waves:   15318
 k-point 18 :  -0.2500 0.2500 0.3333  plane waves:   15329
 k-point 19 :   0.0000 0.5000 0.3333  plane waves:   15304
 k-point 20 :   0.2500 0.5000 0.3333  plane waves:   15318
 k-point 21 :   0.5000 0.5000 0.3333  plane waves:   15304
 k-point 22 :  -0.2500 0.5000 0.3333  plane waves:   15318
 k-point 23 :   0.0000-0.2500 0.3333  plane waves:   15329
 k-point 24 :   0.2500-0.2500 0.3333  plane waves:   15329
 k-point 25 :   0.5000-0.2500 0.3333  plane waves:   15318
 k-point 26 :  -0.2500-0.2500 0.3333  plane waves:   15318

 maximum and minimum number of plane-waves per node :     15364    15304

 maximum number of plane-waves:     15364
 maximum index in each direction: 
   IXMAX=   15   IYMAX=   15   IZMAX=   17
   IXMIN=  -16   IYMIN=  -16   IZMIN=  -17

 The following grids will avoid any aliasing or wrap around errors in the Hartre
 e energy
  - symmetry arguments have not been applied
  - exchange correlation energies might require even more grid points
  - we recommend to set PREC=Normal or Accurate and rely on VASP defaults
 NGX is ok and might be reduce to    64
 NGY is ok and might be reduce to    64
 NGZ is ok and might be reduce to    70

 serial   3D FFT for wavefunctions
 parallel 3D FFT for charge:
    minimum data exchange during FFTs selected (reduces bandwidth)


 total amount of memory used by VASP MPI-rank0   186383. kBytes
=======================================================================

   base      :      30000. kBytes
   nonlr-proj:      30002. kBytes
   fftplans  :       6058. kBytes
   grid      :      19644. kBytes
   one-center:        839. kBytes
   wavefun   :      99840. kBytes
 
     INWAV:  cpu time    0.0000: real time    0.0000
 Broyden mixing: mesh for mixing (old mesh)
   NGX = 31   NGY = 31   NGZ = 35
  (NGX  =128   NGY  =128   NGZ  =140)
  gives a total of  33635 points

 initial charge density was supplied:
 charge density of overlapping atoms calculated
 number of electron     396.0000000 magnetization 
 keeping initial charge density in first step


--------------------------------------------------------------------------------------------------------


 Maximum index for non-local projection operator         6210
 Maximum index for augmentation-charges         1033 (set IRDMAX)


--------------------------------------------------------------------------------------------------------


 First call to EWALD:  gamma=   0.210
 Maximum number of real-space cells 3x 3x 3
 Maximum number of reciprocal cells 3x 3x 3

    FEWALD:  cpu time    0.0026: real time    0.0026


--------------------------------------- Iteration      1(   1)  ---------------------------------------


    POTLOK:  cpu time    0.1092: real time    0.1340
    SETDIJ:  cpu time    0.0112: real time    0.0112
     EDDAV:  cpu time   38.0514: real time   38.1570
    --------------------------------------------
      LOOP:  cpu time   38.1737: real time   38.3042

 eigenvalue-minimisations  : 12480
 total energy-change (2. order) : 0.5173040E+04  (-0.1764851E+05)
 number of electron     396.0000000 magnetization 
 augmentation part      396.0000000 magnetization 

 Free energy of the ion-electron system (eV)
  ---------------------------------------------------
  alpha Z        PSCENC =      1149.28122492
  Ewald energy   TEWEN  =    -21934.25646323
  -Hartree energ DENC   =    -13668.63754786
  -exchange      EXHF   =         0.00000000
  -V(xc)+E(xc)   XCENC  =      1579.94811062
  PAW double counting   =     29784.60368500   -31040.73694357
  entropy T*S    EENTRO =        -0.00913845
  eigenvalues    EBANDS =      4412.46588927
  atomic energy  EATOM  =     34890.38139807
  Solvation  Ediel_sol  =         0.00000000
  ---------------------------------------------------
  free energy    TOTEN  =      5173.04021476 eV

  energy without entropy =     5173.04935321  energy(sigma->0) =     5173.04478399


--------------------------------------------------------------------------------------------------------




--------------------------------------- Iteration      1(   2)  ---------------------------------------


     EDDAV:  cpu time   35.5955: real time   35.6797
    --------------------------------------------
      LOOP:  cpu time   35.5953: real time   35.6794

 eigenvalue-minimisations  : 13008
 total energy-change (2. order) :-0.4489043E+04  (-0.4185922E+04)
 number of electron     396.0000000 magnetization 
 augmentation part      396.0000000 magnetization 

 Free energy of the ion-electron system (eV)
  ---------------------------------------------------
  alpha Z        PSCENC =      1149.28122492
  Ewald energy   TEWEN  =    -21934.25646323
  -Hartree energ DENC   =    -13668.63754786
  -exchange      EXHF   =         0.00000000
  -V(xc)+E(xc)   XCENC  =      1579.94811062
  PAW double counting   =     29784.60368500   -31040.73694357
  entropy T*S    EENTRO =        -0.02887474
  eigenvalues    EBANDS =       -76.55748193
  atomic energy  EATOM  =     34890.38139807
  Solvation  Ediel_sol  =         0.00000000
  ---------------------------------------------------
  free energy    TOTEN  =       683.99710727 eV

  energy without entropy =      684.02598201  energy(sigma->0) =      684.01154464


--------------------------------------------------------------------------------------------------------




--------------------------------------- Iteration      1(   3)  ---------------------------------------


     EDDAV:  cpu time   34.7164: real time   34.7983
    --------------------------------------------
      LOOP:  cpu time   34.7163: real time   34.7982

 eigenvalue-minimisations  : 13440
 total energy-change (2. order) :-0.1030690E+04  (-0.9065959E+03)
 number of electron     396.0000000 magnetization 
 augmentation part      396.0000000 magnetization 

 Free energy of the ion-electron system (eV)
  ---------------------------------------------------
  alpha Z        PSCENC =      1149.28122492
  Ewald energy   TEWEN  =    -21934.25646323
  -Hartree energ DENC   =    -13668.63754786
  -exchange      EXHF   =         0.00000000
  -V(xc)+E(xc)   XCENC  =      1579.94811062
  PAW double counting   =     29784.60368500   -31040.73694357
  entropy T*S    EENTRO =        -0.01454982
  eigenvalues    EBANDS =     -1107.26150144
  atomic energy  EATOM  =     34890.38139807
  Solvation  Ediel_sol  =         0.00000000
  ---------------------------------------------------
  free energy    TOTEN  =      -346.69258733 eV

  energy without entropy =     -346.67803750  energy(sigma->0) =     -346.68531241


--------------------------------------------------------------------------------------------------------




--------------------------------------- Iteration      1(   4)  ---------------------------------------


     EDDAV:  cpu time   36.4430: real time   36.5301
    --------------------------------------------
      LOOP:  cpu time   36.4428: real time   36.5299

 eigenvalue-minimisations  : 13328
 total energy-change (2. order) :-0.1107126E+03  (-0.1077950E+03)
 number of electron     396.0000000 magnetization 
 augmentation part      396.0000000 magnetization 

 Free energy of the ion-electron system (eV)
  ---------------------------------------------------
  alpha Z        PSCENC =      1149.28122492
  Ewald energy   TEWEN  =    -21934.25646323
  -Hartree energ DENC   =    -13668.63754786
  -exchange      EXHF   =         0.00000000
  -V(xc)+E(xc)   XCENC  =      1579.94811062
  PAW double counting   =     29784.60368500   -31040.73694357
  entropy T*S    EENTRO =        -0.00000609
  eigenvalues    EBANDS =     -1217.98868292
  atomic energy  EATOM  =     34890.38139807
  Solvation  Ediel_sol  =         0.00000000
  ---------------------------------------------------
  free energy    TOTEN  =      -457.40522507 eV

  energy without entropy =     -457.40521898  energy(sigma->0) =     -457.40522202


--------------------------------------------------------------------------------------------------------




--------------------------------------- Iteration      1(   5)  ---------------------------------------


     EDDAV:  cpu time   37.1846: real time   37.2723
    CHARGE:  cpu time    1.8887: real time    1.8932
    MIXING:  cpu time    0.0045: real time    0.0069
    --------------------------------------------
      LOOP:  cpu time   39.0765: real time   39.1711

 eigenvalue-minimisations  : 14976
 total energy-change (2. order) :-0.3838368E+01  (-0.3829261E+01)
 number of electron     395.9999980 magnetization 
 augmentation part      112.1572784 magnetization 

 Broyden mixing:
  rms(total) = 0.11926E+02    rms(broyden)= 0.11923E+02
  rms(prec ) = 0.14952E+02
  weight for this iteration     100.00

 Free energy of the ion-electron system (eV)
  ---------------------------------------------------
  alpha Z        PSCENC =      1149.28122492
  Ewald energy   TEWEN  =    -21934.25646323
  -Hartree energ DENC   =    -13668.63754786
  -exchange      EXHF   =         0.00000000
  -V(xc)+E(xc)   XCENC  =      1579.94811062
  PAW double counting   =     29784.60368500   -31040.73694357
  entropy T*S    EENTRO =        -0.00000672
  eigenvalues    EBANDS =     -1221.82704981
  atomic energy  EATOM  =     34890.38139807
  Solvation  Ediel_sol  =         0.00000000
  ---------------------------------------------------
  free energy    TOTEN  =      -461.24359259 eV

  energy without entropy =     -461.24358588  energy(sigma->0) =     -461.24358923


--------------------------------------------------------------------------------------------------------




--------------------------------------- Iteration      1(   6)  ---------------------------------------


    POTLOK:  cpu time    0.0753: real time    0.0755
    SETDIJ:  cpu time    0.0087: real time    0.0087
     EDDAV:  cpu time   50.0143: real time   50.1322
    CHARGE:  cpu time    1.7297: real time    1.7337
    MIXING:  cpu time    0.0024: real time    0.0024
    --------------------------------------------
      LOOP:  cpu time   51.8304: real time   51.9525

 eigenvalue-minimisations  : 19776
 total energy-change (2. order) :-0.1636444E+03  (-0.1295888E+03)
 number of electron     396.0000001 magnetization 
 augmentation part      156.5308684 magnetization 

 Broyden mixing:
  rms(total) = 0.22311E+02    rms(broyden)= 0.22309E+02
  rms(prec ) = 0.25317E+02
  weight for this iteration     100.00

 eigenvalues of (default mixing * dielectric matrix)
  average eigenvalue GAMMA=   0.1911
  0.1911

 Free energy of the ion-electron system (eV)
  ---------------------------------------------------
  alpha Z        PSCENC =      1149.28122492
  Ewald energy   TEWEN  =    -21934.25646323
  -Hartree energ DENC   =    -12929.43303693
  -exchange      EXHF   =         0.00000000
  -V(xc)+E(xc)   XCENC  =      1574.89954510
  PAW double counting   =     32448.88869925   -33482.52986423
  entropy T*S    EENTRO =        -0.04116521
  eigenvalues    EBANDS =     -2342.07829612
  atomic energy  EATOM  =     34890.38139807
  Solvation  Ediel_sol  =         0.00000000
  ---------------------------------------------------
  free energy    TOTEN  =      -624.88795840 eV

  energy without entropy =     -624.84679319  energy(sigma->0) =     -624.86737580


--------------------------------------------------------------------------------------------------------




--------------------------------------- Iteration      1(   7)  ---------------------------------------


    POTLOK:  cpu time    0.0748: real time    0.0750
    SETDIJ:  cpu time    0.0090: real time    0.0091
     EDDAV:  cpu time   43.9827: real time   44.0865
    CHARGE:  cpu time    1.7569: real time    1.7611
    MIXING:  cpu time    0.0025: real time    0.0025
    --------------------------------------------
      LOOP:  cpu time   45.8259: real time   45.9341

 eigenvalue-minimisations  : 16912
 total energy-change (2. order) : 0.2504289E+03  (-0.3566139E+02)
 number of electron     395.9999987 magnetization 
 augmentation part      143.0539756 magnetization 

 Broyden mixing:
  rms(total) = 0.87593E+01    rms(broyden)= 0.87582E+01
  rms(prec ) = 0.11209E+02
  weight for this iteration     100.00

 eigenvalues of (default mixing * dielectric matrix)
  average eigenvalue GAMMA=   0.5229
  0.5229  0.5229

 Free energy of the ion-electron system (eV)
  ---------------------------------------------------
  alpha Z        PSCENC =      1149.28122492
  Ewald energy   TEWEN  =    -21934.25646323
  -Hartree energ DENC   =    -13222.11950709
  -exchange      EXHF   =         0.00000000
  -V(xc)+E(xc)   XCENC  =      1579.28770523
  PAW double counting   =     33846.03567573   -35025.97052227
  entropy T*S    EENTRO =        -0.04154043
  eigenvalues    EBANDS =     -1657.05700949
  atomic energy  EATOM  =     34890.38139807
  Solvation  Ediel_sol  =         0.00000000
  ---------------------------------------------------
  free energy    TOTEN  =      -374.45903858 eV

  energy without entropy =     -374.41749815  energy(sigma->0) =     -374.43826836


--------------------------------------------------------------------------------------------------------




--------------------------------------- Iteration      1(   8)  ---------------------------------------


    POTLOK:  cpu time    0.0711: real time    0.0713
    SETDIJ:  cpu time    0.0087: real time    0.0087
     EDDAV:  cpu time   50.1713: real time   50.2896
    CHARGE:  cpu time    1.5334: real time    1.5370
    MIXING:  cpu time    0.0028: real time    0.0028
    --------------------------------------------
      LOOP:  cpu time   51.7873: real time   51.9094

 eigenvalue-minimisations  : 20128
 total energy-change (2. order) : 0.3883264E+01  (-0.2613239E+02)
 number of electron     395.9999991 magnetization 
 augmentation part      135.0532865 magnetization 

 Broyden mixing:
  rms(total) = 0.81249E+01    rms(broyden)= 0.81226E+01
  rms(prec ) = 0.11849E+02
  weight for this iteration     100.00

 eigenvalues of (default mixing * dielectric matrix)
  average eigenvalue GAMMA=   0.4953
  0.6163  0.6163  0.2531

 Free energy of the ion-electron system (eV)
  ---------------------------------------------------
  alpha Z        PSCENC =      1149.28122492
  Ewald energy   TEWEN  =    -21934.25646323
  -Hartree energ DENC   =    -13304.03625970
  -exchange      EXHF   =         0.00000000
  -V(xc)+E(xc)   XCENC  =      1575.90213541
  PAW double counting   =     34853.07716177   -36121.08882923
  entropy T*S    EENTRO =        -0.03710260
  eigenvalues    EBANDS =     -1479.79904011
  atomic energy  EATOM  =     34890.38139807
  Solvation  Ediel_sol  =         0.00000000
  ---------------------------------------------------
  free energy    TOTEN  =      -370.57577471 eV

  energy without entropy =     -370.53867211  energy(sigma->0) =     -370.55722341


--------------------------------------------------------------------------------------------------------




--------------------------------------- Iteration      1(   9)  ---------------------------------------


    POTLOK:  cpu time    0.0785: real time    0.0787
    SETDIJ:  cpu time    0.0097: real time    0.0097
     EDDAV:  cpu time   42.0656: real time   42.1649
    CHARGE:  cpu time    1.5899: real time    1.5937
    MIXING:  cpu time    0.0028: real time    0.0028
    --------------------------------------------
      LOOP:  cpu time   43.7466: real time   43.8498

 eigenvalue-minimisations  : 17824
 total energy-change (2. order) : 0.7942658E+01  (-0.2157254E+02)
 number of electron     395.9999979 magnetization 
 augmentation part      121.3455709 magnetization 

 Broyden mixing:
  rms(total) = 0.10343E+02    rms(broyden)= 0.10342E+02
  rms(prec ) = 0.15413E+02
  weight for this iteration     100.00

 eigenvalues of (default mixing * dielectric matrix)
  average eigenvalue GAMMA=   0.4444
  0.8879  0.4196  0.3143  0.1557

 Free energy of the ion-electron system (eV)
  ---------------------------------------------------
  alpha Z        PSCENC =      1149.28122492
  Ewald energy   TEWEN  =    -21934.25646323
  -Hartree energ DENC   =    -13344.05408808
  -exchange      EXHF   =         0.00000000
  -V(xc)+E(xc)   XCENC  =      1573.66182831
  PAW double counting   =     35931.00313687   -37231.08854624
  entropy T*S    EENTRO =        -0.05996780
  eigenvalues    EBANDS =     -1397.50163961
  atomic energy  EATOM  =     34890.38139807
  Solvation  Ediel_sol  =         0.00000000
  ---------------------------------------------------
  free energy    TOTEN  =      -362.63311681 eV

  energy without entropy =     -362.57314901  energy(sigma->0) =     -362.60313291


--------------------------------------------------------------------------------------------------------




--------------------------------------- Iteration      1(  10)  ---------------------------------------


    POTLOK:  cpu time    0.0750: real time    0.0752
    SETDIJ:  cpu time    0.0092: real time    0.0093
     EDDAV:  cpu time   46.2770: real time   46.3913
    CHARGE:  cpu time    1.6643: real time    1.6682
    MIXING:  cpu time    0.0027: real time    0.0027
    --------------------------------------------
      LOOP:  cpu time   48.0283: real time   48.1467

 eigenvalue-minimisations  : 18096
 total energy-change (2. order) : 0.1893217E+02  (-0.1990422E+02)
 number of electron     395.9999988 magnetization 
 augmentation part      123.6787900 magnetization 

 Broyden mixing:
  rms(total) = 0.58593E+01    rms(broyden)= 0.58580E+01
  rms(prec ) = 0.87799E+01
  weight for this iteration     100.00

 eigenvalues of (default mixing * dielectric matrix)
  average eigenvalue GAMMA=   0.4534
  1.1828  0.3677  0.3677  0.2678  0.0809

 Free energy of the ion-electron system (eV)
  ---------------------------------------------------
  alpha Z        PSCENC =      1149.28122492
  Ewald energy   TEWEN  =    -21934.25646323
  -Hartree energ DENC   =    -13325.79933094
  -exchange      EXHF   =         0.00000000
  -V(xc)+E(xc)   XCENC  =      1573.12666364
  PAW double counting   =     36340.11713915   -37645.69889876
  entropy T*S    EENTRO =        -0.03385125
  eigenvalues    EBANDS =     -1390.81882447
  atomic energy  EATOM  =     34890.38139807
  Solvation  Ediel_sol  =         0.00000000
  ---------------------------------------------------
  free energy    TOTEN  =      -343.70094288 eV

  energy without entropy =     -343.66709163  energy(sigma->0) =     -343.68401725


--------------------------------------------------------------------------------------------------------




--------------------------------------- Iteration      1(  11)  ---------------------------------------


    POTLOK:  cpu time    0.0754: real time    0.0756
    SETDIJ:  cpu time    0.0090: real time    0.0091
     EDDAV:  cpu time   44.0980: real time   44.2021
    CHARGE:  cpu time    1.4621: real time    1.4656
    MIXING:  cpu time    0.0029: real time    0.0029
    --------------------------------------------
      LOOP:  cpu time   45.6474: real time   45.7551

 eigenvalue-minimisations  : 18080
 total energy-change (2. order) : 0.1013384E+02  (-0.1333996E+02)
 number of electron     395.9999988 magnetization 
 augmentation part      124.9608141 magnetization 

 Broyden mixing:
  rms(total) = 0.52915E+01    rms(broyden)= 0.52908E+01
  rms(prec ) = 0.71967E+01
  weight for this iteration     100.00

 eigenvalues of (default mixing * dielectric matrix)
  average eigenvalue GAMMA=   0.4638
  1.4644  0.4131  0.4131  0.2920  0.1080  0.0919

 Free energy of the ion-electron system (eV)
  ---------------------------------------------------
  alpha Z        PSCENC =      1149.28122492
  Ewald energy   TEWEN  =    -21934.25646323
  -Hartree energ DENC   =    -13290.91038307
  -exchange      EXHF   =         0.00000000
  -V(xc)+E(xc)   XCENC  =      1572.80920853
  PAW double counting   =     36899.98898551   -38209.12882245
  entropy T*S    EENTRO =        -0.06325176
  eigenvalues    EBANDS =     -1411.66900430
  atomic energy  EATOM  =     34890.38139807
  Solvation  Ediel_sol  =         0.00000000
  ---------------------------------------------------
  free energy    TOTEN  =      -333.56710779 eV

  energy without entropy =     -333.50385603  energy(sigma->0) =     -333.53548191


--------------------------------------------------------------------------------------------------------




--------------------------------------- Iteration      1(  12)  ---------------------------------------


    POTLOK:  cpu time    0.0748: real time    0.0750
    SETDIJ:  cpu time    0.0090: real time    0.0090
     EDDAV:  cpu time   48.6784: real time   48.7932
    CHARGE:  cpu time    1.7556: real time    1.7597
    MIXING:  cpu time    0.0027: real time    0.0027
    --------------------------------------------
      LOOP:  cpu time   50.5205: real time   50.6396

 eigenvalue-minimisations  : 18704
 total energy-change (2. order) : 0.1004599E+02  (-0.4851918E+01)
 number of electron     395.9999987 magnetization 
 augmentation part      127.8265196 magnetization 

 Broyden mixing:
  rms(total) = 0.24312E+01    rms(broyden)= 0.24304E+01
  rms(prec ) = 0.34548E+01
  weight for this iteration     100.00

 eigenvalues of (default mixing * dielectric matrix)
  average eigenvalue GAMMA=   0.4662
  1.5802  0.4542  0.4542  0.3537  0.1967  0.1361  0.0881

 Free energy of the ion-electron system (eV)
  ---------------------------------------------------
  alpha Z        PSCENC =      1149.28122492
  Ewald energy   TEWEN  =    -21934.25646323
  -Hartree energ DENC   =    -13264.46254373
  -exchange      EXHF   =         0.00000000
  -V(xc)+E(xc)   XCENC  =      1572.67215837
  PAW double counting   =     37391.54082529   -38702.31265531
  entropy T*S    EENTRO =        -0.00132640
  eigenvalues    EBANDS =     -1426.36373925
  atomic energy  EATOM  =     34890.38139807
  Solvation  Ediel_sol  =         0.00000000
  ---------------------------------------------------
  free energy    TOTEN  =      -323.52112129 eV

  energy without entropy =     -323.51979489  energy(sigma->0) =     -323.52045809


--------------------------------------------------------------------------------------------------------




--------------------------------------- Iteration      1(  13)  ---------------------------------------


    POTLOK:  cpu time    0.0720: real time    0.0721
    SETDIJ:  cpu time    0.0086: real time    0.0086
     EDDAV:  cpu time   46.1814: real time   46.2903
    CHARGE:  cpu time    1.7616: real time    1.7658
    MIXING:  cpu time    0.0028: real time    0.0028
    --------------------------------------------
      LOOP:  cpu time   48.0264: real time   48.1396

 eigenvalue-minimisations  : 17552
 total energy-change (2. order) : 0.3552155E+01  (-0.8387296E+00)
 number of electron     395.9999986 magnetization 
 augmentation part      128.6501584 magnetization 

 Broyden mixing:
  rms(total) = 0.18917E+01    rms(broyden)= 0.18913E+01
  rms(prec ) = 0.27265E+01
  weight for this iteration     100.00

 eigenvalues of (default mixing * dielectric matrix)
  average eigenvalue GAMMA=   0.4566
  1.6237  0.4805  0.4805  0.4085  0.2239  0.2239  0.1240  0.0876

 Free energy of the ion-electron system (eV)
  ---------------------------------------------------
  alpha Z        PSCENC =      1149.28122492
  Ewald energy   TEWEN  =    -21934.25646323
  -Hartree energ DENC   =    -13259.47243029
  -exchange      EXHF   =         0.00000000
  -V(xc)+E(xc)   XCENC  =      1573.00159016
  PAW double counting   =     37673.24650179   -38984.78708865
  entropy T*S    EENTRO =        -0.01900514
  eigenvalues    EBANDS =     -1427.34469367
  atomic energy  EATOM  =     34890.38139807
  Solvation  Ediel_sol  =         0.00000000
  ---------------------------------------------------
  free energy    TOTEN  =      -319.96896605 eV

  energy without entropy =     -319.94996091  energy(sigma->0) =     -319.95946348


--------------------------------------------------------------------------------------------------------




--------------------------------------- Iteration      1(  14)  ---------------------------------------


    POTLOK:  cpu time    0.0723: real time    0.0725
    SETDIJ:  cpu time    0.0087: real time    0.0087
     EDDAV:  cpu time   45.1327: real time   45.2392
    CHARGE:  cpu time    1.6517: real time    1.6556
    MIXING:  cpu time    0.0033: real time    0.0033
    --------------------------------------------
      LOOP:  cpu time   46.8687: real time   46.9793

 eigenvalue-minimisations  : 18464
 total energy-change (2. order) : 0.1834392E+01  (-0.9678315E+00)
 number of electron     395.9999986 magnetization 
 augmentation part      128.9712539 magnetization 

 Broyden mixing:
  rms(total) = 0.11447E+01    rms(broyden)= 0.11443E+01
  rms(prec ) = 0.15345E+01
  weight for this iteration     100.00

 eigenvalues of (default mixing * dielectric matrix)
  average eigenvalue GAMMA=   0.4724
  1.6998  0.5578  0.5578  0.4060  0.4060  0.2557  0.0880  0.1565  0.1241

 Free energy of the ion-electron system (eV)
  ---------------------------------------------------
  alpha Z        PSCENC =      1149.28122492
  Ewald energy   TEWEN  =    -21934.25646323
  -Hartree energ DENC   =    -13256.96295836
  -exchange      EXHF   =         0.00000000
  -V(xc)+E(xc)   XCENC  =      1573.36748103
  PAW double counting   =     37874.45968173   -39185.09393059
  entropy T*S    EENTRO =        -0.00070193
  eigenvalues    EBANDS =     -1429.31030575
  atomic energy  EATOM  =     34890.38139807
  Solvation  Ediel_sol  =         0.00000000
  ---------------------------------------------------
  free energy    TOTEN  =      -318.13457413 eV

  energy without entropy =     -318.13387220  energy(sigma->0) =     -318.13422316


--------------------------------------------------------------------------------------------------------




--------------------------------------- Iteration      1(  15)  ---------------------------------------


    POTLOK:  cpu time    0.0749: real time    0.0751
    SETDIJ:  cpu time    0.0092: real time    0.0092
     EDDAV:  cpu time   43.5234: real time   43.6260
    CHARGE:  cpu time    1.7218: real time    1.7259
    MIXING:  cpu time    0.0032: real time    0.0032
    --------------------------------------------
      LOOP:  cpu time   45.3325: real time   45.4394

 eigenvalue-minimisations  : 17680
 total energy-change (2. order) : 0.4698709E+00  (-0.2105073E+00)
 number of electron     395.9999986 magnetization 
 augmentation part      129.4366540 magnetization 

 Broyden mixing:
  rms(total) = 0.80152E+00    rms(broyden)= 0.80129E+00
  rms(prec ) = 0.11146E+01
  weight for this iteration     100.00

 eigenvalues of (default mixing * dielectric matrix)
  average eigenvalue GAMMA=   0.4973
  1.8126  0.7196  0.7196  0.4440  0.4440  0.2603  0.0879  0.1952  0.1234  0.1669

 Free energy of the ion-electron system (eV)
  ---------------------------------------------------
  alpha Z        PSCENC =      1149.28122492
  Ewald energy   TEWEN  =    -21934.25646323
  -Hartree energ DENC   =    -13256.59282597
  -exchange      EXHF   =         0.00000000
  -V(xc)+E(xc)   XCENC  =      1573.54322447
  PAW double counting   =     38048.26943527   -39359.98281324
  entropy T*S    EENTRO =        -0.01043895
  eigenvalues    EBANDS =     -1428.29744452
  atomic energy  EATOM  =     34890.38139807
  Solvation  Ediel_sol  =         0.00000000
  ---------------------------------------------------
  free energy    TOTEN  =      -317.66470319 eV

  energy without entropy =     -317.65426424  energy(sigma->0) =     -317.65948372


--------------------------------------------------------------------------------------------------------




--------------------------------------- Iteration      1(  16)  ---------------------------------------


    POTLOK:  cpu time    0.0729: real time    0.0731
    SETDIJ:  cpu time    0.0089: real time    0.0089
     EDDAV:  cpu time   44.5072: real time   44.6121
    CHARGE:  cpu time    1.6326: real time    1.6365
    MIXING:  cpu time    0.0033: real time    0.0107
    --------------------------------------------
      LOOP:  cpu time   46.2249: real time   46.3413

 eigenvalue-minimisations  : 18560
 total energy-change (2. order) : 0.2278259E+00  (-0.1888510E+00)
 number of electron     395.9999986 magnetization 
 augmentation part      129.6480863 magnetization 

 Broyden mixing:
  rms(total) = 0.64190E+00    rms(broyden)= 0.64173E+00
  rms(prec ) = 0.84247E+00
  weight for this iteration     100.00

 eigenvalues of (default mixing * dielectric matrix)
  average eigenvalue GAMMA=   0.5358
  2.0940  0.8604  0.8604  0.4625  0.4625  0.3572  0.2389  0.1955  0.0879  0.1242
  0.1498

 Free energy of the ion-electron system (eV)
  ---------------------------------------------------
  alpha Z        PSCENC =      1149.28122492
  Ewald energy   TEWEN  =    -21934.25646323
  -Hartree energ DENC   =    -13255.20838340
  -exchange      EXHF   =         0.00000000
  -V(xc)+E(xc)   XCENC  =      1573.66465124
  PAW double counting   =     38238.10984258   -39550.34048529
  entropy T*S    EENTRO =        -0.00061904
  eigenvalues    EBANDS =     -1429.06804317
  atomic energy  EATOM  =     34890.38139807
  Solvation  Ediel_sol  =         0.00000000
  ---------------------------------------------------
  free energy    TOTEN  =      -317.43687733 eV

  energy without entropy =     -317.43625829  energy(sigma->0) =     -317.43656781


--------------------------------------------------------------------------------------------------------




--------------------------------------- Iteration      1(  17)  ---------------------------------------


    POTLOK:  cpu time    0.0688: real time    0.0690
    SETDIJ:  cpu time    0.0085: real time    0.0085
     EDDAV:  cpu time   46.0909: real time   46.1996
    CHARGE:  cpu time    1.7434: real time    1.7475
    MIXING:  cpu time    0.0035: real time    0.0035
    --------------------------------------------
      LOOP:  cpu time   47.9150: real time   48.0280

 eigenvalue-minimisations  : 18512
 total energy-change (2. order) : 0.1253237E+00  (-0.6746095E-01)
 number of electron     395.9999986 magnetization 
 augmentation part      130.0784732 magnetization 

 Broyden mixing:
  rms(total) = 0.42382E+00    rms(broyden)= 0.42367E+00
  rms(prec ) = 0.56714E+00
  weight for this iteration     100.00

 eigenvalues of (default mixing * dielectric matrix)
  average eigenvalue GAMMA=   0.5520
  2.2562  0.9366  0.9366  0.4653  0.4653  0.4610  0.3102  0.2393  0.0880  0.1886
  0.1238  0.1530

 Free energy of the ion-electron system (eV)
  ---------------------------------------------------
  alpha Z        PSCENC =      1149.28122492
  Ewald energy   TEWEN  =    -21934.25646323
  -Hartree energ DENC   =    -13253.54045761
  -exchange      EXHF   =         0.00000000
  -V(xc)+E(xc)   XCENC  =      1573.77592822
  PAW double counting   =     38518.20775934   -39832.15920677
  entropy T*S    EENTRO =        -0.00922853
  eigenvalues    EBANDS =     -1428.99250808
  atomic energy  EATOM  =     34890.38139807
  Solvation  Ediel_sol  =         0.00000000
  ---------------------------------------------------
  free energy    TOTEN  =      -317.31155368 eV

  energy without entropy =     -317.30232515  energy(sigma->0) =     -317.30693941


--------------------------------------------------------------------------------------------------------




--------------------------------------- Iteration      1(  18)  ---------------------------------------


    POTLOK:  cpu time    0.0734: real time    0.0735
    SETDIJ:  cpu time    0.0092: real time    0.0092
     EDDAV:  cpu time   46.2564: real time   46.3655
    CHARGE:  cpu time    1.7479: real time    1.7520
    MIXING:  cpu time    0.0040: real time    0.0040
    --------------------------------------------
      LOOP:  cpu time   48.0909: real time   48.2043

 eigenvalue-minimisations  : 17824
 total energy-change (2. order) : 0.1563042E-01  (-0.4565485E-01)
 number of electron     395.9999986 magnetization 
 augmentation part      130.0978452 magnetization 

 Broyden mixing:
  rms(total) = 0.39772E+00    rms(broyden)= 0.39764E+00
  rms(prec ) = 0.54767E+00
  weight for this iteration     100.00

 eigenvalues of (default mixing * dielectric matrix)
  average eigenvalue GAMMA=   0.5737
  2.4214  0.9509  0.9509  0.8177  0.4553  0.4553  0.3957  0.2489  0.0880  0.2137
  0.1862  0.1240  0.1505

 Free energy of the ion-electron system (eV)
  ---------------------------------------------------
  alpha Z        PSCENC =      1149.28122492
  Ewald energy   TEWEN  =    -21934.25646323
  -Hartree energ DENC   =    -13255.78214934
  -exchange      EXHF   =         0.00000000
  -V(xc)+E(xc)   XCENC  =      1573.90005751
  PAW double counting   =     38652.70971179   -39967.50120221
  entropy T*S    EENTRO =        -0.00211305
  eigenvalues    EBANDS =     -1426.02638771
  atomic energy  EATOM  =     34890.38139807
  Solvation  Ediel_sol  =         0.00000000
  ---------------------------------------------------
  free energy    TOTEN  =      -317.29592325 eV

  energy without entropy =     -317.29381020  energy(sigma->0) =     -317.29486673


--------------------------------------------------------------------------------------------------------




--------------------------------------- Iteration      1(  19)  ---------------------------------------


    POTLOK:  cpu time    0.0722: real time    0.0723
    SETDIJ:  cpu time    0.0084: real time    0.0084
     EDDAV:  cpu time   46.0679: real time   46.1765
    CHARGE:  cpu time    1.6511: real time    1.6550
    MIXING:  cpu time    0.0036: real time    0.0036
    --------------------------------------------
      LOOP:  cpu time   47.8032: real time   47.9159

 eigenvalue-minimisations  : 18352
 total energy-change (2. order) : 0.3210985E-01  (-0.2891339E-01)
 number of electron     395.9999986 magnetization 
 augmentation part      130.0164503 magnetization 

 Broyden mixing:
  rms(total) = 0.32749E+00    rms(broyden)= 0.32739E+00
  rms(prec ) = 0.45934E+00
  weight for this iteration     100.00

 eigenvalues of (default mixing * dielectric matrix)
  average eigenvalue GAMMA=   0.5806
  2.5410  1.1331  0.9087  0.9087  0.4534  0.4534  0.4691  0.2891  0.2364  0.0880
  0.1239  0.1982  0.1511  0.1748

 Free energy of the ion-electron system (eV)
  ---------------------------------------------------
  alpha Z        PSCENC =      1149.28122492
  Ewald energy   TEWEN  =    -21934.25646323
  -Hartree energ DENC   =    -13258.53635047
  -exchange      EXHF   =         0.00000000
  -V(xc)+E(xc)   XCENC  =      1573.98811412
  PAW double counting   =     38734.26564098   -40049.61937772
  entropy T*S    EENTRO =        -0.01377864
  eigenvalues    EBANDS =     -1422.75422143
  atomic energy  EATOM  =     34890.38139807
  Solvation  Ediel_sol  =         0.00000000
  ---------------------------------------------------
  free energy    TOTEN  =      -317.26381340 eV

  energy without entropy =     -317.25003477  energy(sigma->0) =     -317.25692408


--------------------------------------------------------------------------------------------------------




--------------------------------------- Iteration      1(  20)  ---------------------------------------


    POTLOK:  cpu time    0.0736: real time    0.0738
    SETDIJ:  cpu time    0.0089: real time    0.0090
     EDDAV:  cpu time   39.9073: real time   40.0014
    CHARGE:  cpu time    1.5918: real time    1.5956
    MIXING:  cpu time    0.0037: real time    0.0037
    --------------------------------------------
      LOOP:  cpu time   41.5854: real time   41.6835

 eigenvalue-minimisations  : 16080
 total energy-change (2. order) : 0.3318236E-01  (-0.1436429E-01)
 number of electron     395.9999986 magnetization 
 augmentation part      129.9810083 magnetization 

 Broyden mixing:
  rms(total) = 0.21825E+00    rms(broyden)= 0.21819E+00
  rms(prec ) = 0.30982E+00
  weight for this iteration     100.00

 eigenvalues of (default mixing * dielectric matrix)
  average eigenvalue GAMMA=   0.5791
  2.5536  1.3779  0.8662  0.8662  0.5575  0.4543  0.4543  0.3355  0.2625  0.0880
  0.2343  0.1239  0.1929  0.1503  0.1690

 Free energy of the ion-electron system (eV)
  ---------------------------------------------------
  alpha Z        PSCENC =      1149.28122492
  Ewald energy   TEWEN  =    -21934.25646323
  -Hartree energ DENC   =    -13259.97116415
  -exchange      EXHF   =         0.00000000
  -V(xc)+E(xc)   XCENC  =      1573.98868338
  PAW double counting   =     38765.22822563   -40080.56502944
  entropy T*S    EENTRO =        -0.00428282
  eigenvalues    EBANDS =     -1421.31322339
  atomic energy  EATOM  =     34890.38139807
  Solvation  Ediel_sol  =         0.00000000
  ---------------------------------------------------
  free energy    TOTEN  =      -317.23063104 eV

  energy without entropy =     -317.22634822  energy(sigma->0) =     -317.22848963


--------------------------------------------------------------------------------------------------------




--------------------------------------- Iteration      1(  21)  ---------------------------------------


    POTLOK:  cpu time    0.0735: real time    0.0737
    SETDIJ:  cpu time    0.0088: real time    0.0088
     EDDAV:  cpu time   45.0695: real time   45.1757
    CHARGE:  cpu time    1.6618: real time    1.6658
    MIXING:  cpu time    0.0041: real time    0.0041
    --------------------------------------------
      LOOP:  cpu time   46.8176: real time   46.9280

 eigenvalue-minimisations  : 18448
 total energy-change (2. order) : 0.1952561E-01  (-0.4927695E-02)
 number of electron     395.9999986 magnetization 
 augmentation part      129.9650486 magnetization 

 Broyden mixing:
  rms(total) = 0.16042E+00    rms(broyden)= 0.16039E+00
  rms(prec ) = 0.23131E+00
  weight for this iteration     100.00

 eigenvalues of (default mixing * dielectric matrix)
  average eigenvalue GAMMA=   0.5784
  2.5917  1.4537  0.8471  0.8471  0.7136  0.4584  0.4584  0.3562  0.3562  0.2441
  0.0880  0.1239  0.2107  0.1909  0.1507  0.1634

 Free energy of the ion-electron system (eV)
  ---------------------------------------------------
  alpha Z        PSCENC =      1149.28122492
  Ewald energy   TEWEN  =    -21934.25646323
  -Hartree energ DENC   =    -13260.24060256
  -exchange      EXHF   =         0.00000000
  -V(xc)+E(xc)   XCENC  =      1573.96541673
  PAW double counting   =     38765.25003084   -40080.25426179
  entropy T*S    EENTRO =        -0.00818946
  eigenvalues    EBANDS =     -1421.32965894
  atomic energy  EATOM  =     34890.38139807
  Solvation  Ediel_sol  =         0.00000000
  ---------------------------------------------------
  free energy    TOTEN  =      -317.21110543 eV

  energy without entropy =     -317.20291597  energy(sigma->0) =     -317.20701070


--------------------------------------------------------------------------------------------------------




--------------------------------------- Iteration      1(  22)  ---------------------------------------


    POTLOK:  cpu time    0.0831: real time    0.0833
    SETDIJ:  cpu time    0.0091: real time    0.0091
     EDDAV:  cpu time   46.0001: real time   46.1086
    CHARGE:  cpu time    1.8810: real time    1.8854
    MIXING:  cpu time    0.0042: real time    0.0042
    --------------------------------------------
      LOOP:  cpu time   47.9775: real time   48.0907

 eigenvalue-minimisations  : 18416
 total energy-change (2. order) : 0.5396434E-02  (-0.2263960E-02)
 number of electron     395.9999986 magnetization 
 augmentation part      129.9658159 magnetization 

 Broyden mixing:
  rms(total) = 0.13528E+00    rms(broyden)= 0.13526E+00
  rms(prec ) = 0.19225E+00
  weight for this iteration     100.00

 eigenvalues of (default mixing * dielectric matrix)
  average eigenvalue GAMMA=   0.5753
  2.6349  1.5323  0.8765  0.8765  0.7487  0.4608  0.4608  0.3987  0.3987  0.0880
  0.2416  0.2416  0.1239  0.2010  0.1862  0.1500  0.1605

 Free energy of the ion-electron system (eV)
  ---------------------------------------------------
  alpha Z        PSCENC =      1149.28122492
  Ewald energy   TEWEN  =    -21934.25646323
  -Hartree energ DENC   =    -13260.24080024
  -exchange      EXHF   =         0.00000000
  -V(xc)+E(xc)   XCENC  =      1573.94493193
  PAW double counting   =     38764.37524007   -40079.06289447
  entropy T*S    EENTRO =        -0.00543256
  eigenvalues    EBANDS =     -1421.62291347
  atomic energy  EATOM  =     34890.38139807
  Solvation  Ediel_sol  =         0.00000000
  ---------------------------------------------------
  free energy    TOTEN  =      -317.20570900 eV

  energy without entropy =     -317.20027644  energy(sigma->0) =     -317.20299272


--------------------------------------------------------------------------------------------------------




--------------------------------------- Iteration      1(  23)  ---------------------------------------


    POTLOK:  cpu time    0.0771: real time    0.0772
    SETDIJ:  cpu time    0.0088: real time    0.0089
     EDDAV:  cpu time   49.5178: real time   49.6345
    CHARGE:  cpu time    1.7666: real time    1.7708
    MIXING:  cpu time    0.0041: real time    0.0041
    --------------------------------------------
      LOOP:  cpu time   51.3744: real time   51.4955

 eigenvalue-minimisations  : 18352
 total energy-change (2. order) : 0.4363832E-02  (-0.9011893E-03)
 number of electron     395.9999986 magnetization 
 augmentation part      129.9662884 magnetization 

 Broyden mixing:
  rms(total) = 0.11041E+00    rms(broyden)= 0.11041E+00
  rms(prec ) = 0.16154E+00
  weight for this iteration     100.00

 eigenvalues of (default mixing * dielectric matrix)
  average eigenvalue GAMMA=   0.5781
  2.6367  1.6271  0.9365  0.9365  0.5918  0.5918  0.4568  0.4568  0.4783  0.2971
  0.2697  0.0880  0.2306  0.1239  0.1939  0.1811  0.1506  0.1590

 Free energy of the ion-electron system (eV)
  ---------------------------------------------------
  alpha Z        PSCENC =      1149.28122492
  Ewald energy   TEWEN  =    -21934.25646323
  -Hartree energ DENC   =    -13260.43818040
  -exchange      EXHF   =         0.00000000
  -V(xc)+E(xc)   XCENC  =      1573.93862937
  PAW double counting   =     38761.84858208   -40076.25899010
  entropy T*S    EENTRO =        -0.00578680
  eigenvalues    EBANDS =     -1421.69175907
  atomic energy  EATOM  =     34890.38139807
  Solvation  Ediel_sol  =         0.00000000
  ---------------------------------------------------
  free energy    TOTEN  =      -317.20134516 eV

  energy without entropy =     -317.19555836  energy(sigma->0) =     -317.19845176


--------------------------------------------------------------------------------------------------------




--------------------------------------- Iteration      1(  24)  ---------------------------------------


    POTLOK:  cpu time    0.0753: real time    0.0755
    SETDIJ:  cpu time    0.0087: real time    0.0087
     EDDAV:  cpu time   49.1351: real time   49.2509
    CHARGE:  cpu time    1.7976: real time    1.8018
    MIXING:  cpu time    0.0069: real time    0.0069
    --------------------------------------------
      LOOP:  cpu time   51.0235: real time   51.1438

 eigenvalue-minimisations  : 18720
 total energy-change (2. order) : 0.3476069E-02  (-0.3734983E-03)
 number of electron     395.9999986 magnetization 
 augmentation part      129.9474182 magnetization 

 Broyden mixing:
  rms(total) = 0.91266E-01    rms(broyden)= 0.91262E-01
  rms(prec ) = 0.13240E+00
  weight for this iteration     100.00

 eigenvalues of (default mixing * dielectric matrix)
  average eigenvalue GAMMA=   0.6005
  2.6375  1.6581  1.0902  1.0902  0.7421  0.7421  0.5322  0.4547  0.4547  0.3299
  0.3299  0.0880  0.2443  0.2169  0.1239  0.1924  0.1750  0.1502  0.1575

 Free energy of the ion-electron system (eV)
  ---------------------------------------------------
  alpha Z        PSCENC =      1149.28122492
  Ewald energy   TEWEN  =    -21934.25646323
  -Hartree energ DENC   =    -13260.81231491
  -exchange      EXHF   =         0.00000000
  -V(xc)+E(xc)   XCENC  =      1573.94005226
  PAW double counting   =     38755.04469512   -40069.18588426
  entropy T*S    EENTRO =        -0.00483079
  eigenvalues    EBANDS =     -1421.58574626
  atomic energy  EATOM  =     34890.38139807
  Solvation  Ediel_sol  =         0.00000000
  ---------------------------------------------------
  free energy    TOTEN  =      -317.19786909 eV

  energy without entropy =     -317.19303830  energy(sigma->0) =     -317.19545370


--------------------------------------------------------------------------------------------------------




--------------------------------------- Iteration      1(  25)  ---------------------------------------


    POTLOK:  cpu time    0.0835: real time    0.0837
    SETDIJ:  cpu time    0.0114: real time    0.0114
     EDDAV:  cpu time   45.7037: real time   45.8115
    CHARGE:  cpu time    1.6011: real time    1.6049
    MIXING:  cpu time    0.0047: real time    0.0047
    --------------------------------------------
      LOOP:  cpu time   47.4043: real time   47.5162

 eigenvalue-minimisations  : 18768
 total energy-change (2. order) : 0.2348441E-02  (-0.1760045E-03)
 number of electron     395.9999986 magnetization 
 augmentation part      129.9403205 magnetization 

 Broyden mixing:
  rms(total) = 0.77807E-01    rms(broyden)= 0.77805E-01
  rms(prec ) = 0.11592E+00
  weight for this iteration     100.00

 eigenvalues of (default mixing * dielectric matrix)
  average eigenvalue GAMMA=   0.6306
  2.6168  1.7468  1.3732  1.3732  0.8530  0.8530  0.5757  0.4562  0.4562  0.3673
  0.3427  0.0880  0.2528  0.2406  0.1239  0.2171  0.1924  0.1754  0.1503  0.1575

 Free energy of the ion-electron system (eV)
  ---------------------------------------------------
  alpha Z        PSCENC =      1149.28122492
  Ewald energy   TEWEN  =    -21934.25646323
  -Hartree energ DENC   =    -13261.14934579
  -exchange      EXHF   =         0.00000000
  -V(xc)+E(xc)   XCENC  =      1573.94813424
  PAW double counting   =     38749.33983397   -40063.27899198
  entropy T*S    EENTRO =        -0.00468708
  eigenvalues    EBANDS =     -1421.45662377
  atomic energy  EATOM  =     34890.38139807
  Solvation  Ediel_sol  =         0.00000000
  ---------------------------------------------------
  free energy    TOTEN  =      -317.19552065 eV

  energy without entropy =     -317.19083357  energy(sigma->0) =     -317.19317711


--------------------------------------------------------------------------------------------------------




--------------------------------------- Iteration      1(  26)  ---------------------------------------


    POTLOK:  cpu time    0.0756: real time    0.0758
    SETDIJ:  cpu time    0.0094: real time    0.0094
     EDDAV:  cpu time   47.5564: real time   47.6684
    CHARGE:  cpu time    1.5557: real time    1.5594
    MIXING:  cpu time    0.0045: real time    0.0045
    --------------------------------------------
      LOOP:  cpu time   49.2016: real time   49.3176

 eigenvalue-minimisations  : 18896
 total energy-change (2. order) : 0.3225656E-02  (-0.2853746E-03)
 number of electron     395.9999986 magnetization 
 augmentation part      129.9268084 magnetization 

 Broyden mixing:
  rms(total) = 0.53690E-01    rms(broyden)= 0.53686E-01
  rms(prec ) = 0.81809E-01
  weight for this iteration     100.00

 eigenvalues of (default mixing * dielectric matrix)
  average eigenvalue GAMMA=   0.6495
[...]
  0.045  -0.368  -0.123   0.011   0.226  -0.065   0.406   0.119   0.009  -0.252   0.139  -0.034   0.431   0.078   0.030  -0.070
 -0.048  -0.280  -0.087   0.036   0.046   0.054   0.330   0.096  -0.048  -0.084   0.165  -0.046   0.078   0.315  -0.029  -0.015
  0.080  -0.045  -0.059  -0.140   0.037  -0.070   0.054   0.059   0.138  -0.045  -0.059   0.012   0.030  -0.029   0.322  -0.004
 -0.010   0.075   0.011   0.008  -0.045   0.016  -0.081  -0.016  -0.009   0.050  -0.030   0.009  -0.070  -0.015  -0.004   0.016
  0.010   0.056   0.019  -0.002  -0.023  -0.010  -0.066  -0.017   0.009   0.026  -0.038   0.011  -0.015  -0.048   0.005   0.004
 -0.009   0.010   0.001   0.028   0.006   0.012  -0.011  -0.006  -0.026   0.002   0.014  -0.004  -0.004   0.005  -0.049   0.001


------------------------ aborting loop because EDIFF is reached ----------------------------------------


    CHARGE:  cpu time    1.5572: real time    1.5608
    FORLOC:  cpu time    0.0348: real time    0.0349
    FORNL :  cpu time   11.2508: real time   11.2773
    STRESS:  cpu time   31.0882: real time   31.1615
    FORCOR:  cpu time    0.1043: real time    0.1046
    FORHAR:  cpu time    0.0506: real time    0.0507
    MIXING:  cpu time    0.0063: real time    0.0063
    OFIELD:  cpu time    0.0001: real time    0.0001

  FORCE on cell =-STRESS in cart. coord.  units (eV):
  Direction    XX          YY          ZZ          XY          YZ          ZX
  --------------------------------------------------------------------------------------
  Alpha Z  1149.28122  1149.28122  1149.28122
  Ewald   -2044.41047 -1628.99820-18260.99167    84.73201   175.36382  -158.92572
  Hartree  8307.64082  8441.97070 -3487.53755   -13.66149    66.59616   -67.09737
  E(xc)   -2011.06188 -2011.21334 -2014.57128    -0.20726    -0.29600     0.19700
  Local  -13890.70181-14396.64294 13910.23191   -57.24486  -228.68974   214.80125
  n-local  -875.28323  -863.29786  -892.40712     5.25664     8.08544    -4.96128
  augment  3360.96835  3335.98853  3419.56931    -6.92303    -6.85530     5.72096
  Kinetic  5983.93191  5966.39695  6155.89045    -6.25798    -1.97262     0.13369
  Fock        0.00000     0.00000     0.00000     0.00000     0.00000     0.00000
  -------------------------------------------------------------------------------------
  Total      -19.6350984     -6.5149449    -20.5347196      5.6940268     12.2317464    -10.1314734
  in kB      -52.1208040    -17.2937339    -54.5088223     15.1146303     32.4688190    -26.8937047
  external PRESSURE =     -41.3077867 kB  Pullay stress =       0.0000000 kB


 VOLUME and BASIS-vectors are now :
 -----------------------------------------------------------------------------
  energy-cutoff  :      500.00
  volume of cell :      603.58
      direct lattice vectors                 reciprocal lattice vectors
     8.571941750  0.000000000  0.000000000     0.116659682  0.067353499  0.000000000
    -4.285970880  7.423519320  0.000000000     0.000000000  0.134706998  0.000000000
     0.000000000  0.000000000  9.485134750     0.000000000  0.000000000  0.105428128

  length of vectors
     8.571941750  8.571941757  9.485134750     0.134706998  0.134706998  0.105428128


 FORCES acting on ions
    electron-ion (+dipol)            ewald-force                    non-local-force                 convergence-correction
 -----------------------------------------------------------------------------------------------
   -.608E+01 0.870E+02 0.813E+02   0.464E+01 -.880E+02 -.830E+02   0.912E+00 -.197E+00 0.243E+00   -.413E-01 -.591E-02 -.118E-01
   0.166E+03 0.309E+02 0.536E+02   -.167E+03 -.324E+02 -.526E+02   -.875E+00 0.173E+01 -.552E+00   0.137E-01 0.748E-02 0.460E-02
   0.127E+03 0.964E+02 -.185E+02   -.130E+03 -.998E+02 0.155E+02   -.176E+01 0.459E+00 -.502E+00   -.136E-01 -.344E-01 -.129E-02
   0.111E+03 0.118E+03 -.846E+02   -.114E+03 -.119E+03 0.869E+02   -.146E+01 0.561E+00 0.120E+00   -.716E-04 -.157E-01 -.478E-02
   0.178E+03 0.630E+02 0.447E+02   -.182E+03 -.652E+02 -.455E+02   0.181E+00 -.106E+01 0.636E+00   -.466E-01 -.240E-01 -.681E-02
   0.610E+02 -.602E+02 -.446E+02   -.623E+02 0.607E+02 0.438E+02   0.489E+00 -.245E+00 0.249E+00   -.711E-02 0.998E-02 -.162E-02
   0.368E+02 -.296E+01 0.973E+02   -.360E+02 0.375E+01 -.991E+02   0.145E+01 -.473E+00 -.225E+01   0.899E-02 0.234E-01 -.763E-02
   0.181E+02 0.626E+02 -.381E+02   -.173E+02 -.646E+02 0.376E+02   -.446E+00 -.122E+01 -.220E+01   0.123E-03 0.112E-01 -.364E-02
   0.184E+02 0.117E+03 -.925E+01   -.176E+02 -.123E+03 0.428E+01   -.114E+01 -.168E+00 -.128E+01   0.576E-02 0.128E-01 -.416E-02
   -.485E+02 -.617E+02 -.685E+02   0.494E+02 0.677E+02 0.682E+02   -.104E+00 -.125E+00 -.171E+01   0.129E-01 -.221E-01 -.525E-02
   -.702E+02 -.445E+02 0.361E+02   0.720E+02 0.456E+02 -.385E+02   0.206E+00 -.296E+00 0.706E+00   0.398E-01 -.776E-02 -.159E-01
   -.638E+02 -.979E+02 -.550E+02   0.682E+02 0.101E+03 0.540E+02   -.120E+01 -.174E+00 -.595E+00   0.910E-03 0.127E-01 0.854E-03
   -.132E+03 -.899E+00 0.113E+02   0.137E+03 0.157E+01 -.144E+02   0.802E+00 -.591E+00 -.975E+00   0.421E-01 0.833E-02 -.930E-02
   -.173E+03 0.117E+03 -.139E+02   0.175E+03 -.121E+03 0.135E+02   0.342E+00 -.297E+00 -.191E+01   -.163E-01 0.527E-02 -.306E-02
   -.826E+02 -.849E+02 -.371E+02   0.861E+02 0.871E+02 0.342E+02   -.490E+00 -.174E+01 -.152E+01   0.116E-01 0.181E-01 -.113E-03
   0.642E+02 0.231E+02 -.247E+02   -.660E+02 -.210E+02 0.245E+02   -.119E+00 -.154E+01 -.226E+00   -.107E-01 -.140E-01 -.239E-02
   -.602E+02 0.388E+01 0.429E+02   0.623E+02 -.342E+01 -.433E+02   -.850E+00 -.162E+01 0.505E+00   0.121E-01 0.106E-01 -.143E-01
   -.459E+02 -.128E+03 0.474E+02   0.450E+02 0.128E+03 -.474E+02   0.430E+00 -.660E+00 0.104E+01   0.625E-02 -.459E-02 0.692E-02
   -.750E+00 0.632E+02 -.316E+03   0.272E+01 -.648E+02 0.343E+03   -.909E+00 0.268E+01 -.282E+02   -.217E-01 -.110E-01 0.275E-01
   0.184E+02 0.111E+03 0.400E+03   -.168E+02 -.116E+03 -.429E+03   -.188E+01 0.180E+00 0.286E+02   0.854E-02 -.915E-02 0.576E-01
   0.856E+02 0.128E+03 -.400E+03   -.907E+02 -.134E+03 0.428E+03   0.350E+01 0.450E+01 -.286E+02   0.750E-02 -.751E-02 -.409E-01
   0.197E+02 0.601E+02 0.281E+03   -.182E+02 -.586E+02 -.300E+03   -.172E+01 -.285E+01 0.228E+02   -.179E-01 0.301E-02 -.535E-01
   0.975E+02 -.948E+01 -.349E+03   -.102E+03 0.145E+02 0.378E+03   0.438E+01 -.381E+01 -.281E+02   -.391E-02 -.316E-01 0.382E-01
   -.264E+02 -.332E+01 0.415E+03   0.334E+02 0.511E+01 -.445E+03   -.513E+01 -.432E+00 0.291E+02   0.163E-02 -.855E-02 0.372E-01
   0.810E+02 -.326E+02 -.414E+03   -.867E+02 0.352E+02 0.444E+03   0.353E+01 -.114E+01 -.251E+02   -.875E-03 -.156E-02 -.280E-01
   -.163E+02 0.473E+02 0.365E+03   0.196E+02 -.516E+02 -.390E+03   -.274E+01 0.349E+01 0.278E+02   -.239E-02 -.156E-01 -.444E-01
   0.109E+03 0.207E+01 -.328E+03   -.117E+03 -.294E+01 0.356E+03   0.605E+01 0.120E+01 -.282E+02   -.394E-01 -.568E-03 0.549E-01
   0.636E+02 -.764E+02 0.368E+03   -.655E+02 0.849E+02 -.392E+03   -.423E+00 -.762E+01 0.230E+02   -.209E-02 0.182E-01 0.419E-01
   0.772E+02 0.418E+02 -.369E+03   -.817E+02 -.460E+02 0.396E+03   0.187E+01 0.353E+01 -.260E+02   0.123E-01 0.238E-01 -.485E-01
   0.288E+02 -.671E+02 0.383E+03   -.257E+02 0.717E+02 -.411E+03   -.298E+01 -.263E+01 0.277E+02   0.600E-02 -.403E-02 -.633E-01
   0.118E+02 0.247E+02 -.318E+03   -.121E+02 -.261E+02 0.346E+03   -.126E+01 0.212E+01 -.274E+02   0.244E-01 0.315E-01 0.423E-01
   -.458E+02 -.240E+02 0.388E+03   0.473E+02 0.253E+02 -.416E+03   0.933E-01 0.200E+01 0.281E+02   -.154E-01 -.217E-02 0.606E-01
   -.821E+02 -.896E+01 -.395E+03   0.888E+02 0.107E+02 0.425E+03   -.350E+01 -.149E+01 -.291E+02   0.332E-02 -.192E-01 -.520E-01
   0.289E+02 0.159E+02 0.342E+03   -.311E+02 -.131E+02 -.365E+03   0.696E+00 -.330E+01 0.259E+02   0.221E-01 0.110E-01 -.373E-01
   -.245E+02 -.102E+03 -.333E+03   0.245E+02 0.116E+03 0.363E+03   0.978E-01 -.779E+01 -.285E+02   0.247E-01 0.211E-01 0.326E-01
   -.301E+02 0.295E+02 0.344E+03   0.283E+02 -.358E+02 -.368E+03   0.215E+01 0.437E+01 0.253E+02   0.643E-02 -.102E-01 0.382E-01
   -.593E+02 -.466E+02 -.388E+03   0.629E+02 0.485E+02 0.414E+03   -.328E+01 -.214E+01 -.255E+02   0.270E-02 -.593E-02 -.263E-01
   -.266E+01 -.382E+02 0.324E+03   0.123E+01 0.374E+02 -.346E+03   0.667E+00 0.187E+01 0.254E+02   0.132E-01 0.167E-01 -.313E-01
   0.203E+02 0.182E+01 -.341E+03   -.242E+02 -.521E+01 0.369E+03   0.150E+01 0.352E+01 -.276E+02   0.408E-01 0.124E-01 0.369E-01
   -.778E+02 -.123E+03 0.344E+03   0.790E+02 0.131E+03 -.367E+03   0.110E+01 -.741E+01 0.230E+02   -.452E-03 0.685E-02 0.356E-01
   -.370E+02 0.917E+01 -.355E+03   0.382E+02 -.133E+02 0.378E+03   -.127E+01 0.459E+01 -.213E+02   -.117E-01 0.214E-01 -.375E-01
   -.277E+02 -.384E+02 0.354E+03   0.269E+02 0.420E+02 -.378E+03   -.162E+00 -.415E+01 0.260E+02   0.308E-01 0.744E-02 -.268E-01
   -.754E+02 -.499E+02 -.308E+03   0.828E+02 0.551E+02 0.331E+03   -.763E+01 -.400E+01 -.221E+02   0.242E-02 -.393E-02 0.170E-01
   0.680E+01 0.191E+03 0.351E+03   -.927E+01 -.203E+03 -.377E+03   0.257E+01 0.532E+01 0.247E+02   -.630E-03 -.229E-02 0.344E-01
   -.532E+02 0.146E+00 -.373E+03   0.594E+02 0.608E+01 0.400E+03   -.588E+01 -.558E+01 -.249E+02   -.119E-01 -.760E-02 -.384E-01
   -.171E+02 0.524E+02 0.302E+03   0.132E+02 -.532E+02 -.320E+03   0.533E+01 -.297E+00 0.209E+02   -.817E-03 -.907E-02 -.200E-01
   -.538E+02 -.583E+02 -.279E+03   0.555E+02 0.632E+02 0.302E+03   -.139E+01 -.458E+01 -.238E+02   -.205E-01 -.414E-02 0.207E-01
   -.965E+01 -.107E+01 0.368E+03   0.148E+02 -.256E+00 -.393E+03   -.365E+01 0.242E+01 0.242E+02   -.103E-01 -.753E-02 0.341E-01
   0.204E+02 -.467E+02 -.373E+03   -.236E+02 0.497E+02 0.396E+03   0.283E+01 -.379E+01 -.244E+02   -.106E-02 -.766E-02 -.325E-01
   -.199E+02 -.350E+02 0.268E+03   0.219E+02 0.327E+02 -.285E+03   -.168E+01 0.365E+01 0.196E+02   -.105E-01 -.167E-01 -.290E-01
   -.385E+02 -.389E+02 -.307E+03   0.384E+02 0.415E+02 0.331E+03   0.298E+00 -.200E+01 -.238E+02   0.266E-03 -.626E-02 0.703E-02
   0.204E+02 -.659E+02 0.342E+03   -.197E+02 0.649E+02 -.366E+03   -.846E+00 0.325E+01 0.239E+02   0.249E-02 0.806E-02 0.349E-01
   -.273E+02 -.852E+02 -.302E+03   0.274E+02 0.887E+02 0.325E+03   0.827E+00 -.118E+01 -.233E+02   0.227E-02 0.887E-02 -.257E-01
   -.461E+02 -.397E+02 0.313E+03   0.495E+02 0.403E+02 -.335E+03   -.224E+01 0.836E+00 0.242E+02   -.344E-01 0.630E-03 -.241E-01
 -----------------------------------------------------------------------------------------------
   0.146E+02 0.243E+02 0.258E+02   0.348E-12 -.142E-13 0.341E-12   -.147E+02 -.243E+02 -.257E+02   0.246E-01 -.101E-01 -.873E-01
 
 
 POSITION                                       TOTAL-FORCE (eV/Angst)
 -----------------------------------------------------------------------------------
      4.22522      7.41091      9.41667        -0.561623     -1.118112     -1.422117
      4.37884      7.23908      4.58019        -1.921211      0.276252      0.537896
     -1.16455      2.46301      0.07103        -4.837916     -3.005327     -3.480184
     -1.28824      2.41954      4.65269        -4.624273     -1.055053      2.419318
     -2.72881      4.91685      9.38343        -3.719947     -3.307693     -0.253421
      5.77094      4.78451      4.67624        -0.822438      0.189656     -0.586542
     -1.51828      7.29602      0.02935         2.258025      0.342373     -4.048919
      2.79849      0.00317      4.75416         0.366948     -3.270408     -2.691940
      1.50094      2.45571      0.15507        -0.285737     -6.240622     -6.262453
      1.36266      2.27620      4.76404         0.772821      5.889253     -2.060391
      0.00273      4.79629      9.40052         2.024004      0.852003     -1.646332
     -0.04338      4.69463      4.64781         3.185540      3.237799     -1.589348
      1.14687      7.36817      0.00748         5.642346      0.091634     -4.075866
      5.52471      0.10524      4.72404         2.284797     -3.988729     -2.351994
      4.18916      2.37063      0.05530         2.955037      0.543612     -4.389762
      4.20815      2.41503      4.69101        -1.862778      0.494191     -0.387525
      2.76987      4.89796      9.36626         1.215497     -1.152405      0.102108
      2.75447      4.83134      4.51610        -0.456256     -0.233861      0.993901
     -0.05499      1.40613      1.07570         1.038013      1.035297     -1.336840
      1.45711      1.02598      3.63932        -0.257126     -4.486716     -0.198572
      0.05429      1.60097      5.69101        -1.540443     -2.015216     -0.473091
      1.37613      0.97349      8.21422        -0.200290     -1.328143      3.992544
     -1.32963      4.00632      0.82370        -0.384848      1.175304      1.405123
     -0.00207      3.03749      3.71234         1.845760      1.349134     -1.096077
     -1.34065      3.92192      5.37700        -2.212452      1.479832      4.982758
      0.01725      3.29746      8.31173         0.585296     -0.815896      2.506852
     -2.70400      6.41793      0.92568        -1.967613      0.336388     -0.147183
     -1.30677      5.54912      3.77431        -2.325244      0.941347     -1.107259
     -2.71746      6.49758      5.51101        -2.609765     -0.614773      1.023044
     -1.38023      5.48383      8.38005         0.168573      1.956247      0.487906
      2.92455      1.43915      0.88303        -1.572000      0.773376      1.314003
      4.05801      0.51661      3.69041         1.587560      3.289937      0.250155
      2.61833      1.54746      5.64924         3.197842      0.268997      1.332733
      4.35343      0.80814      8.23404        -1.490621     -0.420991      3.153394
      1.42064      3.84948      0.94756         0.108579      5.794841      1.621487
      2.77220      3.29953      3.60285         0.395788     -1.947959      1.488340
      1.38730      4.00999      5.54442         0.403449     -0.253434      0.280185
      2.91984      3.06198      8.26102        -0.753261      1.129875      3.451464
      0.04356      6.36246      0.84250        -2.441491      0.146224      1.135558
      1.15013      5.47423      3.59918         2.302110      1.037315      0.425429
     -0.05536      6.41649      5.48846        -0.066979      0.516668      1.424059
      1.43091      5.73613      8.34928        -0.869531     -0.560245      1.913957
      5.63258      1.48756      0.85776        -0.252878      1.214084      1.137102
      6.93382      1.14845      3.72775         0.097370     -6.593860     -1.849435
      5.59774      1.64115      5.54058         0.293134      0.630026      1.716982
      6.93771      0.96768      8.33622         1.433600     -1.080917      2.715873
      4.19288      4.03243      0.96531         0.270275      0.254861     -1.739051
      5.53732      3.12980      3.78084         1.449626      1.087321     -0.624469
      4.26722      4.10046      5.62216        -0.362340     -0.805948     -0.886803
      5.60114      3.02383      8.25490         0.319740      1.347760      3.124894
      2.74631      6.46090      0.86191         0.158675      0.645907     -0.707794
      4.34323      5.48134      3.73758        -0.093269      2.203105     -0.298177
      2.70161      6.33184      5.48757         0.996806      2.333843     -0.651487
      4.16280      5.60037      8.39931         1.135119      1.431843      1.425968
 -----------------------------------------------------------------------------------
    total drift:                               -0.023981      0.017790     -0.014459


--------------------------------------------------------------------------------------------------------



  FREE ENERGIE OF THE ION-ELECTRON SYSTEM (eV)
  ---------------------------------------------------
  free  energy   TOTEN  =      -317.1882124796 eV

  energy  without entropy=     -317.1865382872  energy(sigma->0) =     -317.18737538
 


--------------------------------------------------------------------------------------------------------


    POTLOK:  cpu time    0.0823: real time    0.0825


--------------------------------------------------------------------------------------------------------


     LOOP+:  cpu time 1693.4628: real time 1697.6976
    4ORBIT:  cpu time    0.0000: real time    0.0000

volume of typ            1:    19.0 %

volume of typ            2:     9.7 %
 
total charge     
 
# of ion       s       p       d       tot
------------------------------------------
    1        0.237   0.264   7.799   8.301
    2        0.232   0.240   7.821   8.293
    3        0.281   0.350   7.822   8.453
    4        0.357   0.539   7.884   8.780
    5        0.269   0.324   7.817   8.410
    6        0.291   0.390   7.817   8.498
    7        0.274   0.321   7.837   8.432
    8        0.319   0.446   7.838   8.604
    9        0.289   0.370   7.847   8.506
   10        0.346   0.506   7.861   8.713
   11        0.298   0.409   7.829   8.536
   12        0.340   0.518   7.850   8.708
   13        0.302   0.392   7.811   8.505
   14        0.280   0.339   7.824   8.443
   15        0.284   0.376   7.789   8.449
   16        0.278   0.350   7.823   8.452
   17        0.273   0.343   7.793   8.409
   18        0.297   0.406   7.799   8.502
   19        1.290   2.686   0.008   3.984
   20        1.294   2.705   0.009   4.009
   21        1.294   2.696   0.009   3.998
   22        1.304   2.602   0.003   3.909
   23        1.280   2.756   0.011   4.048
   24        1.291   2.742   0.011   4.044
   25        1.270   2.847   0.015   4.133
   26        1.300   2.658   0.006   3.965
   27        1.288   2.711   0.009   4.009
   28        1.294   2.703   0.008   4.004
   29        1.280   2.745   0.010   4.034
   30        1.292   2.698   0.008   3.998
   31        1.281   2.740   0.010   4.031
   32        1.292   2.710   0.009   4.012
   33        1.284   2.747   0.011   4.042
   34        1.305   2.626   0.005   3.936
   35        1.285   2.750   0.012   4.048
   36        1.291   2.686   0.006   3.984
   37        1.283   2.728   0.008   4.019
   38        1.305   2.618   0.005   3.927
   39        1.284   2.739   0.010   4.033
   40        1.296   2.674   0.006   3.976
   41        1.287   2.703   0.007   3.997
   42        1.294   2.664   0.006   3.964
   43        1.285   2.702   0.007   3.995
   44        1.294   2.719   0.010   4.023
   45        1.287   2.727   0.010   4.024
   46        1.307   2.601   0.004   3.912
   47        1.292   2.655   0.005   3.952
   48        1.295   2.698   0.008   4.001
   49        1.296   2.662   0.006   3.965
   50        1.310   2.584   0.003   3.897
   51        1.289   2.675   0.006   3.970
   52        1.286   2.704   0.007   3.997
   53        1.287   2.680   0.006   3.974
   54        1.292   2.659   0.005   3.956
--------------------------------------------------
tot          51.73  103.89  141.14  296.76
 

 total amount of memory used by VASP MPI-rank0   186383. kBytes
=======================================================================

   base      :      30000. kBytes
   nonlr-proj:      30002. kBytes
   fftplans  :       6058. kBytes
   grid      :      19644. kBytes
   one-center:        839. kBytes
   wavefun   :      99840. kBytes
 
  
  
 General timing and accounting informations for this job:
 ========================================================
  
                  Total CPU time used (sec):     1722.517
                            User time (sec):     1718.611
                          System time (sec):        3.906
                         Elapsed time (sec):     1730.198
  
                   Maximum memory used (kb):      251784.
                   Average memory used (kb):           0.
  
                          Minor page faults:        39322
                          Major page faults:           50
                 Voluntary context switches:         1289
