 vasp.5.4.4.18Apr17-6-g9f103f2a35 (build May 12 2020 04:58:55) complex          
  
 MD_VERSION_INFO: Compiled 2020-05-12T11:58:55-UTC in devlin.sd.materialsdesign.
 com:/home/medea2/data/build/wwolf/vasp-gpu5.4.4/13047/x86_64/src/src/build/std 
 from svn 13047
 
 This VASP executable licensed from Materials Design, Inc.
 
 executed on                        Lin64 date 2023.04.27  08:37:08
 running on   16 total cores
 distrk:  each k-point on   16 cores,    1 groups
 distr:  one band on NCORES_PER_BAND=   1 cores,   16 groups


--------------------------------------------------------------------------------------------------------


 INCAR:
 POTCAR:    PAW_PBE Ni 02Aug2007                  
 POTCAR:    PAW_PBE O 08Apr2002                   

 ----------------------------------------------------------------------------- 
|                                                                             |
|           W    W    AA    RRRRR   N    N  II  N    N   GGGG   !!!           |
|           W    W   A  A   R    R  NN   N  II  NN   N  G    G  !!!           |
|           W    W  A    A  R    R  N N  N  II  N N  N  G       !!!           |
|           W WW W  AAAAAA  RRRRR   N  N N  II  N  N N  G  GGG   !            |
|           WW  WW  A    A  R   R   N   NN  II  N   NN  G    G                |
|           W    W  A    A  R    R  N    N  II  N    N   GGGG   !!!           |
|                                                                             |
|      For optimal performance we recommend to set                            |
|        NCORE= 4 - approx SQRT( number of cores)                             |
|      NCORE specifies how many cores store one orbital (NPAR=cpu/NCORE).     |
|      This setting can  greatly improve the performance of VASP for DFT.     |
|      The default,   NCORE=1            might be grossly inefficient         |
|      on modern multi-core architectures or massively parallel machines.     |
|      Do your own testing !!!!                                               |
|      Unfortunately you need to use the default for GW and RPA calculations. |
|      (for HF NCORE is supported but not extensively tested yet)             |
|                                                                             |
 ----------------------------------------------------------------------------- 

 POTCAR:    PAW_PBE Ni 02Aug2007                  
  local pseudopotential read in
  partial core-charges read in
  partial kinetic energy density read in
  atomic valenz-charges read in
  non local Contribution for L=           2  read in
    real space projection operators read in
  non local Contribution for L=           2  read in
    real space projection operators read in
  non local Contribution for L=           0  read in
    real space projection operators read in
  non local Contribution for L=           0  read in
    real space projection operators read in
  non local Contribution for L=           1  read in
    real space projection operators read in
  non local Contribution for L=           1  read in
    real space projection operators read in
    PAW grid and wavefunctions read in
 
   number of l-projection  operators is LMAX  =           6
   number of lm-projection operators is LMMAX =          18
 
 POTCAR:    PAW_PBE O 08Apr2002                   
  local pseudopotential read in
  partial core-charges read in
  partial kinetic energy density read in
  kinetic energy density of atom read in
  atomic valenz-charges read in
  non local Contribution for L=           0  read in
    real space projection operators read in
  non local Contribution for L=           0  read in
    real space projection operators read in
  non local Contribution for L=           1  read in
    real space projection operators read in
  non local Contribution for L=           1  read in
    real space projection operators read in
    PAW grid and wavefunctions read in
 
   number of l-projection  operators is LMAX  =           4
   number of lm-projection operators is LMMAX =           8
 
 Optimization of the real space projectors (new method)

 maximal supplied QI-value         = 16.25
 optimisation between [QCUT,QGAM] = [ 11.38, 22.75] = [ 36.24,144.96] Ry 
 Optimized for a Real-space Cutoff    1.47 Angstroem

   l    n(q)    QCUT    max X(q) W(low)/X(q) W(high)/X(q)  e(spline) 
   2      9    11.376    60.317    0.17E-03    0.16E-04    0.16E-06
   2      9    11.376    55.921    0.17E-03    0.16E-04    0.17E-06
   0     10    11.376    51.690    0.45E-04    0.60E-04    0.21E-06
   0     10    11.376    30.015    0.37E-04    0.55E-04    0.19E-06
   1     10    11.376    18.849    0.83E-04    0.11E-03    0.92E-07
   1     10    11.376    14.624    0.69E-04    0.92E-04    0.82E-07
 Optimization of the real space projectors (new method)

 maximal supplied QI-value         = 24.76
 optimisation between [QCUT,QGAM] = [ 11.39, 22.77] = [ 36.31,145.25] Ry 
 Optimized for a Real-space Cutoff    1.10 Angstroem

   l    n(q)    QCUT    max X(q) W(low)/X(q) W(high)/X(q)  e(spline) 
   0      7    11.387    20.381    0.22E-03    0.48E-03    0.18E-06
   0      7    11.387    15.268    0.22E-03    0.52E-03    0.19E-06
   1      7    11.387     5.964    0.22E-03    0.73E-03    0.24E-06
   1      7    11.387     5.382    0.19E-03    0.60E-03    0.21E-06

 ----------------------------------------------------------------------------- 
|                                                                             |
|  ADVICE TO THIS USER RUNNING 'VASP/VAMP'   (HEAR YOUR MASTER'S VOICE ...):  |
|                                                                             |
|      You enforced a specific xc-type in the INCAR file,                     |
|      a different type was found on the POTCAR file                          |
|          I HOPE YOU KNOW, WHAT YOU ARE  DOING                               |
|                                                                             |
 ----------------------------------------------------------------------------- 

  PAW_PBE Ni 02Aug2007                  :
 energy of atom  1       EATOM=-1077.6739
 kinetic energy error for atom=    0.0030 (will be added to EATOM!!)
  PAW_PBE O 08Apr2002                   :
 energy of atom  2       EATOM= -432.3788
 kinetic energy error for atom=    0.0224 (will be added to EATOM!!)
 
 
 POSCAR: NiO2_C2_m_scale_1_025_disp_0_02_round_2 
  positions in direct lattice
  No initial velocities read in
 exchange correlation table for  LEXCH =       14
   RHO(1)=    0.500       N(1)  =     2000
   RHO(2)=  100.500       N(2)  =     4000
 


--------------------------------------------------------------------------------------------------------


 ion  position               nearest neighbor table
   1  0.001  1.000  0.001-  19 1.87  22 1.96  51 2.01  27 2.03  46 2.13  54 2.15   7 2.76   9 2.78
                             3 2.79  13 3.00   5 3.03  17 3.03
   2  0.003  0.999  0.487-  20 1.83  21 1.85  53 2.00  29 2.00  52 2.02  44 2.04   8 2.75  10 2.77
                             4 2.79   6 2.99  14 3.02  18 3.02
   3  0.005  0.327  0.999-  19 1.85  23 1.87  26 1.97  46 2.02  43 2.08  50 2.17   9 2.75   5 2.76
                            11 2.79   1 2.79  13 2.96  15 3.03
   4  0.001  0.324  0.487-  24 1.83  21 1.84  25 1.88  44 1.89  48 2.00  45 2.04  10 2.78   6 2.79
                             2 2.79  12 2.79  14 2.88  16 3.02
   5  0.998  0.645  0.996-  23 1.85  27 1.88  50 1.94  30 1.97  47 2.03  54 2.11   3 2.76  11 2.77
                            15 2.88   7 2.90  17 2.99   1 3.03
   6  0.997  0.648  0.488-  25 1.82  29 1.88  48 1.88  28 1.91  49 1.98  52 2.03  12 2.78   4 2.79
                            16 2.89   8 2.92   2 2.99  18 2.99
   7  0.321  0.996  0.003-  27 1.85  31 1.88  39 2.00  22 2.01  34 2.02  30 2.14   1 2.76  13 2.81
                             9 2.81  15 2.82   5 2.90  11 2.94
   8  0.325  0.000  0.485-  20 1.84  32 1.86  33 1.88  29 1.91  28 1.99  41 2.07   2 2.75  10 2.77
                            16 2.77  14 2.80   6 2.92  12 2.98
   9  0.324  0.325  0.998-  19 1.83  35 1.86  31 1.87  22 1.95  38 1.95  26 1.96   3 2.75  17 2.76
                             1 2.78  15 2.80   7 2.81  11 2.82
  10  0.325  0.324  0.487-  20 1.83  37 1.85  33 1.86  21 1.86  24 1.87  36 1.88  16 2.77   2 2.77
                             8 2.77  18 2.78   4 2.78  12 2.83
  11  0.326  0.655  1.000-  39 1.83  23 1.86  35 1.89  42 1.94  30 1.95  26 2.02   5 2.77   3 2.79
                            17 2.81   9 2.82  13 2.84   7 2.94
  12  0.324  0.653  0.485-  25 1.83  28 1.84  24 1.84  40 1.84  41 1.86  37 1.88   6 2.78   4 2.79
                            18 2.80  10 2.83  14 2.91   8 2.98
  13  0.648  0.995  0.997-  39 1.87  43 1.90  34 1.99  46 2.00  51 2.01  42 2.06   7 2.81  15 2.82
                            11 2.84   3 2.96  17 2.99   1 3.00
  14  0.652  0.002  0.488-  44 1.83  45 1.85  32 1.88  41 1.89  40 2.01  53 2.04  16 2.78   8 2.80
                             4 2.88  12 2.91  18 3.02   2 3.02
  15  0.650  0.324  0.997-  31 1.86  47 1.86  43 1.87  38 1.94  50 1.96  34 1.99  17 2.76   9 2.80
                             7 2.82  13 2.82   5 2.88   3 3.03
  16  0.648  0.324  0.490-  45 1.83  33 1.83  49 1.86  36 1.87  32 1.89  48 1.89  10 2.77   8 2.77
                            14 2.78  18 2.78   6 2.89   4 3.02
  17  0.649  0.646  0.001-  35 1.86  47 1.86  51 1.89  38 1.93  54 1.99  42 2.01  15 2.76   9 2.76
                            11 2.81  13 2.99   5 2.99   1 3.03
  18  0.649  0.649  0.489-  37 1.82  36 1.82  49 1.84  53 1.86  40 1.89  52 1.89  10 2.78  16 2.78
                            12 2.80   6 2.99  14 3.02   2 3.02
  19  0.112  0.219  0.097-   9 1.83   3 1.85   1 1.87
  20  0.217  0.109  0.391-   2 1.83  10 1.83   8 1.84
  21  0.107  0.216  0.584-   4 1.84   2 1.85  10 1.86
  22  0.215  0.111  0.880-   9 1.95   1 1.96   7 2.01
  23  0.110  0.545  0.099-   5 1.85  11 1.86   3 1.87
  24  0.216  0.435  0.392-   4 1.83  12 1.84  10 1.87
  25  0.110  0.546  0.581-   6 1.82  12 1.83   4 1.88
  26  0.219  0.434  0.876-   9 1.96   3 1.97  11 2.02
  27  0.106  0.862  0.098-   7 1.85   5 1.88   1 2.03
  28  0.220  0.763  0.388-  12 1.84   6 1.91   8 1.99
  29  0.106  0.866  0.588-   6 1.88   8 1.91   2 2.00
  30  0.217  0.757  0.878-  11 1.95   5 1.97   7 2.14
  31  0.435  0.219  0.097-  15 1.86   9 1.87   7 1.88
  32  0.541  0.107  0.386-   8 1.86  14 1.88  16 1.89
  33  0.435  0.218  0.586-  16 1.83  10 1.86   8 1.88
  34  0.540  0.105  0.876-  13 1.99  15 1.99   7 2.02
  35  0.432  0.540  0.098-   9 1.86  17 1.86  11 1.89
  36  0.545  0.439  0.390-  18 1.82  16 1.87  10 1.88
  37  0.434  0.542  0.582-  18 1.82  10 1.85  12 1.88
  38  0.542  0.434  0.882-  17 1.93  15 1.94   9 1.95
  39  0.434  0.868  0.098-  11 1.83  13 1.87   7 2.00
  40  0.541  0.762  0.391-  12 1.84  18 1.89  14 2.01
  41  0.434  0.865  0.589-  12 1.86  14 1.89   8 2.07
  42  0.540  0.760  0.882-  11 1.94  17 2.01  13 2.06
  43  0.756  0.215  0.099-  15 1.87  13 1.90   3 2.08
  44  0.864  0.104  0.389-  14 1.83   4 1.89   2 2.04
  45  0.757  0.218  0.584-  16 1.83  14 1.85   4 2.04
  46  0.870  0.106  0.876-  13 2.00   3 2.02   1 2.13
  47  0.759  0.539  0.099-  17 1.86  15 1.86   5 2.03
  48  0.868  0.429  0.390-   6 1.88  16 1.89   4 2.00
  49  0.760  0.544  0.584-  18 1.84  16 1.86   6 1.98
  50  0.865  0.435  0.878-   5 1.94  15 1.96   3 2.17
  51  0.760  0.868  0.097-  17 1.89  13 2.01   1 2.01
  52  0.868  0.760  0.388-  18 1.89   2 2.02   6 2.03
  53  0.764  0.868  0.584-  18 1.86   2 2.00  14 2.04
  54  0.867  0.756  0.879-  17 1.99   5 2.11   1 2.15
 
  LATTYP: Found a hexagonal cell.
 ALAT       =     8.5719417516
 C/A-ratio  =     1.1065328049
  
  Lattice vectors:
  
 A1 = (   8.5719417500,   0.0000000000,   0.0000000000)
 A2 = (  -4.2859708800,   7.4235193200,   0.0000000000)
 A3 = (   0.0000000000,   0.0000000000,   9.4851347500)


Analysis of symmetry for initial positions (statically):
=====================================================================
 Subroutine PRICEL returns:
 Original cell was already a primitive cell.
 

 Routine SETGRP: Setting up the symmetry group for a 
 hexagonal supercell.


 Subroutine GETGRP returns: Found  1 space group operations
 (whereof  1 operations were pure point group operations)
 out of a pool of 24 trial point group operations.


The static configuration has the point symmetry C_1 .


Analysis of symmetry for dynamics (positions and initial velocities):
=====================================================================
 Subroutine PRICEL returns:
 Original cell was already a primitive cell.
 

 Routine SETGRP: Setting up the symmetry group for a 
 hexagonal supercell.


 Subroutine GETGRP returns: Found  1 space group operations
 (whereof  1 operations were pure point group operations)
 out of a pool of 24 trial point group operations.


The dynamic configuration has the point symmetry C_1 .


 Subroutine INISYM returns: Found  1 space group operations
 (whereof  1 operations are pure point group operations),
 and found     1 'primitive' translations

 
 
 KPOINTS: Automatic mesh                          

Automatic generation of k-mesh.
Space group operators:
 irot       det(A)        alpha          n_x          n_y          n_z        tau_x        tau_y        tau_z
    1     1.000000     0.000000     1.000000     0.000000     0.000000     0.000000     0.000000     0.000000
 
 Subroutine IBZKPT returns following result:
 ===========================================
 
 Found     26 irreducible k-points:
 
 Following reciprocal coordinates:
            Coordinates               Weight
  0.000000  0.000000  0.000000      1.000000
  0.250000  0.000000  0.000000      2.000000
  0.500000  0.000000  0.000000      1.000000
  0.000000  0.250000  0.000000      2.000000
  0.250000  0.250000  0.000000      2.000000
  0.500000  0.250000  0.000000      2.000000
 -0.250000  0.250000  0.000000      2.000000
  0.000000  0.500000  0.000000      1.000000
  0.250000  0.500000  0.000000      2.000000
  0.500000  0.500000  0.000000      1.000000
  0.000000  0.000000  0.333333      2.000000
  0.250000  0.000000  0.333333      2.000000
  0.500000  0.000000  0.333333      2.000000
 -0.250000  0.000000  0.333333      2.000000
  0.000000  0.250000  0.333333      2.000000
  0.250000  0.250000  0.333333      2.000000
  0.500000  0.250000  0.333333      2.000000
 -0.250000  0.250000  0.333333      2.000000
  0.000000  0.500000  0.333333      2.000000
  0.250000  0.500000  0.333333      2.000000
  0.500000  0.500000  0.333333      2.000000
 -0.250000  0.500000  0.333333      2.000000
  0.000000 -0.250000  0.333333      2.000000
  0.250000 -0.250000  0.333333      2.000000
  0.500000 -0.250000  0.333333      2.000000
 -0.250000 -0.250000  0.333333      2.000000
 
 Following cartesian coordinates:
            Coordinates               Weight
  0.000000  0.000000  0.000000      1.000000
  0.029165  0.016838  0.000000      2.000000
  0.058330  0.033677  0.000000      1.000000
  0.000000  0.033677  0.000000      2.000000
  0.029165  0.050515  0.000000      2.000000
  0.058330  0.067353  0.000000      2.000000
 -0.029165  0.016838  0.000000      2.000000
  0.000000  0.067353  0.000000      1.000000
  0.029165  0.084192  0.000000      2.000000
  0.058330  0.101030  0.000000      1.000000
  0.000000  0.000000  0.035143      2.000000
  0.029165  0.016838  0.035143      2.000000
  0.058330  0.033677  0.035143      2.000000
 -0.029165 -0.016838  0.035143      2.000000
  0.000000  0.033677  0.035143      2.000000
  0.029165  0.050515  0.035143      2.000000
  0.058330  0.067353  0.035143      2.000000
 -0.029165  0.016838  0.035143      2.000000
  0.000000  0.067353  0.035143      2.000000
  0.029165  0.084192  0.035143      2.000000
  0.058330  0.101030  0.035143      2.000000
 -0.029165  0.050515  0.035143      2.000000
  0.000000 -0.033677  0.035143      2.000000
  0.029165 -0.016838  0.035143      2.000000
  0.058330  0.000000  0.035143      2.000000
 -0.029165 -0.050515  0.035143      2.000000
 


--------------------------------------------------------------------------------------------------------




 Dimension of arrays:
   k-points           NKPTS =     26   k-points in BZ     NKDIM =     26   number of bands    NBANDS=    240
   number of dos      NEDOS =    301   number of ions     NIONS =     54
   non local maximal  LDIM  =      6   non local SUM 2l+1 LMDIM =     18
   total plane-waves  NPLWV = 286720
   max r-space proj   IRMAX =   6427   max aug-charges    IRDMAX=  15596
   dimension x,y,z NGX =    64 NGY =   64 NGZ =   70
   dimension x,y,z NGXF=   128 NGYF=  128 NGZF=  140
   support grid    NGXF=   128 NGYF=  128 NGZF=  140
   ions per type =              18  36
   NGX,Y,Z   is equivalent  to a cutoff of  12.41, 12.41, 12.27 a.u.
   NGXF,Y,Z  is equivalent  to a cutoff of  24.82, 24.82, 24.54 a.u.

 SYSTEM =  unknown system                          
 POSCAR =  NiO2_C2_m_scale_1_025_disp_0_02_round_2 

 Startparameter for this run:
   NWRITE =      1    write-flag & timer
   PREC   = accura    normal or accurate (medium, high low for compatibility)
   ISTART =      0    job   : 0-new  1-cont  2-samecut
   ICHARG =      2    charge: 1-file 2-atom 10-const
   ISPIN  =      1    spin polarized calculation?
   LNONCOLLINEAR =      F non collinear calculations
   LSORBIT =      F    spin-orbit coupling
   INIWAV =      1    electr: 0-lowe 1-rand  2-diag
   LASPH  =      F    aspherical Exc in radial PAW
   METAGGA=      F    non-selfconsistent MetaGGA calc.

 Electronic Relaxation 1
   ENCUT  =  500.0 eV  36.75 Ry    6.06 a.u.  15.63 15.63 17.29*2*pi/ulx,y,z
   ENINI  =  500.0     initial cutoff
   ENAUG  =  605.4 eV  augmentation charge cutoff
   NELM   =    120;   NELMIN=  2; NELMDL= -5     # of ELM steps 
   EDIFF  = 0.1E-04   stopping-criterion for ELM
   LREAL  =      T    real-space projection
   NLSPLINE    = F    spline interpolate recip. space projectors
   LCOMPAT=      F    compatible to vasp.4.4
   GGA_COMPAT  = T    GGA compatible to vasp.4.4-vasp.4.6
   LMAXPAW     = -100 max onsite density
   LMAXMIX     =    2 max onsite mixed and CHGCAR
   VOSKOWN=      1    Vosko Wilk Nusair interpolation
   ROPT   =   -0.00025  -0.00025
 Ionic relaxation
   EDIFFG = 0.1E-03   stopping-criterion for IOM
   NSW    =      0    number of steps for IOM
   NBLOCK =      1;   KBLOCK =      1    inner block; outer block 
   IBRION =     -1    ionic relax: 0-MD 1-quasi-New 2-CG
   NFREE  =      0    steps in history (QN), initial steepest desc. (CG)
   ISIF   =      2    stress and relaxation
   IWAVPR =     10    prediction:  0-non 1-charg 2-wave 3-comb
   ISYM   =      2    0-nonsym 1-usesym 2-fastsym
   LCORR  =      T    Harris-Foulkes like correction to forces

   POTIM  = 0.5000    time-step for ionic-motion
   TEIN   =    0.0    initial temperature
   TEBEG  =    0.0;   TEEND  =   0.0 temperature during run
   SMASS  =  -3.00    Nose mass-parameter (am)
   estimated Nose-frequenzy (Omega)   =  0.10E-29 period in steps =****** mass=  -0.168E-26a.u.
   SCALEE = 1.0000    scale energy and forces
   NPACO  =    256;   APACO  = 16.0  distance and # of slots for P.C.
   PSTRESS=    0.0 pullay stress

  Mass of Ions in am
   POMASS =  58.69 16.00
  Ionic Valenz
   ZVAL   =  10.00  6.00
  Atomic Wigner-Seitz radii
   RWIGS  =   1.15  0.73
  virtual crystal weights 
   VCA    =   1.00  1.00
   NELECT =     396.0000    total number of electrons
   NUPDOWN=      -1.0000    fix difference up-down

 DOS related values:
   EMIN   =  10.00;   EMAX   =-10.00  energy-range for DOS
   EFERMI =   0.00
   ISMEAR =     0;   SIGMA  =   0.05  broadening in eV -4-tet -1-fermi 0-gaus

 Electronic relaxation 2 (details)
   IALGO  =     38    algorithm
   LDIAG  =      T    sub-space diagonalisation (order eigenvalues)
   LSUBROT=      F    optimize rotation matrix (better conditioning)
   TURBO    =      0    0=normal 1=particle mesh
   IRESTART =      0    0=no restart 2=restart with 2 vectors
   NREBOOT  =      0    no. of reboots
   NMIN     =      0    reboot dimension
   EREF     =   0.00    reference energy to select bands
   IMIX   =      4    mixing-type and parameters
     AMIX     =   0.40;   BMIX     =  1.00
     AMIX_MAG =   1.60;   BMIX_MAG =  1.00
     AMIN     =   0.10
     WC   =   100.;   INIMIX=   1;  MIXPRE=   1;  MAXMIX= -45

 Intra band minimization:
   WEIMIN = 0.0000     energy-eigenvalue tresh-hold
   EBREAK =  0.10E-07  absolut break condition
   DEPER  =   0.30     relativ break condition  

   TIME   =   0.40     timestep for ELM

  volume/ion in A,a.u.               =      11.18        75.43
  Fermi-wavevector in a.u.,A,eV,Ry     =   1.422533  2.688198 27.532754  2.023600
  Thomas-Fermi vector in A             =   2.543227
 
 Write flags
   LWAVE        =      F    write WAVECAR
   LDOWNSAMPLE  =      F    k-point downsampling of WAVECAR
   LCHARG       =      T    write CHGCAR
   LVTOT        =      F    write LOCPOT, total local potential
   LVHAR        =      F    write LOCPOT, Hartree potential only
   LELF         =      F    write electronic localiz. function (ELF)
   LORBIT       =      0    0 simple, 1 ext, 2 COOP (PROOUT), +10 PAW based schemes


 Dipole corrections
   LMONO  =      F    monopole corrections only (constant potential shift)
   LDIPOL =      F    correct potential (dipole corrections)
   IDIPOL =      0    1-x, 2-y, 3-z, 4-all directions 
   EPSILON=  1.0000000 bulk dielectric constant

 Exchange correlation treatment:
   GGA     =    PS    GGA type
   LEXCH   =    14    internal setting for exchange type
   VOSKOWN=      1    Vosko Wilk Nusair interpolation
   LHFCALC =     F    Hartree Fock is set to
   LHFONE  =     F    Hartree Fock one center treatment
   AEXX    =    0.0000 exact exchange contribution

 Linear response parameters
   LEPSILON=     F    determine dielectric tensor
   LRPA    =     F    only Hartree local field effects (RPA)
   LNABLA  =     F    use nabla operator in PAW spheres
   LVEL    =     F    velocity operator in full k-point grid
   LINTERFAST=   F  fast interpolation
   KINTER  =     0    interpolate to denser k-point grid
   CSHIFT  =0.1000    complex shift for real part using Kramers Kronig
   OMEGAMAX=  -1.0    maximum frequency
   DEG_THRESHOLD= 0.2000000E-02 threshold for treating states as degnerate
   RTIME   =   -0.100 relaxation time in fs
  (WPLASMAI=    0.000 imaginary part of plasma frequency in eV, 0.658/RTIME)
   DFIELD  = 0.0000000 0.0000000 0.0000000 field for delta impulse in time
 
 Orbital magnetization related:
   ORBITALMAG=     F  switch on orbital magnetization
   LCHIMAG   =     F  perturbation theory with respect to B field
   DQ        =  0.001000  dq finite difference perturbation B field
   LLRAUG    =     F  two centre corrections for induced B field



--------------------------------------------------------------------------------------------------------


 Static calculation
 charge density and potential will be updated during run
 non-spin polarized calculation
 Variant of blocked Davidson
 Davidson routine will perform the subspace rotation
 perform sub-space diagonalisation
    after iterative eigenvector-optimisation
 modified Broyden-mixing scheme, WC =      100.0
 initial mixing is a Kerker type mixing with AMIX =  0.4000 and BMIX =      1.0000
 Hartree-type preconditioning will be used
 using additional bands           42
 real space projection scheme for non local part
 use partial core corrections
 calculate Harris-corrections to forces 
   (improved forces if not selfconsistent)
 use gradient corrections 
 use of overlap-Matrix (Vanderbilt PP)
 Gauss-broadening in eV      SIGMA  =   0.05


--------------------------------------------------------------------------------------------------------


  energy-cutoff  :      500.00
  volume of cell :      603.58
      direct lattice vectors                 reciprocal lattice vectors
     8.571941750  0.000000000  0.000000000     0.116659682  0.067353499  0.000000000
    -4.285970880  7.423519320  0.000000000     0.000000000  0.134706998  0.000000000
     0.000000000  0.000000000  9.485134750     0.000000000  0.000000000  0.105428128

  length of vectors
     8.571941750  8.571941757  9.485134750     0.134706998  0.134706998  0.105428128


 
 k-points in units of 2pi/SCALE and weight: Automatic mesh                          
   0.00000000  0.00000000  0.00000000       0.021
   0.02916492  0.01683837  0.00000000       0.042
   0.05832984  0.03367675  0.00000000       0.021
   0.00000000  0.03367675  0.00000000       0.042
   0.02916492  0.05051512  0.00000000       0.042
   0.05832984  0.06735350  0.00000000       0.042
  -0.02916492  0.01683837  0.00000000       0.042
   0.00000000  0.06735350  0.00000000       0.021
   0.02916492  0.08419187  0.00000000       0.042
   0.05832984  0.10103025  0.00000000       0.021
   0.00000000  0.00000000  0.03514271       0.042
   0.02916492  0.01683837  0.03514271       0.042
   0.05832984  0.03367675  0.03514271       0.042
  -0.02916492 -0.01683837  0.03514271       0.042
   0.00000000  0.03367675  0.03514271       0.042
   0.02916492  0.05051512  0.03514271       0.042
   0.05832984  0.06735350  0.03514271       0.042
  -0.02916492  0.01683837  0.03514271       0.042
   0.00000000  0.06735350  0.03514271       0.042
   0.02916492  0.08419187  0.03514271       0.042
   0.05832984  0.10103025  0.03514271       0.042
  -0.02916492  0.05051512  0.03514271       0.042
   0.00000000 -0.03367675  0.03514271       0.042
   0.02916492 -0.01683837  0.03514271       0.042
   0.05832984  0.00000000  0.03514271       0.042
  -0.02916492 -0.05051512  0.03514271       0.042
 
 k-points in reciprocal lattice and weights: Automatic mesh                          
   0.00000000  0.00000000  0.00000000       0.021
   0.25000000  0.00000000  0.00000000       0.042
   0.50000000  0.00000000  0.00000000       0.021
   0.00000000  0.25000000  0.00000000       0.042
   0.25000000  0.25000000  0.00000000       0.042
   0.50000000  0.25000000  0.00000000       0.042
  -0.25000000  0.25000000  0.00000000       0.042
   0.00000000  0.50000000  0.00000000       0.021
   0.25000000  0.50000000  0.00000000       0.042
   0.50000000  0.50000000  0.00000000       0.021
   0.00000000  0.00000000  0.33333333       0.042
   0.25000000  0.00000000  0.33333333       0.042
   0.50000000  0.00000000  0.33333333       0.042
  -0.25000000  0.00000000  0.33333333       0.042
   0.00000000  0.25000000  0.33333333       0.042
   0.25000000  0.25000000  0.33333333       0.042
   0.50000000  0.25000000  0.33333333       0.042
  -0.25000000  0.25000000  0.33333333       0.042
   0.00000000  0.50000000  0.33333333       0.042
   0.25000000  0.50000000  0.33333333       0.042
   0.50000000  0.50000000  0.33333333       0.042
  -0.25000000  0.50000000  0.33333333       0.042
   0.00000000 -0.25000000  0.33333333       0.042
   0.25000000 -0.25000000  0.33333333       0.042
   0.50000000 -0.25000000  0.33333333       0.042
  -0.25000000 -0.25000000  0.33333333       0.042
 
 position of ions in fractional coordinates (direct lattice) 
   0.00097268  0.99962750  0.00136569
   0.00323810  0.99936916  0.48731119
   0.00471840  0.32726758  0.99901008
   0.00064164  0.32395149  0.48682286
   0.99798722  0.64525511  0.99636290
   0.99732372  0.64768105  0.48846749
   0.32117893  0.99619506  0.00309041
   0.32476419  0.00018193  0.48480071
   0.32407927  0.32549884  0.99757306
   0.32526747  0.32358180  0.48718982
   0.32629125  0.65540005  0.99997154
   0.32384018  0.65262581  0.48523065
   0.64825726  0.99472037  0.99719944
   0.65186384  0.00198953  0.48816622
   0.64973432  0.32438878  0.99688244
   0.64810971  0.32395897  0.49003389
   0.64883655  0.64565988  0.00068335
   0.64859942  0.64858603  0.48909464
   0.11206002  0.21930900  0.09679631
   0.21652478  0.10929247  0.39129602
   0.10703190  0.21629981  0.58403796
   0.21510355  0.11058906  0.87990362
   0.10958382  0.54471341  0.09932839
   0.21578164  0.43457365  0.39248207
   0.11042410  0.54622513  0.58084684
   0.21883492  0.43383452  0.87641343
   0.10593670  0.86185497  0.09810266
   0.21962404  0.76279141  0.38814622
   0.10583773  0.86585795  0.58830091
   0.21685342  0.75738251  0.87812616
   0.43513133  0.21940967  0.09708553
   0.54071706  0.10734361  0.38615311
   0.43464257  0.21750332  0.58638151
   0.53955582  0.10458679  0.87615695
   0.43171966  0.53984831  0.09822577
   0.54549331  0.43868165  0.38960713
   0.43410063  0.54180919  0.58232488
   0.54202903  0.43376227  0.88223780
   0.43355739  0.86802217  0.09849266
   0.54082247  0.76188868  0.39082452
   0.43422062  0.86475974  0.58932861
   0.53952950  0.76039083  0.88166262
   0.75573580  0.21527431  0.09877597
   0.86394620  0.10422230  0.38938359
   0.75696916  0.21807592  0.58443207
   0.86977096  0.10628981  0.87636482
   0.75904979  0.53869364  0.09904547
   0.86809418  0.42926922  0.38962834
   0.76046928  0.54411610  0.58376254
   0.86483197  0.43500618  0.87767011
   0.75986089  0.86814314  0.09713198
   0.86814644  0.75959933  0.38773277
   0.76380126  0.86848633  0.58385879
   0.86742866  0.75618383  0.87870352
 
 position of ions in cartesian coordinates  (Angst):
  -4.27603660  7.42075406  0.01295375
  -4.25551031  7.41883627  4.62221230
  -1.36221347  2.42947720  9.47574523
  -1.38294655  2.40486014  4.61758043
   5.78914371  4.79006378  9.45063637
   5.77305871  4.80807279  4.63317996
  -1.51653594  7.39527327  0.02931296
   2.78307997  0.00135056  4.59840006
   1.38291008  2.41634693  9.46211490
   1.40131163  2.40211574  4.62106109
  -0.01207594  4.86537493  9.48486480
  -0.02119606  4.84478031  4.60247810
   1.29348093  7.38432588  9.45857106
   5.57921180  0.01476931  4.63032238
   4.17916388  2.40810638  9.45556427
   4.16707997  2.40491567  4.64803748
   2.79450967  4.79306859  0.00648167
   2.77993561  4.81479092  4.63912857
   0.02061998  1.62804460  0.91812604
   1.38761346  0.81133476  3.71149548
  -0.00958347  1.60570582  5.53967875
   1.36987361  0.82096002  8.34600440
  -1.39527969  4.04369052  0.94214316
  -0.01290236  3.22606589  3.72274532
  -1.39455605  4.05491281  5.50941055
   0.01643807  3.22057894  8.31289948
  -2.78580208  6.39799702  0.93051695
  -1.38669729  5.66259677  3.68161920
  -2.80380710  6.42771322  5.58011340
  -1.38726450  5.62244370  8.32914496
   2.78953696  1.62879192  0.92086933
   4.17492355  0.79686736  3.66271428
   2.79351790  1.61464010  5.56190764
   4.17678512  0.77640206  8.31046673
   1.38690164  4.00757436  0.93168466
   2.79576010  3.25656170  3.69547613
   1.39890690  4.02213099  5.52342996
   2.78714881  3.22004259  8.36814441
  -0.00388905  6.44377935  0.93421615
   1.37046601  5.65589534  3.70702324
   0.01577880  6.41956064  5.58986128
   1.36580249  5.64477602  8.36268875
   5.55546383  1.59809300  0.93690339
   6.95900276  0.77369626  3.69335582
   5.55402850  1.61889081  5.54341694
   7.00007097  0.78904446  8.31243841
   4.19770533  3.99900264  0.93945963
   5.60141737  3.18668835  3.69567731
   4.18663261  4.03925638  5.53706635
   5.54886545  3.22927678  8.32481926
   2.79264707  6.44467737  0.92130992
   4.18608011  5.63890030  3.67769757
   2.82495279  6.44722505  5.53797930
   4.19456607  5.61354527  8.33462129
 


--------------------------------------------------------------------------------------------------------


 k-point  1 :   0.0000 0.0000 0.0000  plane waves:   15335
 k-point  2 :   0.2500 0.0000 0.0000  plane waves:   15345
 k-point  3 :   0.5000 0.0000 0.0000  plane waves:   15328
 k-point  4 :   0.0000 0.2500 0.0000  plane waves:   15345
 k-point  5 :   0.2500 0.2500 0.0000  plane waves:   15308
 k-point  6 :   0.5000 0.2500 0.0000  plane waves:   15308
 k-point  7 :  -0.2500 0.2500 0.0000  plane waves:   15345
 k-point  8 :   0.0000 0.5000 0.0000  plane waves:   15328
 k-point  9 :   0.2500 0.5000 0.0000  plane waves:   15308
 k-point 10 :   0.5000 0.5000 0.0000  plane waves:   15328
 k-point 11 :   0.0000 0.0000 0.3333  plane waves:   15364
 k-point 12 :   0.2500 0.0000 0.3333  plane waves:   15329
 k-point 13 :   0.5000 0.0000 0.3333  plane waves:   15304
 k-point 14 :  -0.2500 0.0000 0.3333  plane waves:   15329
 k-point 15 :   0.0000 0.2500 0.3333  plane waves:   15329
 k-point 16 :   0.2500 0.2500 0.3333  plane waves:   15318
 k-point 17 :   0.5000 0.2500 0.3333  plane waves:   15318
 k-point 18 :  -0.2500 0.2500 0.3333  plane waves:   15329
 k-point 19 :   0.0000 0.5000 0.3333  plane waves:   15304
 k-point 20 :   0.2500 0.5000 0.3333  plane waves:   15318
 k-point 21 :   0.5000 0.5000 0.3333  plane waves:   15304
 k-point 22 :  -0.2500 0.5000 0.3333  plane waves:   15318
 k-point 23 :   0.0000-0.2500 0.3333  plane waves:   15329
 k-point 24 :   0.2500-0.2500 0.3333  plane waves:   15329
 k-point 25 :   0.5000-0.2500 0.3333  plane waves:   15318
 k-point 26 :  -0.2500-0.2500 0.3333  plane waves:   15318

 maximum and minimum number of plane-waves per node :     15364    15304

 maximum number of plane-waves:     15364
 maximum index in each direction: 
   IXMAX=   15   IYMAX=   15   IZMAX=   17
   IXMIN=  -16   IYMIN=  -16   IZMIN=  -17

 The following grids will avoid any aliasing or wrap around errors in the Hartre
 e energy
  - symmetry arguments have not been applied
  - exchange correlation energies might require even more grid points
  - we recommend to set PREC=Normal or Accurate and rely on VASP defaults
 NGX is ok and might be reduce to    64
 NGY is ok and might be reduce to    64
 NGZ is ok and might be reduce to    70

 serial   3D FFT for wavefunctions
 parallel 3D FFT for charge:
    minimum data exchange during FFTs selected (reduces bandwidth)


 total amount of memory used by VASP MPI-rank0   186396. kBytes
=======================================================================

   base      :      30000. kBytes
   nonlr-proj:      30015. kBytes
   fftplans  :       6058. kBytes
   grid      :      19644. kBytes
   one-center:        839. kBytes
   wavefun   :      99840. kBytes
 
     INWAV:  cpu time    0.0000: real time    0.0000
 Broyden mixing: mesh for mixing (old mesh)
   NGX = 31   NGY = 31   NGZ = 35
  (NGX  =128   NGY  =128   NGZ  =140)
  gives a total of  33635 points

 initial charge density was supplied:
 charge density of overlapping atoms calculated
 number of electron     396.0000000 magnetization 
 keeping initial charge density in first step


--------------------------------------------------------------------------------------------------------


 Maximum index for non-local projection operator         6214
 Maximum index for augmentation-charges         1028 (set IRDMAX)


--------------------------------------------------------------------------------------------------------


 First call to EWALD:  gamma=   0.210
 Maximum number of real-space cells 3x 3x 3
 Maximum number of reciprocal cells 3x 3x 3

    FEWALD:  cpu time    0.0021: real time    0.0021


--------------------------------------- Iteration      1(   1)  ---------------------------------------


    POTLOK:  cpu time    0.0921: real time   11.9799
    SETDIJ:  cpu time    0.0073: real time    0.0073
     EDDAV:  cpu time   25.4122: real time   25.6774
    --------------------------------------------
      LOOP:  cpu time   25.5128: real time   37.6660

 eigenvalue-minimisations  : 12480
 total energy-change (2. order) : 0.5150150E+04  (-0.1763154E+05)
 number of electron     396.0000000 magnetization 
 augmentation part      396.0000000 magnetization 

 Free energy of the ion-electron system (eV)
  ---------------------------------------------------
  alpha Z        PSCENC =      1149.28122492
  Ewald energy   TEWEN  =    -22138.52060139
  -Hartree energ DENC   =    -13497.83961118
  -exchange      EXHF   =         0.00000000
  -V(xc)+E(xc)   XCENC  =      1578.31809276
  PAW double counting   =     29784.60368500   -31040.73694357
  entropy T*S    EENTRO =        -0.00771155
  eigenvalues    EBANDS =      4424.67031102
  atomic energy  EATOM  =     34890.38139807
  Solvation  Ediel_sol  =         0.00000000
  ---------------------------------------------------
  free energy    TOTEN  =      5150.14984406 eV

  energy without entropy =     5150.15755562  energy(sigma->0) =     5150.15369984


--------------------------------------------------------------------------------------------------------




--------------------------------------- Iteration      1(   2)  ---------------------------------------


     EDDAV:  cpu time   26.2942: real time   26.3598
    --------------------------------------------
      LOOP:  cpu time   26.2942: real time   26.3598

 eigenvalue-minimisations  : 13008
 total energy-change (2. order) :-0.4485894E+04  (-0.4181661E+04)
 number of electron     396.0000000 magnetization 
 augmentation part      396.0000000 magnetization 

 Free energy of the ion-electron system (eV)
  ---------------------------------------------------
  alpha Z        PSCENC =      1149.28122492
  Ewald energy   TEWEN  =    -22138.52060139
  -Hartree energ DENC   =    -13497.83961118
  -exchange      EXHF   =         0.00000000
  -V(xc)+E(xc)   XCENC  =      1578.31809276
  PAW double counting   =     29784.60368500   -31040.73694357
  entropy T*S    EENTRO =        -0.03031099
  eigenvalues    EBANDS =       -61.20076516
  atomic energy  EATOM  =     34890.38139807
  Solvation  Ediel_sol  =         0.00000000
  ---------------------------------------------------
  free energy    TOTEN  =       664.25616845 eV

  energy without entropy =      664.28647944  energy(sigma->0) =      664.27132394


--------------------------------------------------------------------------------------------------------




--------------------------------------- Iteration      1(   3)  ---------------------------------------


     EDDAV:  cpu time   27.1194: real time   27.1864
    --------------------------------------------
      LOOP:  cpu time   27.1194: real time   27.1863

 eigenvalue-minimisations  : 13360
 total energy-change (2. order) :-0.1026006E+04  (-0.8975881E+03)
 number of electron     396.0000000 magnetization 
 augmentation part      396.0000000 magnetization 

 Free energy of the ion-electron system (eV)
  ---------------------------------------------------
  alpha Z        PSCENC =      1149.28122492
  Ewald energy   TEWEN  =    -22138.52060139
  -Hartree energ DENC   =    -13497.83961118
  -exchange      EXHF   =         0.00000000
  -V(xc)+E(xc)   XCENC  =      1578.31809276
  PAW double counting   =     29784.60368500   -31040.73694357
  entropy T*S    EENTRO =        -0.00505813
  eigenvalues    EBANDS =     -1087.23220419
  atomic energy  EATOM  =     34890.38139807
  Solvation  Ediel_sol  =         0.00000000
  ---------------------------------------------------
  free energy    TOTEN  =      -361.75001772 eV

  energy without entropy =     -361.74495960  energy(sigma->0) =     -361.74748866


--------------------------------------------------------------------------------------------------------




--------------------------------------- Iteration      1(   4)  ---------------------------------------


     EDDAV:  cpu time   26.9913: real time   27.0550
    --------------------------------------------
      LOOP:  cpu time   26.9906: real time   27.0544

 eigenvalue-minimisations  : 13296
 total energy-change (2. order) :-0.1071028E+03  (-0.1048379E+03)
 number of electron     396.0000000 magnetization 
 augmentation part      396.0000000 magnetization 

 Free energy of the ion-electron system (eV)
  ---------------------------------------------------
  alpha Z        PSCENC =      1149.28122492
  Ewald energy   TEWEN  =    -22138.52060139
  -Hartree energ DENC   =    -13497.83961118
  -exchange      EXHF   =         0.00000000
  -V(xc)+E(xc)   XCENC  =      1578.31809276
  PAW double counting   =     29784.60368500   -31040.73694357
  entropy T*S    EENTRO =        -0.00000000
  eigenvalues    EBANDS =     -1194.34003232
  atomic energy  EATOM  =     34890.38139807
  Solvation  Ediel_sol  =         0.00000000
  ---------------------------------------------------
  free energy    TOTEN  =      -468.85278773 eV

  energy without entropy =     -468.85278773  energy(sigma->0) =     -468.85278773


--------------------------------------------------------------------------------------------------------




--------------------------------------- Iteration      1(   5)  ---------------------------------------


     EDDAV:  cpu time   29.4323: real time   29.5020
    CHARGE:  cpu time    1.1858: real time    1.2259
    MIXING:  cpu time    0.0088: real time    0.0180
    --------------------------------------------
      LOOP:  cpu time   30.6262: real time   30.7452

 eigenvalue-minimisations  : 14880
 total energy-change (2. order) :-0.3587467E+01  (-0.3580975E+01)
 number of electron     396.0000034 magnetization 
 augmentation part      111.9892847 magnetization 

 Broyden mixing:
  rms(total) = 0.11257E+02    rms(broyden)= 0.11254E+02
  rms(prec ) = 0.14367E+02
  weight for this iteration     100.00

 Free energy of the ion-electron system (eV)
  ---------------------------------------------------
  alpha Z        PSCENC =      1149.28122492
  Ewald energy   TEWEN  =    -22138.52060139
  -Hartree energ DENC   =    -13497.83961118
  -exchange      EXHF   =         0.00000000
  -V(xc)+E(xc)   XCENC  =      1578.31809276
  PAW double counting   =     29784.60368500   -31040.73694357
  entropy T*S    EENTRO =        -0.00000000
  eigenvalues    EBANDS =     -1197.92749964
  atomic energy  EATOM  =     34890.38139807
  Solvation  Ediel_sol  =         0.00000000
  ---------------------------------------------------
  free energy    TOTEN  =      -472.44025505 eV

  energy without entropy =     -472.44025505  energy(sigma->0) =     -472.44025505


--------------------------------------------------------------------------------------------------------




--------------------------------------- Iteration      1(   6)  ---------------------------------------


    POTLOK:  cpu time    0.0756: real time    0.0758
    SETDIJ:  cpu time    0.0075: real time    0.0075
     EDDAV:  cpu time   36.6656: real time   36.7523
    CHARGE:  cpu time    1.1581: real time    1.1608
    MIXING:  cpu time    0.0031: real time    0.0324
    --------------------------------------------
      LOOP:  cpu time   37.9098: real time   38.0287

 eigenvalue-minimisations  : 19648
 total energy-change (2. order) :-0.1540750E+03  (-0.1284862E+03)
 number of electron     396.0000019 magnetization 
 augmentation part      156.2290521 magnetization 

 Broyden mixing:
  rms(total) = 0.21485E+02    rms(broyden)= 0.21483E+02
  rms(prec ) = 0.24434E+02
  weight for this iteration     100.00

 eigenvalues of (default mixing * dielectric matrix)
  average eigenvalue GAMMA=   0.2000
  0.2000

 Free energy of the ion-electron system (eV)
  ---------------------------------------------------
  alpha Z        PSCENC =      1149.28122492
  Ewald energy   TEWEN  =    -22138.52060139
  -Hartree energ DENC   =    -12744.23277438
  -exchange      EXHF   =         0.00000000
  -V(xc)+E(xc)   XCENC  =      1572.47544617
  PAW double counting   =     32093.36377430   -33123.93024205
  entropy T*S    EENTRO =        -0.03762014
  eigenvalues    EBANDS =     -2325.29582556
  atomic energy  EATOM  =     34890.38139807
  Solvation  Ediel_sol  =         0.00000000
  ---------------------------------------------------
  free energy    TOTEN  =      -626.51522006 eV

  energy without entropy =     -626.47759992  energy(sigma->0) =     -626.49640999


--------------------------------------------------------------------------------------------------------




--------------------------------------- Iteration      1(   7)  ---------------------------------------


    POTLOK:  cpu time    0.0692: real time    0.0693
    SETDIJ:  cpu time    0.0075: real time    0.0075
     EDDAV:  cpu time   32.1632: real time   32.2393
    CHARGE:  cpu time    1.1553: real time    1.1580
    MIXING:  cpu time    0.0025: real time    0.0170
    --------------------------------------------
      LOOP:  cpu time   33.3976: real time   33.4911

 eigenvalue-minimisations  : 16768
 total energy-change (2. order) : 0.2478441E+03  (-0.3299097E+02)
 number of electron     396.0000028 magnetization 
 augmentation part      142.3898812 magnetization 

 Broyden mixing:
  rms(total) = 0.79975E+01    rms(broyden)= 0.79964E+01
  rms(prec ) = 0.10525E+02
  weight for this iteration     100.00

 eigenvalues of (default mixing * dielectric matrix)
  average eigenvalue GAMMA=   0.5254
  0.5254  0.5254

 Free energy of the ion-electron system (eV)
  ---------------------------------------------------
  alpha Z        PSCENC =      1149.28122492
  Ewald energy   TEWEN  =    -22138.52060139
  -Hartree energ DENC   =    -13041.16931996
  -exchange      EXHF   =         0.00000000
  -V(xc)+E(xc)   XCENC  =      1576.62411844
  PAW double counting   =     33435.75502760   -34615.39027655
  entropy T*S    EENTRO =        -0.01595540
  eigenvalues    EBANDS =     -1635.61674417
  atomic energy  EATOM  =     34890.38139807
  Solvation  Ediel_sol  =         0.00000000
  ---------------------------------------------------
  free energy    TOTEN  =      -378.67112844 eV

  energy without entropy =     -378.65517304  energy(sigma->0) =     -378.66315074


--------------------------------------------------------------------------------------------------------




--------------------------------------- Iteration      1(   8)  ---------------------------------------


    POTLOK:  cpu time    0.0606: real time    0.0608
    SETDIJ:  cpu time    0.0075: real time    0.0075
     EDDAV:  cpu time   36.4713: real time   36.5576
    CHARGE:  cpu time    1.1508: real time    1.1535
    MIXING:  cpu time    0.0022: real time    0.0034
    --------------------------------------------
      LOOP:  cpu time   37.6924: real time   37.7827

 eigenvalue-minimisations  : 19552
 total energy-change (2. order) : 0.7772190E+01  (-0.2069841E+02)
 number of electron     396.0000026 magnetization 
 augmentation part      134.6838839 magnetization 

 Broyden mixing:
  rms(total) = 0.70406E+01    rms(broyden)= 0.70385E+01
  rms(prec ) = 0.10553E+02
  weight for this iteration     100.00

 eigenvalues of (default mixing * dielectric matrix)
  average eigenvalue GAMMA=   0.4939
  0.6128  0.6128  0.2561

 Free energy of the ion-electron system (eV)
  ---------------------------------------------------
  alpha Z        PSCENC =      1149.28122492
  Ewald energy   TEWEN  =    -22138.52060139
  -Hartree energ DENC   =    -13121.92415551
  -exchange      EXHF   =         0.00000000
  -V(xc)+E(xc)   XCENC  =      1574.02227345
  PAW double counting   =     34320.61987634   -35580.11977617
  entropy T*S    EENTRO =        -0.03651738
  eigenvalues    EBANDS =     -1464.60266072
  atomic energy  EATOM  =     34890.38139807
  Solvation  Ediel_sol  =         0.00000000
  ---------------------------------------------------
  free energy    TOTEN  =      -370.89893840 eV

  energy without entropy =     -370.86242102  energy(sigma->0) =     -370.88067971


--------------------------------------------------------------------------------------------------------




--------------------------------------- Iteration      1(   9)  ---------------------------------------


    POTLOK:  cpu time    0.0587: real time    0.0588
    SETDIJ:  cpu time    0.0074: real time    0.0074
     EDDAV:  cpu time   35.4511: real time   35.5351
    CHARGE:  cpu time    1.1684: real time    1.1711
    MIXING:  cpu time    0.0021: real time    0.0021
    --------------------------------------------
      LOOP:  cpu time   36.6875: real time   36.7745

 eigenvalue-minimisations  : 18896
 total energy-change (2. order) : 0.1358993E+02  (-0.1984037E+02)
 number of electron     396.0000021 magnetization 
 augmentation part      122.8685301 magnetization 

 Broyden mixing:
  rms(total) = 0.71707E+01    rms(broyden)= 0.71694E+01
  rms(prec ) = 0.10289E+02
  weight for this iteration     100.00

 eigenvalues of (default mixing * dielectric matrix)
  average eigenvalue GAMMA=   0.4191
  0.7355  0.5090  0.2524  0.1794

 Free energy of the ion-electron system (eV)
  ---------------------------------------------------
  alpha Z        PSCENC =      1149.28122492
  Ewald energy   TEWEN  =    -22138.52060139
  -Hartree energ DENC   =    -13156.12685403
  -exchange      EXHF   =         0.00000000
  -V(xc)+E(xc)   XCENC  =      1571.57396226
  PAW double counting   =     35258.26193583   -36546.93965069
  entropy T*S    EENTRO =        -0.03389037
  eigenvalues    EBANDS =     -1385.18652851
  atomic energy  EATOM  =     34890.38139807
  Solvation  Ediel_sol  =         0.00000000
  ---------------------------------------------------
  free energy    TOTEN  =      -357.30900392 eV

  energy without entropy =     -357.27511355  energy(sigma->0) =     -357.29205873


--------------------------------------------------------------------------------------------------------




--------------------------------------- Iteration      1(  10)  ---------------------------------------


    POTLOK:  cpu time    0.0559: real time    0.0561
    SETDIJ:  cpu time    0.0070: real time    0.0071
     EDDAV:  cpu time   32.3378: real time   32.4143
    CHARGE:  cpu time    1.1509: real time    1.1536
    MIXING:  cpu time    0.0022: real time    0.0022
    --------------------------------------------
      LOOP:  cpu time   33.5539: real time   33.6333

 eigenvalue-minimisations  : 16912
 total energy-change (2. order) : 0.1302153E+02  (-0.6196318E+01)
 number of electron     396.0000028 magnetization 
 augmentation part      124.4592346 magnetization 

 Broyden mixing:
  rms(total) = 0.34959E+01    rms(broyden)= 0.34952E+01
  rms(prec ) = 0.47638E+01
  weight for this iteration     100.00

 eigenvalues of (default mixing * dielectric matrix)
  average eigenvalue GAMMA=   0.5113
  1.2973  0.4283  0.4283  0.2875  0.1153

 Free energy of the ion-electron system (eV)
  ---------------------------------------------------
  alpha Z        PSCENC =      1149.28122492
  Ewald energy   TEWEN  =    -22138.52060139
  -Hartree energ DENC   =    -13136.63800537
  -exchange      EXHF   =         0.00000000
  -V(xc)+E(xc)   XCENC  =      1571.05118731
  PAW double counting   =     35546.75832023   -36840.58311720
  entropy T*S    EENTRO =        -0.00000000
  eigenvalues    EBANDS =     -1386.01788128
  atomic energy  EATOM  =     34890.38139807
  Solvation  Ediel_sol  =         0.00000000
  ---------------------------------------------------
  free energy    TOTEN  =      -344.28747472 eV

  energy without entropy =     -344.28747472  energy(sigma->0) =     -344.28747472


--------------------------------------------------------------------------------------------------------




--------------------------------------- Iteration      1(  11)  ---------------------------------------


    POTLOK:  cpu time    0.0587: real time    0.0588
    SETDIJ:  cpu time    0.0074: real time    0.0074
     EDDAV:  cpu time   34.8200: real time   34.9023
    CHARGE:  cpu time    1.1574: real time    1.1601
    MIXING:  cpu time    0.0021: real time    0.0021
    --------------------------------------------
      LOOP:  cpu time   36.0455: real time   36.1307

 eigenvalue-minimisations  : 18576
 total energy-change (2. order) : 0.1032696E+02  (-0.1124026E+01)
 number of electron     396.0000032 magnetization 
 augmentation part      127.3306009 magnetization 

 Broyden mixing:
  rms(total) = 0.22398E+01    rms(broyden)= 0.22393E+01
  rms(prec ) = 0.32737E+01
  weight for this iteration     100.00

 eigenvalues of (default mixing * dielectric matrix)
  average eigenvalue GAMMA=   0.5071
  1.4504  0.4557  0.4557  0.3315  0.2288  0.1205

 Free energy of the ion-electron system (eV)
  ---------------------------------------------------
  alpha Z        PSCENC =      1149.28122492
  Ewald energy   TEWEN  =    -22138.52060139
  -Hartree energ DENC   =    -13096.15686430
  -exchange      EXHF   =         0.00000000
  -V(xc)+E(xc)   XCENC  =      1570.81195501
  PAW double counting   =     36262.61007141   -37559.49505665
  entropy T*S    EENTRO =        -0.04250550
  eigenvalues    EBANDS =     -1412.83013365
  atomic energy  EATOM  =     34890.38139807
  Solvation  Ediel_sol  =         0.00000000
  ---------------------------------------------------
  free energy    TOTEN  =      -333.96051210 eV

  energy without entropy =     -333.91800660  energy(sigma->0) =     -333.93925935


--------------------------------------------------------------------------------------------------------




--------------------------------------- Iteration      1(  12)  ---------------------------------------


    POTLOK:  cpu time    0.0566: real time    0.0567
    SETDIJ:  cpu time    0.0070: real time    0.0070
     EDDAV:  cpu time   34.3928: real time   34.4743
    CHARGE:  cpu time    1.1469: real time    1.1496
    MIXING:  cpu time    0.0024: real time    0.0024
    --------------------------------------------
      LOOP:  cpu time   35.6057: real time   35.6900

 eigenvalue-minimisations  : 18304
 total energy-change (2. order) : 0.2447001E+01  (-0.1708221E+01)
 number of electron     396.0000028 magnetization 
 augmentation part      128.3222142 magnetization 

 Broyden mixing:
  rms(total) = 0.14945E+01    rms(broyden)= 0.14942E+01
  rms(prec ) = 0.21231E+01
  weight for this iteration     100.00

 eigenvalues of (default mixing * dielectric matrix)
  average eigenvalue GAMMA=   0.5004
  1.4780  0.4928  0.4928  0.4668  0.2726  0.1202  0.1798

 Free energy of the ion-electron system (eV)
  ---------------------------------------------------
  alpha Z        PSCENC =      1149.28122492
  Ewald energy   TEWEN  =    -22138.52060139
  -Hartree energ DENC   =    -13082.31934952
  -exchange      EXHF   =         0.00000000
  -V(xc)+E(xc)   XCENC  =      1571.04418464
  PAW double counting   =     36583.47374750   -37879.21138334
  entropy T*S    EENTRO =        -0.00000000
  eigenvalues    EBANDS =     -1425.64273236
  atomic energy  EATOM  =     34890.38139807
  Solvation  Ediel_sol  =         0.00000000
  ---------------------------------------------------
  free energy    TOTEN  =      -331.51351149 eV

  energy without entropy =     -331.51351149  energy(sigma->0) =     -331.51351149


--------------------------------------------------------------------------------------------------------




--------------------------------------- Iteration      1(  13)  ---------------------------------------


    POTLOK:  cpu time    0.0589: real time    0.0591
    SETDIJ:  cpu time    0.0074: real time    0.0075
     EDDAV:  cpu time   35.0057: real time   35.0884
    CHARGE:  cpu time    1.1486: real time    1.1513
    MIXING:  cpu time    0.0024: real time    0.0024
    --------------------------------------------
      LOOP:  cpu time   36.2231: real time   36.3086

 eigenvalue-minimisations  : 18720
 total energy-change (2. order) : 0.1567301E+01  (-0.3433407E+00)
 number of electron     396.0000029 magnetization 
 augmentation part      128.9553504 magnetization 

 Broyden mixing:
  rms(total) = 0.82064E+00    rms(broyden)= 0.82042E+00
  rms(prec ) = 0.11256E+01
  weight for this iteration     100.00

 eigenvalues of (default mixing * dielectric matrix)
  average eigenvalue GAMMA=   0.5099
  1.5019  0.5210  0.5210  0.5473  0.4146  0.2595  0.1199  0.1941

 Free energy of the ion-electron system (eV)
  ---------------------------------------------------
  alpha Z        PSCENC =      1149.28122492
  Ewald energy   TEWEN  =    -22138.52060139
  -Hartree energ DENC   =    -13080.64967469
  -exchange      EXHF   =         0.00000000
  -V(xc)+E(xc)   XCENC  =      1571.38658297
  PAW double counting   =     36821.32101919   -38118.33985559
  entropy T*S    EENTRO =        -0.00000000
  eigenvalues    EBANDS =     -1424.80630382
  atomic energy  EATOM  =     34890.38139807
  Solvation  Ediel_sol  =         0.00000000
  ---------------------------------------------------
  free energy    TOTEN  =      -329.94621034 eV

  energy without entropy =     -329.94621034  energy(sigma->0) =     -329.94621034


--------------------------------------------------------------------------------------------------------




--------------------------------------- Iteration      1(  14)  ---------------------------------------


    POTLOK:  cpu time    0.0585: real time    0.0586
    SETDIJ:  cpu time    0.0073: real time    0.0074
     EDDAV:  cpu time   34.5992: real time   34.6811
    CHARGE:  cpu time    1.2782: real time    1.2812
    MIXING:  cpu time    0.0026: real time    0.0026
    --------------------------------------------
      LOOP:  cpu time   35.9458: real time   36.0308

 eigenvalue-minimisations  : 18384
 total energy-change (2. order) : 0.3286288E+00  (-0.1871062E+00)
 number of electron     396.0000029 magnetization 
 augmentation part      129.2222684 magnetization 

 Broyden mixing:
  rms(total) = 0.60098E+00    rms(broyden)= 0.60084E+00
  rms(prec ) = 0.79087E+00
  weight for this iteration     100.00

 eigenvalues of (default mixing * dielectric matrix)
  average eigenvalue GAMMA=   0.5533
  1.7447  0.7099  0.7099  0.4873  0.4873  0.2692  0.2692  0.1200  0.1817

 Free energy of the ion-electron system (eV)
  ---------------------------------------------------
  alpha Z        PSCENC =      1149.28122492
  Ewald energy   TEWEN  =    -22138.52060139
  -Hartree energ DENC   =    -13080.26148693
  -exchange      EXHF   =         0.00000000
  -V(xc)+E(xc)   XCENC  =      1571.57205711
  PAW double counting   =     37031.57672964   -38330.08445926
  entropy T*S    EENTRO =        -0.00000000
  eigenvalues    EBANDS =     -1423.56244365
  atomic energy  EATOM  =     34890.38139807
  Solvation  Ediel_sol  =         0.00000000
  ---------------------------------------------------
  free energy    TOTEN  =      -329.61758149 eV

  energy without entropy =     -329.61758149  energy(sigma->0) =     -329.61758149


--------------------------------------------------------------------------------------------------------




--------------------------------------- Iteration      1(  15)  ---------------------------------------


    POTLOK:  cpu time    0.0616: real time    0.0617
    SETDIJ:  cpu time    0.0077: real time    0.0077
     EDDAV:  cpu time   38.7699: real time   38.8639
    CHARGE:  cpu time    1.7040: real time    1.7080
    MIXING:  cpu time    0.0034: real time    0.0034
    --------------------------------------------
      LOOP:  cpu time   40.5466: real time   40.6447

 eigenvalue-minimisations  : 18384
 total energy-change (2. order) : 0.1790775E+00  (-0.7570166E-01)
 number of electron     396.0000029 magnetization 
 augmentation part      129.6129989 magnetization 

 Broyden mixing:
  rms(total) = 0.33592E+00    rms(broyden)= 0.33579E+00
  rms(prec ) = 0.43365E+00
  weight for this iteration     100.00

 eigenvalues of (default mixing * dielectric matrix)
  average eigenvalue GAMMA=   0.6170
  2.1414  0.9142  0.9142  0.4911  0.4911  0.3916  0.1200  0.2889  0.1834  0.2339

 Free energy of the ion-electron system (eV)
  ---------------------------------------------------
  alpha Z        PSCENC =      1149.28122492
  Ewald energy   TEWEN  =    -22138.52060139
  -Hartree energ DENC   =    -13076.90179496
  -exchange      EXHF   =         0.00000000
  -V(xc)+E(xc)   XCENC  =      1571.58567340
  PAW double counting   =     37290.24779634   -38590.70690599
  entropy T*S    EENTRO =        -0.00000000
  eigenvalues    EBANDS =     -1424.80529438
  atomic energy  EATOM  =     34890.38139807
  Solvation  Ediel_sol  =         0.00000000
  ---------------------------------------------------
  free energy    TOTEN  =      -329.43850399 eV

  energy without entropy =     -329.43850399  energy(sigma->0) =     -329.43850399


--------------------------------------------------------------------------------------------------------




--------------------------------------- Iteration      1(  16)  ---------------------------------------


    POTLOK:  cpu time    0.0743: real time    0.0745
    SETDIJ:  cpu time    0.0092: real time    0.0092
     EDDAV:  cpu time   47.4411: real time   47.5533
    CHARGE:  cpu time    1.7462: real time    1.7503
    MIXING:  cpu time    0.0071: real time    0.0541
    --------------------------------------------
      LOOP:  cpu time   49.2778: real time   49.4414

 eigenvalue-minimisations  : 18464
 total energy-change (2. order) : 0.1153569E-01  (-0.4571119E-01)
 number of electron     396.0000030 magnetization 
 augmentation part      129.8267819 magnetization 

 Broyden mixing:
  rms(total) = 0.28407E+00    rms(broyden)= 0.28399E+00
  rms(prec ) = 0.37998E+00
  weight for this iteration     100.00

 eigenvalues of (default mixing * dielectric matrix)
  average eigenvalue GAMMA=   0.6357
  2.3244  1.0248  1.0248  0.4890  0.4890  0.5440  0.1200  0.3060  0.2613  0.2271
  0.1821

 Free energy of the ion-electron system (eV)
  ---------------------------------------------------
  alpha Z        PSCENC =      1149.28122492
  Ewald energy   TEWEN  =    -22138.52060139
  -Hartree energ DENC   =    -13075.09107249
  -exchange      EXHF   =         0.00000000
  -V(xc)+E(xc)   XCENC  =      1571.56443165
  PAW double counting   =     37543.40791050   -38846.14946711
  entropy T*S    EENTRO =        -0.00000000
  eigenvalues    EBANDS =     -1424.30079244
  atomic energy  EATOM  =     34890.38139807
  Solvation  Ediel_sol  =         0.00000000
  ---------------------------------------------------
  free energy    TOTEN  =      -329.42696830 eV

  energy without entropy =     -329.42696830  energy(sigma->0) =     -329.42696830


--------------------------------------------------------------------------------------------------------




--------------------------------------- Iteration      1(  17)  ---------------------------------------


    POTLOK:  cpu time    0.0865: real time    0.0867
    SETDIJ:  cpu time    0.0089: real time    0.0089
     EDDAV:  cpu time   47.5521: real time   47.6645
    CHARGE:  cpu time    1.7324: real time    1.7365
    MIXING:  cpu time    0.0035: real time    0.0035
    --------------------------------------------
      LOOP:  cpu time   49.3833: real time   49.5000

 eigenvalue-minimisations  : 18480
 total energy-change (2. order) : 0.4124715E-01  (-0.2265679E-01)
 number of electron     396.0000029 magnetization 
 augmentation part      129.8468964 magnetization 

 Broyden mixing:
  rms(total) = 0.14455E+00    rms(broyden)= 0.14448E+00
  rms(prec ) = 0.20456E+00
  weight for this iteration     100.00

 eigenvalues of (default mixing * dielectric matrix)
  average eigenvalue GAMMA=   0.6406
  2.4118  1.0729  1.0729  0.6676  0.4873  0.4873  0.4151  0.1200  0.2811  0.2651
  0.2244  0.1823

 Free energy of the ion-electron system (eV)
  ---------------------------------------------------
  alpha Z        PSCENC =      1149.28122492
  Ewald energy   TEWEN  =    -22138.52060139
  -Hartree energ DENC   =    -13075.69841370
  -exchange      EXHF   =         0.00000000
  -V(xc)+E(xc)   XCENC  =      1571.58030497
  PAW double counting   =     37679.49215023   -38983.71252287
  entropy T*S    EENTRO =        -0.00000000
  eigenvalues    EBANDS =     -1422.18926137
  atomic energy  EATOM  =     34890.38139807
  Solvation  Ediel_sol  =         0.00000000
  ---------------------------------------------------
  free energy    TOTEN  =      -329.38572115 eV

  energy without entropy =     -329.38572115  energy(sigma->0) =     -329.38572115


--------------------------------------------------------------------------------------------------------




--------------------------------------- Iteration      1(  18)  ---------------------------------------


    POTLOK:  cpu time    0.0748: real time    0.0750
    SETDIJ:  cpu time    0.0088: real time    0.0089
     EDDAV:  cpu time   44.2439: real time   44.3486
    CHARGE:  cpu time    1.7252: real time    1.7293
    MIXING:  cpu time    0.0033: real time    0.0033
    --------------------------------------------
      LOOP:  cpu time   46.0561: real time   46.1650

 eigenvalue-minimisations  : 16912
 total energy-change (2. order) : 0.1106221E-01  (-0.6773143E-02)
 number of electron     396.0000029 magnetization 
 augmentation part      129.8450940 magnetization 

 Broyden mixing:
  rms(total) = 0.10588E+00    rms(broyden)= 0.10584E+00
  rms(prec ) = 0.14994E+00
  weight for this iteration     100.00

 eigenvalues of (default mixing * dielectric matrix)
  average eigenvalue GAMMA=   0.6310
  2.4227  1.0624  1.0624  0.8134  0.4874  0.4874  0.4986  0.1200  0.3006  0.3006
  0.1822  0.2456  0.2201

 Free energy of the ion-electron system (eV)
  ---------------------------------------------------
  alpha Z        PSCENC =      1149.28122492
  Ewald energy   TEWEN  =    -22138.52060139
  -Hartree energ DENC   =    -13076.62741851
  -exchange      EXHF   =         0.00000000
  -V(xc)+E(xc)   XCENC  =      1571.59481497
  PAW double counting   =     37733.73440242   -39038.55124685
  entropy T*S    EENTRO =        -0.00000000
  eigenvalues    EBANDS =     -1420.66723255
  atomic energy  EATOM  =     34890.38139807
  Solvation  Ediel_sol  =         0.00000000
  ---------------------------------------------------
  free energy    TOTEN  =      -329.37465893 eV

  energy without entropy =     -329.37465893  energy(sigma->0) =     -329.37465893


--------------------------------------------------------------------------------------------------------




--------------------------------------- Iteration      1(  19)  ---------------------------------------


    POTLOK:  cpu time    0.0703: real time    0.0705
    SETDIJ:  cpu time    0.0092: real time    0.0092
     EDDAV:  cpu time   43.4625: real time   43.5653
    CHARGE:  cpu time    1.7274: real time    1.7315
    MIXING:  cpu time    0.0038: real time    0.0038
    --------------------------------------------
      LOOP:  cpu time   45.2733: real time   45.3803

 eigenvalue-minimisations  : 16560
 total energy-change (2. order) : 0.4398200E-02  (-0.3269698E-02)
 number of electron     396.0000029 magnetization 
 augmentation part      129.8112154 magnetization 

 Broyden mixing:
  rms(total) = 0.73289E-01    rms(broyden)= 0.73265E-01
  rms(prec ) = 0.10306E+00
  weight for this iteration     100.00

 eigenvalues of (default mixing * dielectric matrix)
  average eigenvalue GAMMA=   0.6502
  2.4837  1.3226  0.9877  0.9877  0.6381  0.4878  0.4878  0.4043  0.1200  0.2961
  0.2617  0.1822  0.2296  0.2128

 Free energy of the ion-electron system (eV)
  ---------------------------------------------------
  alpha Z        PSCENC =      1149.28122492
  Ewald energy   TEWEN  =    -22138.52060139
  -Hartree energ DENC   =    -13077.16342069
  -exchange      EXHF   =         0.00000000
  -V(xc)+E(xc)   XCENC  =      1571.59461646
  PAW double counting   =     37742.76383932   -39047.60536810
  entropy T*S    EENTRO =        -0.00000000
  eigenvalues    EBANDS =     -1420.10194932
  atomic energy  EATOM  =     34890.38139807
  Solvation  Ediel_sol  =         0.00000000
  ---------------------------------------------------
  free energy    TOTEN  =      -329.37026073 eV

  energy without entropy =     -329.37026073  energy(sigma->0) =     -329.37026073


--------------------------------------------------------------------------------------------------------




--------------------------------------- Iteration      1(  20)  ---------------------------------------


    POTLOK:  cpu time    0.0758: real time    0.0760
    SETDIJ:  cpu time    0.0090: real time    0.0090
     EDDAV:  cpu time   46.0810: real time   46.1899
    CHARGE:  cpu time    1.7268: real time    1.7308
    MIXING:  cpu time    0.0040: real time    0.0040
    --------------------------------------------
      LOOP:  cpu time   47.8965: real time   48.0097

 eigenvalue-minimisations  : 17792
 total energy-change (2. order) : 0.2245787E-02  (-0.1070763E-02)
 number of electron     396.0000029 magnetization 
 augmentation part      129.8133691 magnetization 

 Broyden mixing:
  rms(total) = 0.50370E-01    rms(broyden)= 0.50356E-01
  rms(prec ) = 0.69769E-01
  weight for this iteration     100.00

 eigenvalues of (default mixing * dielectric matrix)
  average eigenvalue GAMMA=   0.6530
  2.5167  1.5287  1.0048  1.0048  0.6989  0.4880  0.4880  0.4070  0.3763  0.1200
  0.2857  0.2619  0.1823  0.2277  0.2046

 Free energy of the ion-electron system (eV)
  ---------------------------------------------------
  alpha Z        PSCENC =      1149.28122492
  Ewald energy   TEWEN  =    -22138.52060139
  -Hartree energ DENC   =    -13077.50911457
  -exchange      EXHF   =         0.00000000
  -V(xc)+E(xc)   XCENC  =      1571.59205149
  PAW double counting   =     37749.93579955   -39054.72849774
  entropy T*S    EENTRO =        -0.00000000
  eigenvalues    EBANDS =     -1419.80027526
  atomic energy  EATOM  =     34890.38139807
  Solvation  Ediel_sol  =         0.00000000
  ---------------------------------------------------
  free energy    TOTEN  =      -329.36801495 eV

  energy without entropy =     -329.36801495  energy(sigma->0) =     -329.36801495


--------------------------------------------------------------------------------------------------------




--------------------------------------- Iteration      1(  21)  ---------------------------------------


    POTLOK:  cpu time    0.0749: real time    0.0751
    SETDIJ:  cpu time    0.0090: real time    0.0090
     EDDAV:  cpu time   44.0342: real time   44.1384
    CHARGE:  cpu time    1.7273: real time    1.7313
    MIXING:  cpu time    0.0041: real time    0.0041
    --------------------------------------------
      LOOP:  cpu time   45.8494: real time   45.9578

 eigenvalue-minimisations  : 16624
 total energy-change (2. order) : 0.1105348E-02  (-0.4448687E-03)
 number of electron     396.0000029 magnetization 
 augmentation part      129.8205994 magnetization 

 Broyden mixing:
  rms(total) = 0.34201E-01    rms(broyden)= 0.34194E-01
  rms(prec ) = 0.47292E-01
  weight for this iteration     100.00

 eigenvalues of (default mixing * dielectric matrix)
  average eigenvalue GAMMA=   0.6522
  2.5075  1.6623  0.9993  0.9993  0.7793  0.4881  0.4881  0.4718  0.4718  0.1200
  0.2971  0.2877  0.2548  0.1822  0.2237  0.2024

 Free energy of the ion-electron system (eV)
  ---------------------------------------------------
  alpha Z        PSCENC =      1149.28122492
  Ewald energy   TEWEN  =    -22138.52060139
  -Hartree energ DENC   =    -13077.71149506
  -exchange      EXHF   =         0.00000000
  -V(xc)+E(xc)   XCENC  =      1571.59682688
  PAW double counting   =     37750.91841275   -39055.59405928
  entropy T*S    EENTRO =        -0.00000000
  eigenvalues    EBANDS =     -1419.71861648
  atomic energy  EATOM  =     34890.38139807
  Solvation  Ediel_sol  =         0.00000000
  ---------------------------------------------------
  free energy    TOTEN  =      -329.36690960 eV

  energy without entropy =     -329.36690960  energy(sigma->0) =     -329.36690960


--------------------------------------------------------------------------------------------------------




--------------------------------------- Iteration      1(  22)  ---------------------------------------


    POTLOK:  cpu time    0.0750: real time    0.0752
    SETDIJ:  cpu time    0.0087: real time    0.0087
     EDDAV:  cpu time   45.1885: real time   45.3005
    CHARGE:  cpu time    1.7312: real time    1.7354
    MIXING:  cpu time    0.0043: real time    0.0043
    --------------------------------------------
      LOOP:  cpu time   47.0077: real time   47.1241

 eigenvalue-minimisations  : 17184
 total energy-change (2. order) : 0.4281523E-03  (-0.1880854E-03)
 number of electron     396.0000029 magnetization 
 augmentation part      129.8197469 magnetization 

 Broyden mixing:
  rms(total) = 0.25579E-01    rms(broyden)= 0.25575E-01
  rms(prec ) = 0.35342E-01
  weight for this iteration     100.00

 eigenvalues of (default mixing * dielectric matrix)
  average eigenvalue GAMMA=   0.6644
  2.4732  1.8840  0.9944  0.9944  0.9916  0.4881  0.4881  0.6064  0.4880  0.3741
  0.1200  0.2907  0.2657  0.1822  0.2334  0.2216  0.1980

 Free energy of the ion-electron system (eV)
  ---------------------------------------------------
  alpha Z        PSCENC =      1149.28122492
  Ewald energy   TEWEN  =    -22138.52060139
  -Hartree energ DENC   =    -13077.94355359
  -exchange      EXHF   =         0.00000000
  -V(xc)+E(xc)   XCENC  =      1571.60642546
  PAW double counting   =     37748.56767947   -39053.16497009
  entropy T*S    EENTRO =        -0.00000000
  eigenvalues    EBANDS =     -1419.57408430
  atomic energy  EATOM  =     34890.38139807
  Solvation  Ediel_sol  =         0.00000000
  ---------------------------------------------------
  free energy    TOTEN  =      -329.36648145 eV

  energy without entropy =     -329.36648145  energy(sigma->0) =     -329.36648145


--------------------------------------------------------------------------------------------------------




--------------------------------------- Iteration      1(  23)  ---------------------------------------


    POTLOK:  cpu time    0.0755: real time    0.0757
    SETDIJ:  cpu time    0.0088: real time    0.0088
     EDDAV:  cpu time   48.0154: real time   48.1443
    CHARGE:  cpu time    1.7523: real time    1.7565
    MIXING:  cpu time    0.0042: real time    0.0043
    --------------------------------------------
      LOOP:  cpu time   49.8562: real time   49.9895

 eigenvalue-minimisations  : 18528
 total energy-change (2. order) : 0.2340253E-03  (-0.6594922E-04)
 number of electron     396.0000029 magnetization 
 augmentation part      129.8155481 magnetization 

 Broyden mixing:
  rms(total) = 0.17506E-01    rms(broyden)= 0.17504E-01
  rms(prec ) = 0.24968E-01
  weight for this iteration     100.00

 eigenvalues of (default mixing * dielectric matrix)
  average eigenvalue GAMMA=   0.6768
  2.4813  1.9622  1.1661  1.0628  1.0628  0.4880  0.4880  0.5984  0.5984  0.3843
  0.3808  0.1200  0.2902  0.2584  0.1822  0.2401  0.2205  0.1980

 Free energy of the ion-electron system (eV)
  ---------------------------------------------------
  alpha Z        PSCENC =      1149.28122492
  Ewald energy   TEWEN  =    -22138.52060139
  -Hartree energ DENC   =    -13078.23974205
  -exchange      EXHF   =         0.00000000
  -V(xc)+E(xc)   XCENC  =      1571.61872246
  PAW double counting   =     37745.40901049   -39049.94517221
  entropy T*S    EENTRO =        -0.00000000
  eigenvalues    EBANDS =     -1419.35108770
  atomic energy  EATOM  =     34890.38139807
  Solvation  Ediel_sol  =         0.00000000
  ---------------------------------------------------
  free energy    TOTEN  =      -329.36624742 eV

  energy without entropy =     -329.36624742  energy(sigma->0) =     -329.36624742


--------------------------------------------------------------------------------------------------------




--------------------------------------- Iteration      1(  24)  ---------------------------------------


    POTLOK:  cpu time    0.0745: real time    0.0747
    SETDIJ:  cpu time    0.0089: real time    0.0090
     EDDAV:  cpu time   47.4487: real time   47.5609
    CHARGE:  cpu time    1.7179: real time    1.7220
    MIXING:  cpu time    0.0045: real time    0.0045
    --------------------------------------------
      LOOP:  cpu time   49.2545: real time   49.3710

 eigenvalue-minimisations  : 18256
 total energy-change (2. order) : 0.1053669E-03  (-0.2618624E-04)
 number of electron     396.0000029 magnetization 
 augmentation part      129.8135122 magnetization 

 Broyden mixing:
  rms(total) = 0.13714E-01    rms(broyden)= 0.13712E-01
  rms(prec ) = 0.19652E-01
  weight for this iteration     100.00

 eigenvalues of (default mixing * dielectric matrix)
  average eigenvalue GAMMA=   0.6930
  2.5369  2.1682  1.1773  1.1773  0.9303  0.7626  0.7626  0.4878  0.4878  0.4253
  0.4253  0.1200  0.3133  0.2985  0.2618  0.1822  0.2323  0.2201  0.1974

 Free energy of the ion-electron system (eV)
  ---------------------------------------------------
  alpha Z        PSCENC =      1149.28122492
  Ewald energy   TEWEN  =    -22138.52060139
  -Hartree energ DENC   =    -13078.47226283
  -exchange      EXHF   =         0.00000000
  -V(xc)+E(xc)   XCENC  =      1571.62862151
  PAW double counting   =     37743.89460634   -39048.38789028
  entropy T*S    EENTRO =        -0.00000000
  eigenvalues    EBANDS =     -1419.17123838
  atomic energy  EATOM  =     34890.38139807
  Solvation  Ediel_sol  =         0.00000000
  ---------------------------------------------------
  free energy    TOTEN  =      -329.36614205 eV

  energy without entropy =     -329.36614205  energy(sigma->0) =     -329.36614205


--------------------------------------------------------------------------------------------------------




--------------------------------------- Iteration      1(  25)  ---------------------------------------


    POTLOK:  cpu time    0.0746: real time    0.0748
    SETDIJ:  cpu time    0.0088: real time    0.0088
     EDDAV:  cpu time   46.8488: real time   46.9597
    CHARGE:  cpu time    1.7289: real time    1.7330
    MIXING:  cpu time    0.0049: real time    0.0049
    --------------------------------------------
      LOOP:  cpu time   48.6661: real time   48.7813

 eigenvalue-minimisations  : 18032
 total energy-change (2. order) : 0.6066453E-04  (-0.1989089E-04)
 number of electron     396.0000029 magnetization 
 augmentation part      129.8111557 magnetization 

 Broyden mixing:
  rms(total) = 0.10772E-01    rms(broyden)= 0.10770E-01
  rms(prec ) = 0.15199E-01
  weight for this iteration     100.00

 eigenvalues of (default mixing * dielectric matrix)
  average eigenvalue GAMMA=   0.7091
  2.6479  2.3095  1.3701  1.3701  0.8921  0.8921  0.6799  0.4878  0.4878  0.4935
  0.4295  0.3583  0.1200  0.2995  0.2639  0.1822  0.2404  0.2404  0.2189  0.1976

 Free energy of the ion-electron system (eV)
  ---------------------------------------------------
  alpha Z        PSCENC =      1149.28122492
  Ewald energy   TEWEN  =    -22138.52060139
  -Hartree energ DENC   =    -13078.66448425
  -exchange      EXHF   =         0.00000000
  -V(xc)+E(xc)   XCENC  =      1571.63616383
  PAW double counting   =     37742.96908387   -39047.42726182
  entropy T*S    EENTRO =        -0.00000000
  eigenvalues    EBANDS =     -1419.02160460
  atomic energy  EATOM  =     34890.38139807
  Solvation  Ediel_sol  =         0.00000000
  ---------------------------------------------------
  free energy    TOTEN  =      -329.36608139 eV

  energy without entropy =     -329.36608139  energy(sigma->0) =     -329.36608139


--------------------------------------------------------------------------------------------------------




--------------------------------------- Iteration      1(  26)  ---------------------------------------


    POTLOK:  cpu time    0.0741: real time    0.0742
    SETDIJ:  cpu time    0.0092: real time    0.0092
     EDDAV:  cpu time   47.5096: real time   47.6220
    CHARGE:  cpu time    1.7044: real time    1.7085
    MIXING:  cpu time    0.0046: real time    0.0046
    --------------------------------------------
      LOOP:  cpu time   49.3018: real time   49.4185

 eigenvalue-minimisations  : 18272
 total energy-change (2. order) : 0.6551370E-04  (-0.1083214E-04)
 number of electron     396.0000029 magnetization 
 augmentation part      129.8102401 magnetization 

 Broyden mixing:
  rms(total) = 0.67721E-02    rms(broyden)= 0.67710E-02
  rms(prec ) = 0.92794E-02
[...]
 -0.062  -0.267   0.045   0.084   0.338   0.066   0.311  -0.045  -0.086  -0.364   0.154  -0.040   0.435   0.014   0.028  -0.071
  0.064  -0.197   0.136  -0.085   0.168  -0.072   0.226  -0.130   0.099  -0.185   0.063  -0.017   0.014   0.308  -0.031  -0.003
  0.075   0.060  -0.002   0.048  -0.025  -0.071  -0.068   0.003  -0.041   0.033   0.059  -0.016   0.028  -0.031   0.382  -0.005
  0.016   0.056  -0.019  -0.009  -0.068  -0.014  -0.063   0.014   0.012   0.072  -0.034   0.011  -0.071  -0.003  -0.005   0.016
 -0.009   0.043  -0.006   0.020  -0.025   0.012  -0.044   0.014  -0.020   0.032  -0.013   0.004  -0.003  -0.046   0.005   0.001
  0.006  -0.009  -0.007   0.009   0.016   0.004   0.012   0.004  -0.003  -0.012  -0.013   0.004  -0.005   0.005  -0.060   0.001


------------------------ aborting loop because EDIFF is reached ----------------------------------------


    CHARGE:  cpu time    1.7006: real time    1.7046
    FORLOC:  cpu time    0.0349: real time    0.0361
    FORNL :  cpu time   10.9025: real time   10.9283
    STRESS:  cpu time   32.6387: real time   32.7164
    FORCOR:  cpu time    0.1010: real time    0.1012
    FORHAR:  cpu time    0.0483: real time    0.0485
    MIXING:  cpu time    0.0050: real time    0.0051
    OFIELD:  cpu time    0.0001: real time    0.0001

  FORCE on cell =-STRESS in cart. coord.  units (eV):
  Direction    XX          YY          ZZ          XY          YZ          ZX
  --------------------------------------------------------------------------------------
  Alpha Z  1149.28122  1149.28122  1149.28122
  Ewald   -1855.06002 -1711.40313-18572.20206    88.78422    48.64376   -92.44502
  Hartree  8385.41662  8430.90920 -3737.45289    19.06830    22.32576   -43.04245
  E(xc)   -2008.03781 -2008.04760 -2011.60342    -0.05308    -0.07089     0.11150
  Local  -14141.88298-14318.56563 14454.35808  -100.05023   -70.19176   135.05679
  n-local  -885.93562  -883.38545  -909.05138     2.82854     1.57109    -2.03784
  augment  3353.05408  3345.74954  3427.86235    -3.99670    -0.51188     0.94457
  Kinetic  5955.62811  5948.04600  6157.37960    -6.11549     0.93556    -3.66585
  Fock        0.00000     0.00000     0.00000     0.00000     0.00000     0.00000
  -------------------------------------------------------------------------------------
  Total      -47.5364024    -47.4158387    -41.4285081      0.4655531      2.7016529     -5.0782927
  in kB     -126.1840125   -125.8639798   -109.9707830      1.2357972      7.1714599    -13.4801819
  external PRESSURE =    -120.6729251 kB  Pullay stress =       0.0000000 kB


 VOLUME and BASIS-vectors are now :
 -----------------------------------------------------------------------------
  energy-cutoff  :      500.00
  volume of cell :      603.58
      direct lattice vectors                 reciprocal lattice vectors
     8.571941750  0.000000000  0.000000000     0.116659682  0.067353499  0.000000000
    -4.285970880  7.423519320  0.000000000     0.000000000  0.134706998  0.000000000
     0.000000000  0.000000000  9.485134750     0.000000000  0.000000000  0.105428128

  length of vectors
     8.571941750  8.571941757  9.485134750     0.134706998  0.134706998  0.105428128


 FORCES acting on ions
    electron-ion (+dipol)            ewald-force                    non-local-force                 convergence-correction
 -----------------------------------------------------------------------------------------------
   0.572E+02 0.958E+02 0.242E+02   -.586E+02 -.983E+02 -.258E+02   0.107E+00 0.576E-01 -.652E+00   0.109E-01 0.245E-01 0.178E-01
   0.655E+02 0.954E+02 -.290E+02   -.678E+02 -.987E+02 0.295E+02   -.266E-01 0.313E+00 -.286E+00   -.156E-02 -.199E-02 -.929E-02
   0.977E+02 0.631E+02 0.410E+02   -.995E+02 -.641E+02 -.430E+02   -.656E+00 0.322E+00 -.295E+00   0.926E-02 -.452E-02 0.256E-01
   0.793E+02 0.529E+02 -.378E+02   -.819E+02 -.534E+02 0.373E+02   -.513E+00 0.419E+00 0.557E+00   0.515E-02 0.134E-01 -.129E-01
   0.720E+02 -.377E+02 0.512E+02   -.740E+02 0.385E+02 -.532E+02   -.360E+00 0.136E+00 0.557E-01   0.150E-01 0.123E-02 0.249E-01
   0.721E+02 -.460E+02 -.212E+02   -.745E+02 0.471E+02 0.205E+02   -.165E+00 0.664E-01 -.851E-01   0.242E-02 -.538E-02 -.571E-02
   0.649E+00 0.498E+02 0.330E+02   0.979E-01 -.507E+02 -.345E+02   0.583E+00 -.372E+00 -.129E+01   0.244E-02 0.109E-01 0.678E-02
   -.476E+01 0.888E+02 -.374E+02   0.559E+01 -.913E+02 0.381E+02   0.393E+00 -.333E-01 0.248E+00   0.799E-02 0.172E-02 -.527E-02
   0.124E+02 0.321E+02 0.488E+02   -.118E+02 -.317E+02 -.510E+02   -.112E+00 -.120E+00 -.305E+00   -.855E-03 -.902E-02 0.180E-01
   0.170E+02 0.237E+02 -.299E+02   -.169E+02 -.227E+02 0.301E+02   -.159E+00 -.111E+00 -.966E-01   0.357E-02 0.127E-01 -.781E-02
   0.122E+02 -.258E+02 0.404E+02   -.118E+02 0.263E+02 -.425E+02   -.831E-01 -.714E+00 -.644E+00   -.691E-03 -.273E-02 0.195E-01
   0.695E+01 -.505E+02 -.237E+02   -.604E+01 0.522E+02 0.239E+02   -.265E-01 -.650E+00 0.286E+00   0.444E-02 -.434E-02 -.708E-02
   -.811E+02 -.423E+01 0.433E+02   0.827E+02 0.403E+01 -.447E+02   -.629E-01 -.588E+00 -.579E+00   -.138E-01 0.108E-01 0.983E-02
   -.616E+02 0.492E+02 -.512E+02   0.628E+02 -.515E+02 0.516E+02   0.130E+00 -.385E+00 -.334E+00   -.292E-02 -.126E-01 -.130E-01
   -.687E+02 0.162E+02 0.502E+02   0.702E+02 -.160E+02 -.520E+02   -.664E+00 -.120E+00 -.442E+00   -.857E-02 -.183E-01 0.149E-01
   -.549E+02 -.101E+02 -.358E+02   0.564E+02 0.112E+02 0.354E+02   -.223E+00 -.196E+00 -.547E+00   -.928E-02 0.500E-02 -.105E-01
   -.500E+02 -.110E+03 0.328E+02   0.510E+02 0.112E+03 -.345E+02   -.429E+00 -.477E+00 -.884E+00   -.156E-01 -.153E-01 0.187E-01
   -.475E+02 -.109E+03 -.376E+02   0.486E+02 0.112E+03 0.372E+02   -.916E-01 -.512E+00 -.370E+00   -.713E-02 -.343E-02 -.806E-02
   0.386E+02 0.506E+02 -.329E+03   -.389E+02 -.508E+02 0.357E+03   -.142E+00 -.118E+00 -.286E+02   0.173E-02 -.627E-03 0.905E-02
   0.239E+02 0.460E+02 0.367E+03   -.240E+02 -.458E+02 -.396E+03   0.250E+00 -.584E+00 0.279E+02   0.857E-02 0.486E-02 -.141E-01
   0.317E+02 0.432E+02 -.404E+03   -.317E+02 -.433E+02 0.432E+03   0.678E-01 -.234E+00 -.280E+02   -.114E-02 0.116E-01 0.221E-02
   0.149E+02 0.552E+02 0.358E+03   -.141E+02 -.559E+02 -.382E+03   -.716E+00 0.199E+00 0.274E+02   0.435E-02 0.610E-03 0.477E-02
   0.302E+02 0.106E+02 -.325E+03   -.304E+02 -.105E+02 0.353E+03   0.240E+00 -.511E+00 -.289E+02   0.196E-02 -.504E-04 0.996E-02
   0.176E+02 0.135E+02 0.368E+03   -.167E+02 -.133E+02 -.395E+03   -.707E+00 -.588E+00 0.267E+02   -.214E-02 0.914E-02 -.394E-02
   0.284E+02 0.109E+02 -.402E+03   -.278E+02 -.117E+02 0.430E+03   -.712E+00 0.137E-01 -.278E+02   0.126E-02 0.640E-02 -.106E-01
   0.290E+02 0.253E+01 0.364E+03   -.290E+02 -.134E+01 -.388E+03   -.294E+00 -.117E+01 0.271E+02   0.197E-02 -.839E-03 0.204E-02
   0.557E+02 0.339E+01 -.291E+03   -.586E+02 -.481E+01 0.317E+03   0.208E+01 0.243E+01 -.263E+02   0.503E-02 0.372E-02 0.629E-02
   0.347E+02 -.386E+02 0.340E+03   -.357E+02 0.414E+02 -.365E+03   0.227E+00 -.222E+01 0.253E+02   0.239E-02 -.842E-02 0.118E-02
   0.355E+02 -.128E+01 -.368E+03   -.367E+02 0.135E+01 0.393E+03   0.723E+00 0.103E+01 -.260E+02   0.888E-02 -.113E-01 -.239E-02
   0.273E+02 -.390E+02 0.345E+03   -.270E+02 0.419E+02 -.367E+03   -.734E+00 -.258E+01 0.256E+02   0.224E-02 0.457E-02 0.354E-02
   -.543E+01 0.310E+02 -.324E+03   0.567E+01 -.305E+02 0.351E+03   -.475E+00 -.101E+01 -.278E+02   -.106E-02 -.420E-02 0.664E-02
   -.193E+02 0.218E+02 0.359E+03   0.203E+02 -.212E+02 -.386E+03   -.111E+01 -.650E+00 0.279E+02   0.288E-02 0.201E-02 -.319E-02
   0.451E+00 0.353E+02 -.412E+03   -.101E+01 -.363E+02 0.441E+03   0.174E+00 0.526E+00 -.283E+02   0.707E-02 0.310E-02 -.211E-02
   -.113E+02 0.229E+02 0.344E+03   0.108E+02 -.233E+02 -.368E+03   0.436E+00 0.341E+00 0.266E+02   -.482E-02 -.302E-02 0.313E-02
   0.241E+01 -.228E+02 -.328E+03   -.303E+01 0.232E+02 0.356E+03   0.472E+00 -.174E+00 -.282E+02   0.625E-03 -.388E-03 0.845E-02
   -.169E+02 -.465E+01 0.373E+03   0.175E+02 0.426E+01 -.400E+03   -.810E+00 -.489E+00 0.276E+02   0.412E-02 0.451E-02 0.920E-04
   0.869E+01 -.197E+02 -.407E+03   -.103E+02 0.200E+02 0.435E+03   0.116E+01 -.515E+00 -.272E+02   -.578E-03 0.840E-02 -.857E-02
   -.122E+02 -.104E+02 0.371E+03   0.122E+02 0.106E+02 -.397E+03   -.935E-01 -.382E+00 0.279E+02   -.405E-02 -.287E-02 0.158E-02
   0.762E+01 -.294E+02 -.305E+03   -.887E+01 0.305E+02 0.332E+03   0.570E+00 0.117E-01 -.271E+02   -.251E-02 0.283E-02 0.652E-02
   -.294E+02 -.640E+02 0.338E+03   0.314E+02 0.676E+02 -.362E+03   -.191E+01 -.292E+01 0.248E+02   -.209E-02 -.361E-02 0.375E-02
   0.131E+02 -.276E+02 -.377E+03   -.152E+02 0.283E+02 0.402E+03   0.120E+01 0.705E+00 -.256E+02   0.373E-02 -.465E-02 -.786E-02
   -.323E+02 -.471E+02 0.344E+03   0.339E+02 0.483E+02 -.367E+03   -.160E+01 -.921E+00 0.258E+02   -.279E-02 -.110E-02 0.296E-02
   -.576E+02 0.227E+01 -.290E+03   0.605E+02 -.788E+00 0.314E+03   -.199E+01 -.163E+01 -.257E+02   -.470E-03 -.296E-02 0.918E-02
   -.301E+02 0.377E+02 0.331E+03   0.320E+02 -.395E+02 -.356E+03   -.416E+00 0.203E+01 0.254E+02   -.106E-01 0.154E-02 -.890E-02
   -.568E+02 -.245E+01 -.384E+03   0.607E+02 0.479E+01 0.410E+03   -.285E+01 -.250E+01 -.256E+02   -.622E-02 -.170E-02 -.832E-02
   -.113E+02 0.291E+02 0.316E+03   0.118E+02 -.301E+02 -.338E+03   0.140E+00 0.111E+01 0.247E+02   -.371E-03 0.133E-02 0.507E-02
   -.495E+02 -.492E+02 -.309E+03   0.526E+02 0.513E+02 0.334E+03   -.239E+01 -.201E+01 -.268E+02   -.313E-02 -.992E-03 0.101E-01
   -.158E+02 0.352E+01 0.337E+03   0.161E+02 -.549E+01 -.362E+03   0.636E+00 0.210E+01 0.251E+02   -.209E-02 0.506E-02 0.150E-04
   -.476E+02 -.451E+02 -.380E+03   0.504E+02 0.475E+02 0.406E+03   -.191E+01 -.259E+01 -.256E+02   -.145E-02 -.135E-02 -.132E-01
   -.300E+02 0.156E+02 0.335E+03   0.309E+02 -.177E+02 -.358E+03   0.110E+00 0.195E+01 0.255E+02   0.191E-02 -.269E-02 0.269E-02
   -.262E+02 -.463E+02 -.271E+03   0.260E+02 0.481E+02 0.294E+03   0.404E+00 -.832E+00 -.242E+02   -.240E-02 -.144E-03 0.831E-02
   -.255E+02 -.433E+02 0.315E+03   0.269E+02 0.440E+02 -.337E+03   -.387E+00 -.162E+00 0.230E+02   -.122E-02 -.138E-01 -.147E-02
   -.181E+02 -.496E+02 -.348E+03   0.180E+02 0.522E+02 0.371E+03   0.103E+00 -.138E+01 -.230E+02   -.126E-01 -.946E-02 -.717E-02
   -.161E+02 -.506E+02 0.307E+03   0.168E+02 0.518E+02 -.327E+03   -.134E+00 -.794E+00 0.230E+02   -.687E-03 0.836E-03 0.525E-02
 -----------------------------------------------------------------------------------------------
   0.127E+02 0.175E+02 0.190E+02   -.206E-12 0.426E-13 -.114E-12   -.127E+02 -.175E+02 -.191E+02   -.287E-02 -.119E-02 0.972E-01
 
 
 POSITION                                       TOTAL-FORCE (eV/Angst)
 -----------------------------------------------------------------------------------
     -4.27604      7.42075      0.01295        -1.276343     -2.361717     -2.270493
     -4.25551      7.41884      4.62221        -2.340411     -3.080284      0.127753
     -1.36221      2.42948      9.47575        -2.446444     -0.656351     -2.208514
     -1.38295      2.40486      4.61758        -3.178193     -0.124174      0.066094
      5.78914      4.79006      9.45064        -2.299661      0.927771     -1.892237
      5.77306      4.80807      4.63318        -2.558463      1.137659     -0.810262
     -1.51654      7.39527      0.02931         1.333060     -1.227054     -2.796787
      2.78308      0.00135      4.59840         1.236012     -2.550718      0.911210
      1.38291      2.41635      9.46211         0.501760      0.243463     -2.446656
      1.40131      2.40212      4.62106        -0.096211      0.947358      0.088257
     -0.01208      4.86537      9.48486         0.353235     -0.133848     -2.648990
     -0.02120      4.84478      4.60248         0.881156      1.029282      0.469035
      1.29348      7.38433      9.45857         1.545751     -0.779623     -2.011059
      5.57921      0.01477      4.63032         1.417970     -2.637107      0.074857
      4.17916      2.40811      9.45556         0.826244      0.052105     -2.225607
      4.16708      2.40492      4.64804         1.283821      0.893398     -1.007655
      2.79451      4.79307      0.00648         0.578337      1.832526     -2.581610
      2.77994      4.81479      4.63913         1.017023      2.423665     -0.741005
      0.02062      1.62804      0.91813        -0.361470     -0.387735     -0.260557
      1.38761      0.81133      3.71150         0.094844     -0.386893     -0.412151
     -0.00958      1.60571      5.53968         0.086538     -0.299961      0.105606
      1.36987      0.82096      8.34600         0.088053     -0.520980      3.019153
     -1.39528      4.04369      0.94214         0.021890     -0.399201     -0.744333
     -0.01290      3.22607      3.72275         0.166979     -0.451972     -0.815620
     -1.39456      4.05491      5.50941        -0.174900     -0.786149      0.478055
      0.01644      3.22058      8.31290        -0.284256      0.019123      3.008251
     -2.78580      6.39800      0.93052        -0.801509      1.005745     -0.756349
     -1.38670      5.66260      3.68162        -0.796858      0.504929      0.307042
     -2.80381      6.42771      5.58011        -0.424211      1.089257     -1.121997
     -1.38726      5.62244      8.32914        -0.395610      0.315718      2.948154
      2.78954      1.62879      0.92087        -0.235602     -0.534666     -0.235208
      4.17492      0.79687      3.66271        -0.056782     -0.002975      0.640664
      2.79352      1.61464      5.56191        -0.376690     -0.517055     -0.012588
      4.17679      0.77640      8.31047        -0.107713     -0.055824      3.254134
      1.38690      4.00757      0.93168        -0.142831      0.153950     -0.272769
      2.79576      3.25656      3.69548        -0.194605     -0.879511     -0.035558
      1.39891      4.02213      5.52343        -0.498871     -0.212273      0.490113
      2.78715      3.22004      8.36814        -0.105778     -0.141294      2.465356
     -0.00389      6.44378      0.93422        -0.683245      1.116532     -0.615764
      1.37047      5.65590      3.70702         0.101401      0.661817      0.232488
      0.01578      6.41956      5.58986        -0.882070      1.339317     -1.007923
      1.36580      5.64478      8.36269         0.053871      0.286924      2.759252
      5.55546      1.59809      0.93690         0.851217     -0.150832     -1.085948
      6.95900      0.77370      3.69336         1.504857      0.266122      0.579450
      5.55403      1.61889      5.54342         1.023269     -0.150016      0.092666
      7.00007      0.78904      8.31244         0.626243      0.100712      3.370435
      4.19771      3.99900      0.93946         0.680770      0.159709     -0.808565
      5.60142      3.18669      3.69568         0.935668      0.137340      0.607214
      4.18663      4.03926      5.53707         0.867974     -0.180069      0.156231
      5.54887      3.22928      8.32482         1.019261     -0.176595      2.884526
      2.79265      6.44468      0.92131         0.136072      0.942850     -0.991442
      4.18608      5.63890      3.67770         1.036093      0.549717      1.095941
      2.82495      6.44723      5.53798        -0.077027      1.267085     -0.552639
      4.19457      5.61355      8.33462         0.526388      0.380805      3.138345
 -----------------------------------------------------------------------------------
    total drift:                               -0.020686     -0.030501     -0.006182


--------------------------------------------------------------------------------------------------------



  FREE ENERGIE OF THE ION-ELECTRON SYSTEM (eV)
  ---------------------------------------------------
  free  energy   TOTEN  =      -329.3659779401 eV

  energy  without entropy=     -329.3659779401  energy(sigma->0) =     -329.36597794
 


--------------------------------------------------------------------------------------------------------


    POTLOK:  cpu time    0.0848: real time    0.0850


--------------------------------------------------------------------------------------------------------


     LOOP+:  cpu time 1189.2218: real time 1205.5057
    4ORBIT:  cpu time    0.0000: real time    0.0000

volume of typ            1:    19.0 %

volume of typ            2:     9.7 %
 
total charge     
 
# of ion       s       p       d       tot
------------------------------------------
    1        0.244   0.278   7.787   8.309
    2        0.266   0.328   7.798   8.392
    3        0.258   0.308   7.797   8.363
    4        0.287   0.372   7.809   8.468
    5        0.265   0.329   7.786   8.380
    6        0.283   0.367   7.795   8.445
    7        0.260   0.313   7.793   8.366
    8        0.281   0.361   7.806   8.448
    9        0.289   0.388   7.804   8.481
   10        0.308   0.429   7.822   8.558
   11        0.284   0.374   7.796   8.453
   12        0.312   0.441   7.814   8.567
   13        0.260   0.318   7.778   8.356
   14        0.284   0.368   7.795   8.447
   15        0.284   0.375   7.791   8.450
   16        0.306   0.426   7.812   8.543
   17        0.279   0.363   7.784   8.426
   18        0.309   0.433   7.805   8.546
   19        1.283   2.721   0.009   4.012
   20        1.282   2.739   0.009   4.030
   21        1.285   2.724   0.009   4.018
   22        1.296   2.651   0.005   3.953
   23        1.284   2.713   0.008   4.006
   24        1.283   2.735   0.009   4.027
   25        1.284   2.733   0.009   4.026
   26        1.298   2.648   0.005   3.951
   27        1.285   2.693   0.007   3.985
   28        1.287   2.698   0.007   3.992
   29        1.289   2.683   0.006   3.979
   30        1.300   2.633   0.005   3.938
   31        1.284   2.714   0.008   4.006
   32        1.286   2.712   0.008   4.007
   33        1.285   2.724   0.009   4.018
   34        1.298   2.640   0.005   3.943
   35        1.284   2.718   0.008   4.009
   36        1.285   2.727   0.008   4.021
   37        1.284   2.731   0.009   4.024
   38        1.295   2.668   0.006   3.969
   39        1.286   2.696   0.007   3.990
   40        1.287   2.701   0.007   3.995
   41        1.290   2.684   0.006   3.981
   42        1.298   2.640   0.005   3.944
   43        1.288   2.678   0.006   3.972
   44        1.287   2.695   0.007   3.988
   45        1.287   2.704   0.007   3.999
   46        1.300   2.621   0.004   3.925
   47        1.288   2.688   0.007   3.983
   48        1.287   2.695   0.006   3.989
   49        1.287   2.705   0.007   3.999
   50        1.298   2.640   0.005   3.943
   51        1.287   2.669   0.005   3.962
   52        1.291   2.666   0.005   3.962
   53        1.290   2.673   0.005   3.968
   54        1.302   2.612   0.003   3.917
--------------------------------------------------
tot          51.47  103.35  140.62  295.43
 

 total amount of memory used by VASP MPI-rank0   186396. kBytes
=======================================================================

   base      :      30000. kBytes
   nonlr-proj:      30015. kBytes
   fftplans  :       6058. kBytes
   grid      :      19644. kBytes
   one-center:        839. kBytes
   wavefun   :      99840. kBytes
 
  
  
 General timing and accounting informations for this job:
 ========================================================
  
                  Total CPU time used (sec):     1215.332
                            User time (sec):     1211.891
                          System time (sec):        3.441
                         Elapsed time (sec):     1235.261
  
                   Maximum memory used (kb):      255984.
                   Average memory used (kb):           0.
  
                          Minor page faults:        38809
                          Major page faults:           78
                 Voluntary context switches:         2023
