 vasp.5.4.4.18Apr17-6-g9f103f2a35 (build May 12 2020 04:58:55) complex          
  
 MD_VERSION_INFO: Compiled 2020-05-12T11:58:55-UTC in devlin.sd.materialsdesign.
 com:/home/medea2/data/build/wwolf/vasp-gpu5.4.4/13047/x86_64/src/src/build/std 
 from svn 13047
 
 This VASP executable licensed from Materials Design, Inc.
 
 executed on                        Lin64 date 2023.04.27  09:26:28
 running on   16 total cores
 distrk:  each k-point on   16 cores,    1 groups
 distr:  one band on NCORES_PER_BAND=   1 cores,   16 groups


--------------------------------------------------------------------------------------------------------


 INCAR:
 POTCAR:    PAW_PBE Ni 02Aug2007                  
 POTCAR:    PAW_PBE O 08Apr2002                   

 ----------------------------------------------------------------------------- 
|                                                                             |
|           W    W    AA    RRRRR   N    N  II  N    N   GGGG   !!!           |
|           W    W   A  A   R    R  NN   N  II  NN   N  G    G  !!!           |
|           W    W  A    A  R    R  N N  N  II  N N  N  G       !!!           |
|           W WW W  AAAAAA  RRRRR   N  N N  II  N  N N  G  GGG   !            |
|           WW  WW  A    A  R   R   N   NN  II  N   NN  G    G                |
|           W    W  A    A  R    R  N    N  II  N    N   GGGG   !!!           |
|                                                                             |
|      For optimal performance we recommend to set                            |
|        NCORE= 4 - approx SQRT( number of cores)                             |
|      NCORE specifies how many cores store one orbital (NPAR=cpu/NCORE).     |
|      This setting can  greatly improve the performance of VASP for DFT.     |
|      The default,   NCORE=1            might be grossly inefficient         |
|      on modern multi-core architectures or massively parallel machines.     |
|      Do your own testing !!!!                                               |
|      Unfortunately you need to use the default for GW and RPA calculations. |
|      (for HF NCORE is supported but not extensively tested yet)             |
|                                                                             |
 ----------------------------------------------------------------------------- 

 POTCAR:    PAW_PBE Ni 02Aug2007                  
  local pseudopotential read in
  partial core-charges read in
  partial kinetic energy density read in
  atomic valenz-charges read in
  non local Contribution for L=           2  read in
    real space projection operators read in
  non local Contribution for L=           2  read in
    real space projection operators read in
  non local Contribution for L=           0  read in
    real space projection operators read in
  non local Contribution for L=           0  read in
    real space projection operators read in
  non local Contribution for L=           1  read in
    real space projection operators read in
  non local Contribution for L=           1  read in
    real space projection operators read in
    PAW grid and wavefunctions read in
 
   number of l-projection  operators is LMAX  =           6
   number of lm-projection operators is LMMAX =          18
 
 POTCAR:    PAW_PBE O 08Apr2002                   
  local pseudopotential read in
  partial core-charges read in
  partial kinetic energy density read in
  kinetic energy density of atom read in
  atomic valenz-charges read in
  non local Contribution for L=           0  read in
    real space projection operators read in
  non local Contribution for L=           0  read in
    real space projection operators read in
  non local Contribution for L=           1  read in
    real space projection operators read in
  non local Contribution for L=           1  read in
    real space projection operators read in
    PAW grid and wavefunctions read in
 
   number of l-projection  operators is LMAX  =           4
   number of lm-projection operators is LMMAX =           8
 
 Optimization of the real space projectors (new method)

 maximal supplied QI-value         = 16.25
 optimisation between [QCUT,QGAM] = [ 11.38, 22.75] = [ 36.24,144.96] Ry 
 Optimized for a Real-space Cutoff    1.47 Angstroem

   l    n(q)    QCUT    max X(q) W(low)/X(q) W(high)/X(q)  e(spline) 
   2      9    11.376    60.317    0.17E-03    0.16E-04    0.16E-06
   2      9    11.376    55.921    0.17E-03    0.16E-04    0.17E-06
   0     10    11.376    51.690    0.45E-04    0.60E-04    0.21E-06
   0     10    11.376    30.015    0.37E-04    0.55E-04    0.19E-06
   1     10    11.376    18.849    0.83E-04    0.11E-03    0.92E-07
   1     10    11.376    14.624    0.69E-04    0.92E-04    0.82E-07
 Optimization of the real space projectors (new method)

 maximal supplied QI-value         = 24.76
 optimisation between [QCUT,QGAM] = [ 11.39, 22.77] = [ 36.31,145.25] Ry 
 Optimized for a Real-space Cutoff    1.10 Angstroem

   l    n(q)    QCUT    max X(q) W(low)/X(q) W(high)/X(q)  e(spline) 
   0      7    11.387    20.381    0.22E-03    0.48E-03    0.18E-06
   0      7    11.387    15.268    0.22E-03    0.52E-03    0.19E-06
   1      7    11.387     5.964    0.22E-03    0.73E-03    0.24E-06
   1      7    11.387     5.382    0.19E-03    0.60E-03    0.21E-06

 ----------------------------------------------------------------------------- 
|                                                                             |
|  ADVICE TO THIS USER RUNNING 'VASP/VAMP'   (HEAR YOUR MASTER'S VOICE ...):  |
|                                                                             |
|      You enforced a specific xc-type in the INCAR file,                     |
|      a different type was found on the POTCAR file                          |
|          I HOPE YOU KNOW, WHAT YOU ARE  DOING                               |
|                                                                             |
 ----------------------------------------------------------------------------- 

  PAW_PBE Ni 02Aug2007                  :
 energy of atom  1       EATOM=-1077.6739
 kinetic energy error for atom=    0.0030 (will be added to EATOM!!)
  PAW_PBE O 08Apr2002                   :
 energy of atom  2       EATOM= -432.3788
 kinetic energy error for atom=    0.0224 (will be added to EATOM!!)
 
 
 POSCAR: NiO2_C2_m_scale_1_000_disp_0_08_round_2 
  positions in direct lattice
  No initial velocities read in
 exchange correlation table for  LEXCH =       14
   RHO(1)=    0.500       N(1)  =     2000
   RHO(2)=  100.500       N(2)  =     4000
 


--------------------------------------------------------------------------------------------------------


 ion  position               nearest neighbor table
   1  0.988  0.982  0.987-  54 1.66  22 1.67  46 1.72  27 1.90  51 2.07  19 2.11  17 2.59   5 2.62
                             7 2.75  13 2.83   9 2.87   3 3.04
   2  0.993  0.998  0.502-  53 1.75  44 1.80  21 1.85  52 1.91  20 2.03  29 2.10  14 2.72   4 2.75
                             6 2.78  18 2.82  10 2.89   8 2.89
   3  0.010  0.356  0.999-  23 1.68  26 1.71  50 1.82  43 1.89  19 1.92  46 2.11  11 2.52   5 2.72
                             9 2.76  15 2.80  13 2.98   1 3.04
   4  0.003  0.331  0.494-  44 1.92  25 1.95  21 1.96  48 1.97  24 2.01  45 2.04  12 2.73   2 2.75
                            10 2.77  14 2.78  16 2.79   6 2.85
   5  0.006  0.678  0.991-  30 1.70  54 1.73  50 1.91  27 1.94  47 1.95  23 1.96   1 2.62  11 2.69
                             7 2.71   3 2.72  17 2.84  15 2.91
   6  0.974  0.656  0.507-  49 1.80  52 1.86  29 1.91  25 1.94  48 1.99  28 2.13  16 2.68  18 2.75
                             2 2.78   8 2.84   4 2.85  12 2.95
   7  0.326  0.004  0.013-  27 1.78  31 1.81  39 1.86  30 1.87  22 1.98  34 2.03   5 2.71   9 2.74
                             1 2.75  15 2.77  13 2.81  11 2.88
   8  0.329  0.977  0.503-  28 1.69  41 1.73  29 1.80  32 1.89  20 2.06  33 2.15  12 2.66  14 2.76
                             6 2.84  16 2.86   2 2.89  10 3.01
   9  0.326  0.331  0.989-  38 1.83  22 1.83  31 1.84  26 1.88  19 1.90  35 1.93   7 2.74   3 2.76
                            11 2.76  15 2.83   1 2.87  17 2.91
  10  0.340  0.342  0.496-  20 1.80  37 1.90  21 1.90  24 1.90  36 1.95  33 2.03  18 2.66  12 2.70
                             4 2.77  16 2.81   2 2.89   8 3.01
  11  0.313  0.653  0.015-  23 1.57  39 1.81  35 1.82  26 1.83  42 1.94  30 1.94   3 2.52   5 2.69
                             9 2.76  17 2.86  13 2.88   7 2.88
  12  0.327  0.659  0.507-  37 1.76  25 1.79  24 1.83  41 1.87  40 1.91  28 2.04   8 2.66  18 2.67
                            10 2.70   4 2.73  14 2.86   6 2.95
  13  0.657  0.995  0.990-  34 1.74  39 1.77  46 1.81  42 1.82  51 2.00  43 2.06  17 2.66  15 2.75
                             7 2.81   1 2.83  11 2.88   3 2.98
  14  0.670  0.000  0.512-  41 1.63  45 1.76  53 1.78  44 1.93  32 1.97  40 2.13  18 2.72   2 2.72
                            16 2.73   8 2.76   4 2.78  12 2.86
  15  0.662  0.327  0.990-  34 1.76  50 1.77  31 1.86  38 1.87  43 1.91  47 1.97  13 2.75   7 2.77
                             3 2.80   9 2.83   5 2.91  17 2.95
  16  0.666  0.324  0.499-  32 1.78  49 1.82  48 1.82  36 1.86  45 1.89  33 1.94   6 2.68  14 2.73
                             4 2.79  10 2.81   8 2.86  18 2.93
  17  0.668  0.683  0.991-  42 1.71  51 1.78  35 1.88  47 1.89  54 1.91  38 2.02   1 2.59  13 2.66
                             5 2.84  11 2.86   9 2.91  15 2.95
  18  0.651  0.666  0.497-  40 1.67  52 1.78  53 1.80  37 1.81  36 1.88  49 2.01  10 2.66  12 2.67
                            14 2.72   6 2.75   2 2.82  16 2.93
  19  0.111  0.230  0.106-   9 1.90   3 1.92   1 2.11
  20  0.237  0.131  0.393-  10 1.80   2 2.03   8 2.06
  21  0.118  0.215  0.605-   2 1.85  10 1.90   4 1.96
  22  0.192  0.104  0.904-   1 1.67   9 1.83   7 1.98
  23  0.119  0.554  0.091-  11 1.57   3 1.68   5 1.96
  24  0.241  0.462  0.383-  12 1.83  10 1.90   4 2.01
  25  0.114  0.561  0.604-  12 1.79   6 1.94   4 1.95
  26  0.209  0.448  0.900-   3 1.71  11 1.83   9 1.88
  27  0.113  0.898  0.109-   7 1.78   1 1.90   5 1.94
  28  0.227  0.795  0.390-   8 1.69  12 2.04   6 2.13
  29  0.125  0.877  0.614-   8 1.80   6 1.91   2 2.10
  30  0.215  0.784  0.907-   5 1.70   7 1.87  11 1.94
  31  0.443  0.231  0.093-   7 1.81   9 1.84  15 1.86
  32  0.552  0.114  0.401-  16 1.78   8 1.89  14 1.97
  33  0.453  0.230  0.625-  16 1.94  10 2.03   8 2.15
  34  0.565  0.113  0.899-  13 1.74  15 1.76   7 2.03
  35  0.446  0.559  0.096-  11 1.82  17 1.88   9 1.93
  36  0.574  0.448  0.391-  16 1.86  18 1.88  10 1.95
  37  0.442  0.565  0.604-  12 1.76  18 1.81  10 1.90
  38  0.544  0.434  0.891-   9 1.83  15 1.87  17 2.02
  39  0.446  0.885  0.087-  13 1.77  11 1.81   7 1.86
  40  0.546  0.749  0.393-  18 1.67  12 1.91  14 2.13
  41  0.463  0.897  0.581-  14 1.63   8 1.73  12 1.87
  42  0.543  0.767  0.907-  17 1.71  13 1.82  11 1.94
  43  0.788  0.237  0.107-   3 1.89  15 1.91  13 2.06
  44  0.888  0.099  0.394-   2 1.80   4 1.92  14 1.93
  45  0.765  0.206  0.612-  14 1.76  16 1.89   4 2.04
  46  0.882  0.090  0.907-   1 1.72  13 1.81   3 2.11
  47  0.773  0.563  0.095-  17 1.89   5 1.95  15 1.97
  48  0.871  0.431  0.384-  16 1.82   4 1.97   6 1.99
  49  0.760  0.535  0.604-   6 1.80  16 1.82  18 2.01
  50  0.878  0.441  0.901-  15 1.77   3 1.82   5 1.91
  51  0.755  0.869  0.116-  17 1.78  13 2.00   1 2.07
  52  0.865  0.767  0.402-  18 1.78   6 1.86   2 1.91
  53  0.779  0.884  0.589-   2 1.75  14 1.78  18 1.80
  54  0.903  0.784  0.898-   1 1.66   5 1.73  17 1.91
 
  LATTYP: Found a hexagonal cell.
 ALAT       =     8.3628700013
 C/A-ratio  =     1.1065328050
  
  Lattice vectors:
  
 A1 = (   8.3628700000,   0.0000000000,   0.0000000000)
 A2 = (  -4.1814350000,   7.2424578700,   0.0000000000)
 A3 = (   0.0000000000,   0.0000000000,   9.2537900000)


Analysis of symmetry for initial positions (statically):
=====================================================================
 Subroutine PRICEL returns:
 Original cell was already a primitive cell.
 

 Routine SETGRP: Setting up the symmetry group for a 
 hexagonal supercell.


 Subroutine GETGRP returns: Found  1 space group operations
 (whereof  1 operations were pure point group operations)
 out of a pool of 24 trial point group operations.


The static configuration has the point symmetry C_1 .


Analysis of symmetry for dynamics (positions and initial velocities):
=====================================================================
 Subroutine PRICEL returns:
 Original cell was already a primitive cell.
 

 Routine SETGRP: Setting up the symmetry group for a 
 hexagonal supercell.


 Subroutine GETGRP returns: Found  1 space group operations
 (whereof  1 operations were pure point group operations)
 out of a pool of 24 trial point group operations.


The dynamic configuration has the point symmetry C_1 .


 Subroutine INISYM returns: Found  1 space group operations
 (whereof  1 operations are pure point group operations),
 and found     1 'primitive' translations

 
 
 KPOINTS: Automatic mesh                          

Automatic generation of k-mesh.
Space group operators:
 irot       det(A)        alpha          n_x          n_y          n_z        tau_x        tau_y        tau_z
    1     1.000000     0.000000     1.000000     0.000000     0.000000     0.000000     0.000000     0.000000
 
 Subroutine IBZKPT returns following result:
 ===========================================
 
 Found     26 irreducible k-points:
 
 Following reciprocal coordinates:
            Coordinates               Weight
  0.000000  0.000000  0.000000      1.000000
  0.250000  0.000000  0.000000      2.000000
  0.500000  0.000000  0.000000      1.000000
  0.000000  0.250000  0.000000      2.000000
  0.250000  0.250000  0.000000      2.000000
  0.500000  0.250000  0.000000      2.000000
 -0.250000  0.250000  0.000000      2.000000
  0.000000  0.500000  0.000000      1.000000
  0.250000  0.500000  0.000000      2.000000
  0.500000  0.500000  0.000000      1.000000
  0.000000  0.000000  0.333333      2.000000
  0.250000  0.000000  0.333333      2.000000
  0.500000  0.000000  0.333333      2.000000
 -0.250000  0.000000  0.333333      2.000000
  0.000000  0.250000  0.333333      2.000000
  0.250000  0.250000  0.333333      2.000000
  0.500000  0.250000  0.333333      2.000000
 -0.250000  0.250000  0.333333      2.000000
  0.000000  0.500000  0.333333      2.000000
  0.250000  0.500000  0.333333      2.000000
  0.500000  0.500000  0.333333      2.000000
 -0.250000  0.500000  0.333333      2.000000
  0.000000 -0.250000  0.333333      2.000000
  0.250000 -0.250000  0.333333      2.000000
  0.500000 -0.250000  0.333333      2.000000
 -0.250000 -0.250000  0.333333      2.000000
 
 Following cartesian coordinates:
            Coordinates               Weight
  0.000000  0.000000  0.000000      1.000000
  0.029894  0.017259  0.000000      2.000000
  0.059788  0.034519  0.000000      1.000000
  0.000000  0.034519  0.000000      2.000000
  0.029894  0.051778  0.000000      2.000000
  0.059788  0.069037  0.000000      2.000000
 -0.029894  0.017259  0.000000      2.000000
  0.000000  0.069037  0.000000      1.000000
  0.029894  0.086297  0.000000      2.000000
  0.059788  0.103556  0.000000      1.000000
  0.000000  0.000000  0.036021      2.000000
  0.029894  0.017259  0.036021      2.000000
  0.059788  0.034519  0.036021      2.000000
 -0.029894 -0.017259  0.036021      2.000000
  0.000000  0.034519  0.036021      2.000000
  0.029894  0.051778  0.036021      2.000000
  0.059788  0.069037  0.036021      2.000000
 -0.029894  0.017259  0.036021      2.000000
  0.000000  0.069037  0.036021      2.000000
  0.029894  0.086297  0.036021      2.000000
  0.059788  0.103556  0.036021      2.000000
 -0.029894  0.051778  0.036021      2.000000
  0.000000 -0.034519  0.036021      2.000000
  0.029894 -0.017259  0.036021      2.000000
  0.059788  0.000000  0.036021      2.000000
 -0.029894 -0.051778  0.036021      2.000000
 


--------------------------------------------------------------------------------------------------------




 Dimension of arrays:
   k-points           NKPTS =     26   k-points in BZ     NKDIM =     26   number of bands    NBANDS=    240
   number of dos      NEDOS =    301   number of ions     NIONS =     54
   non local maximal  LDIM  =      6   non local SUM 2l+1 LMDIM =     18
   total plane-waves  NPLWV = 286720
   max r-space proj   IRMAX =   6918   max aug-charges    IRDMAX=  16780
   dimension x,y,z NGX =    64 NGY =   64 NGZ =   70
   dimension x,y,z NGXF=   128 NGYF=  128 NGZF=  140
   support grid    NGXF=   128 NGYF=  128 NGZF=  140
   ions per type =              18  36
   NGX,Y,Z   is equivalent  to a cutoff of  12.72, 12.72, 12.58 a.u.
   NGXF,Y,Z  is equivalent  to a cutoff of  25.45, 25.45, 25.15 a.u.

 SYSTEM =  unknown system                          
 POSCAR =  NiO2_C2_m_scale_1_000_disp_0_08_round_2 

 Startparameter for this run:
   NWRITE =      1    write-flag & timer
   PREC   = accura    normal or accurate (medium, high low for compatibility)
   ISTART =      0    job   : 0-new  1-cont  2-samecut
   ICHARG =      2    charge: 1-file 2-atom 10-const
   ISPIN  =      1    spin polarized calculation?
   LNONCOLLINEAR =      F non collinear calculations
   LSORBIT =      F    spin-orbit coupling
   INIWAV =      1    electr: 0-lowe 1-rand  2-diag
   LASPH  =      F    aspherical Exc in radial PAW
   METAGGA=      F    non-selfconsistent MetaGGA calc.

 Electronic Relaxation 1
   ENCUT  =  500.0 eV  36.75 Ry    6.06 a.u.  15.25 15.25 16.87*2*pi/ulx,y,z
   ENINI  =  500.0     initial cutoff
   ENAUG  =  605.4 eV  augmentation charge cutoff
   NELM   =    120;   NELMIN=  2; NELMDL= -5     # of ELM steps 
   EDIFF  = 0.1E-04   stopping-criterion for ELM
   LREAL  =      T    real-space projection
   NLSPLINE    = F    spline interpolate recip. space projectors
   LCOMPAT=      F    compatible to vasp.4.4
   GGA_COMPAT  = T    GGA compatible to vasp.4.4-vasp.4.6
   LMAXPAW     = -100 max onsite density
   LMAXMIX     =    2 max onsite mixed and CHGCAR
   VOSKOWN=      1    Vosko Wilk Nusair interpolation
   ROPT   =   -0.00025  -0.00025
 Ionic relaxation
   EDIFFG = 0.1E-03   stopping-criterion for IOM
   NSW    =      0    number of steps for IOM
   NBLOCK =      1;   KBLOCK =      1    inner block; outer block 
   IBRION =     -1    ionic relax: 0-MD 1-quasi-New 2-CG
   NFREE  =      0    steps in history (QN), initial steepest desc. (CG)
   ISIF   =      2    stress and relaxation
   IWAVPR =     10    prediction:  0-non 1-charg 2-wave 3-comb
   ISYM   =      2    0-nonsym 1-usesym 2-fastsym
   LCORR  =      T    Harris-Foulkes like correction to forces

   POTIM  = 0.5000    time-step for ionic-motion
   TEIN   =    0.0    initial temperature
   TEBEG  =    0.0;   TEEND  =   0.0 temperature during run
   SMASS  =  -3.00    Nose mass-parameter (am)
   estimated Nose-frequenzy (Omega)   =  0.10E-29 period in steps =****** mass=  -0.160E-26a.u.
   SCALEE = 1.0000    scale energy and forces
   NPACO  =    256;   APACO  = 16.0  distance and # of slots for P.C.
   PSTRESS=    0.0 pullay stress

  Mass of Ions in am
   POMASS =  58.69 16.00
  Ionic Valenz
   ZVAL   =  10.00  6.00
  Atomic Wigner-Seitz radii
   RWIGS  =   1.15  0.73
  virtual crystal weights 
   VCA    =   1.00  1.00
   NELECT =     396.0000    total number of electrons
   NUPDOWN=      -1.0000    fix difference up-down

 DOS related values:
   EMIN   =  10.00;   EMAX   =-10.00  energy-range for DOS
   EFERMI =   0.00
   ISMEAR =     0;   SIGMA  =   0.05  broadening in eV -4-tet -1-fermi 0-gaus

 Electronic relaxation 2 (details)
   IALGO  =     38    algorithm
   LDIAG  =      T    sub-space diagonalisation (order eigenvalues)
   LSUBROT=      F    optimize rotation matrix (better conditioning)
   TURBO    =      0    0=normal 1=particle mesh
   IRESTART =      0    0=no restart 2=restart with 2 vectors
   NREBOOT  =      0    no. of reboots
   NMIN     =      0    reboot dimension
   EREF     =   0.00    reference energy to select bands
   IMIX   =      4    mixing-type and parameters
     AMIX     =   0.40;   BMIX     =  1.00
     AMIX_MAG =   1.60;   BMIX_MAG =  1.00
     AMIN     =   0.10
     WC   =   100.;   INIMIX=   1;  MIXPRE=   1;  MAXMIX= -45

 Intra band minimization:
   WEIMIN = 0.0000     energy-eigenvalue tresh-hold
   EBREAK =  0.10E-07  absolut break condition
   DEPER  =   0.30     relativ break condition  

   TIME   =   0.40     timestep for ELM

  volume/ion in A,a.u.               =      10.38        70.04
  Fermi-wavevector in a.u.,A,eV,Ry     =   1.458096  2.755403 28.926600  2.126045
  Thomas-Fermi vector in A             =   2.574821
 
 Write flags
   LWAVE        =      F    write WAVECAR
   LDOWNSAMPLE  =      F    k-point downsampling of WAVECAR
   LCHARG       =      T    write CHGCAR
   LVTOT        =      F    write LOCPOT, total local potential
   LVHAR        =      F    write LOCPOT, Hartree potential only
   LELF         =      F    write electronic localiz. function (ELF)
   LORBIT       =      0    0 simple, 1 ext, 2 COOP (PROOUT), +10 PAW based schemes


 Dipole corrections
   LMONO  =      F    monopole corrections only (constant potential shift)
   LDIPOL =      F    correct potential (dipole corrections)
   IDIPOL =      0    1-x, 2-y, 3-z, 4-all directions 
   EPSILON=  1.0000000 bulk dielectric constant

 Exchange correlation treatment:
   GGA     =    PS    GGA type
   LEXCH   =    14    internal setting for exchange type
   VOSKOWN=      1    Vosko Wilk Nusair interpolation
   LHFCALC =     F    Hartree Fock is set to
   LHFONE  =     F    Hartree Fock one center treatment
   AEXX    =    0.0000 exact exchange contribution

 Linear response parameters
   LEPSILON=     F    determine dielectric tensor
   LRPA    =     F    only Hartree local field effects (RPA)
   LNABLA  =     F    use nabla operator in PAW spheres
   LVEL    =     F    velocity operator in full k-point grid
   LINTERFAST=   F  fast interpolation
   KINTER  =     0    interpolate to denser k-point grid
   CSHIFT  =0.1000    complex shift for real part using Kramers Kronig
   OMEGAMAX=  -1.0    maximum frequency
   DEG_THRESHOLD= 0.2000000E-02 threshold for treating states as degnerate
   RTIME   =   -0.100 relaxation time in fs
  (WPLASMAI=    0.000 imaginary part of plasma frequency in eV, 0.658/RTIME)
   DFIELD  = 0.0000000 0.0000000 0.0000000 field for delta impulse in time
 
 Orbital magnetization related:
   ORBITALMAG=     F  switch on orbital magnetization
   LCHIMAG   =     F  perturbation theory with respect to B field
   DQ        =  0.001000  dq finite difference perturbation B field
   LLRAUG    =     F  two centre corrections for induced B field



--------------------------------------------------------------------------------------------------------


 Static calculation
 charge density and potential will be updated during run
 non-spin polarized calculation
 Variant of blocked Davidson
 Davidson routine will perform the subspace rotation
 perform sub-space diagonalisation
    after iterative eigenvector-optimisation
 modified Broyden-mixing scheme, WC =      100.0
 initial mixing is a Kerker type mixing with AMIX =  0.4000 and BMIX =      1.0000
 Hartree-type preconditioning will be used
 using additional bands           42
 real space projection scheme for non local part
 use partial core corrections
 calculate Harris-corrections to forces 
   (improved forces if not selfconsistent)
 use gradient corrections 
 use of overlap-Matrix (Vanderbilt PP)
 Gauss-broadening in eV      SIGMA  =   0.05


--------------------------------------------------------------------------------------------------------


  energy-cutoff  :      500.00
  volume of cell :      560.48
      direct lattice vectors                 reciprocal lattice vectors
     8.362870000  0.000000000  0.000000000     0.119576174  0.069037336  0.000000000
    -4.181435000  7.242457870  0.000000000     0.000000000  0.138074673  0.000000000
     0.000000000  0.000000000  9.253790000     0.000000000  0.000000000  0.108063831

  length of vectors
     8.362870000  8.362870001  9.253790000     0.138074673  0.138074673  0.108063831


 
 k-points in units of 2pi/SCALE and weight: Automatic mesh                          
   0.00000000  0.00000000  0.00000000       0.021
   0.02989404  0.01725933  0.00000000       0.042
   0.05978809  0.03451867  0.00000000       0.021
   0.00000000  0.03451867  0.00000000       0.042
   0.02989404  0.05177800  0.00000000       0.042
   0.05978809  0.06903734  0.00000000       0.042
  -0.02989404  0.01725933  0.00000000       0.042
   0.00000000  0.06903734  0.00000000       0.021
   0.02989404  0.08629667  0.00000000       0.042
   0.05978809  0.10355600  0.00000000       0.021
   0.00000000  0.00000000  0.03602128       0.042
   0.02989404  0.01725933  0.03602128       0.042
   0.05978809  0.03451867  0.03602128       0.042
  -0.02989404 -0.01725933  0.03602128       0.042
   0.00000000  0.03451867  0.03602128       0.042
   0.02989404  0.05177800  0.03602128       0.042
   0.05978809  0.06903734  0.03602128       0.042
  -0.02989404  0.01725933  0.03602128       0.042
   0.00000000  0.06903734  0.03602128       0.042
   0.02989404  0.08629667  0.03602128       0.042
   0.05978809  0.10355600  0.03602128       0.042
  -0.02989404  0.05177800  0.03602128       0.042
   0.00000000 -0.03451867  0.03602128       0.042
   0.02989404 -0.01725933  0.03602128       0.042
   0.05978809  0.00000000  0.03602128       0.042
  -0.02989404 -0.05177800  0.03602128       0.042
 
 k-points in reciprocal lattice and weights: Automatic mesh                          
   0.00000000  0.00000000  0.00000000       0.021
   0.25000000  0.00000000  0.00000000       0.042
   0.50000000  0.00000000  0.00000000       0.021
   0.00000000  0.25000000  0.00000000       0.042
   0.25000000  0.25000000  0.00000000       0.042
   0.50000000  0.25000000  0.00000000       0.042
  -0.25000000  0.25000000  0.00000000       0.042
   0.00000000  0.50000000  0.00000000       0.021
   0.25000000  0.50000000  0.00000000       0.042
   0.50000000  0.50000000  0.00000000       0.021
   0.00000000  0.00000000  0.33333333       0.042
   0.25000000  0.00000000  0.33333333       0.042
   0.50000000  0.00000000  0.33333333       0.042
  -0.25000000  0.00000000  0.33333333       0.042
   0.00000000  0.25000000  0.33333333       0.042
   0.25000000  0.25000000  0.33333333       0.042
   0.50000000  0.25000000  0.33333333       0.042
  -0.25000000  0.25000000  0.33333333       0.042
   0.00000000  0.50000000  0.33333333       0.042
   0.25000000  0.50000000  0.33333333       0.042
   0.50000000  0.50000000  0.33333333       0.042
  -0.25000000  0.50000000  0.33333333       0.042
   0.00000000 -0.25000000  0.33333333       0.042
   0.25000000 -0.25000000  0.33333333       0.042
   0.50000000 -0.25000000  0.33333333       0.042
  -0.25000000 -0.25000000  0.33333333       0.042
 
 position of ions in fractional coordinates (direct lattice) 
   0.98809658  0.98229352  0.98672788
   0.99334650  0.99760602  0.50220342
   0.00967587  0.35554105  0.99916329
   0.00279360  0.33083956  0.49448491
   0.00561140  0.67820439  0.99062109
   0.97364435  0.65616286  0.50720114
   0.32565885  0.00379388  0.01336560
   0.32863216  0.97740156  0.50289150
   0.32596490  0.33087231  0.98936328
   0.33983559  0.34240285  0.49573122
   0.31313561  0.65323452  0.01499320
   0.32730244  0.65857122  0.50669272
   0.65694352  0.99541995  0.99009581
   0.66978265  0.00000656  0.51226384
   0.66189790  0.32663316  0.98974862
   0.66640109  0.32407740  0.49872950
   0.66835896  0.68310276  0.99053611
   0.65070924  0.66640664  0.49685545
   0.11057480  0.23038935  0.10631434
   0.23682692  0.13091459  0.39305902
   0.11779400  0.21542051  0.60481174
   0.19173546  0.10389079  0.90353277
   0.11941729  0.55432957  0.09134128
   0.24070817  0.46245373  0.38254352
   0.11435714  0.56086204  0.60431176
   0.20934998  0.44763251  0.89979582
   0.11303974  0.89835179  0.10909997
   0.22697617  0.79534784  0.38977333
   0.12522274  0.87684443  0.61386385
   0.21513860  0.78445654  0.90711212
   0.44300814  0.23122098  0.09324906
   0.55223607  0.11365342  0.40065783
   0.45334526  0.22977875  0.62542026
   0.56515980  0.11277488  0.89912342
   0.44632312  0.55919451  0.09595207
   0.57401829  0.44784518  0.39123883
   0.44188274  0.56516113  0.60424063
   0.54445420  0.43425034  0.89116008
   0.44645351  0.88514652  0.08671673
   0.54553617  0.74912742  0.39254374
   0.46311286  0.89717333  0.58141350
   0.54300681  0.76722555  0.90695766
   0.78820065  0.23703166  0.10689996
   0.88839505  0.09875064  0.39424384
   0.76450277  0.20601699  0.61247483
   0.88150257  0.08974511  0.90679955
   0.77268323  0.56337222  0.09523061
   0.87084921  0.43075176  0.38427897
   0.75973017  0.53512030  0.60446334
   0.87789187  0.44054710  0.90134332
   0.75471665  0.86928146  0.11558719
   0.86498047  0.76696668  0.40231039
   0.77860886  0.88392349  0.58930881
   0.90348742  0.78416847  0.89807324
 
 position of ions in cartesian coordinates  (Angst):
   4.15592674  7.11421943  9.13097259
   4.13580292  7.22511957  4.64728499
  -1.40575375  2.57499108  9.24604726
  -1.36002160  2.39609158  4.57585952
  -2.78894016  4.91186672  9.16699954
   5.39875878  4.75223187  4.69353284
   2.70757876  0.02747702  0.12368246
  -1.33863306  7.07878962  4.65365233
   1.34248103  2.39632877  9.15536003
   1.41026560  2.47983822  4.58739261
  -0.11274529  4.73102349  0.13874392
  -0.01658499  4.76967432  4.68882803
   1.33164944  7.20928705  9.16213871
   5.60127780  0.00004751  4.74038200
   4.16957076  2.36562690  9.15892588
   4.21791710  2.34711692  4.61513806
   2.73304931  4.94734296  9.16621315
   2.65526073  4.82642201  4.59779599
  -0.03863541  1.66858516  0.98381058
   1.43314190  0.94814340  3.63728563
   0.08432905  1.56017397  5.59680083
   1.16904614  0.75242467  8.36110251
  -1.31922179  4.01470856  0.84525302
   0.07929092  3.34930166  3.53997740
  -1.38885427  4.06201970  5.59217412
  -0.12097958  3.24195959  8.32652156
  -2.81106297  6.50627499  1.00958821
  -1.42752309  5.76027322  3.60688054
  -2.61924649  6.35050884  5.68056716
  -1.48097789  5.68139344  8.39422506
   2.73798399  1.67460821  0.86290722
   4.14304407  0.82313011  3.70760342
   2.83046257  1.66416292  5.78750775
   4.25479711  0.81676732  8.32029931
   1.39430673  4.04994268  0.88792031
   2.92780483  3.24349985  3.62044197
   1.33222338  4.09315567  5.59151590
   2.73741013  3.14503979  8.24660824
   0.03245003  6.41063638  0.80245841
   1.42982046  5.42552378  3.63251734
   0.12148068  6.49774004  5.38027843
   1.33299159  5.55659872  8.39279572
   5.60048709  1.71669181  0.98922978
   7.01661293  0.71519735  3.64824970
   5.53199063  1.49206937  5.66771346
   6.99662805  0.64997518  8.39133261
   4.10614508  4.08019957  0.88124407
   5.48163825  3.11970147  3.55603689
   4.11595390  3.87558623  5.59357681
   5.49957652  3.19064381  8.34084180
   2.67675331  6.29573435  1.06961958
   4.02669790  5.55472387  3.72289586
   2.81533606  6.40177864  5.45333997
   4.27679835  5.67930711  8.31058117
 


--------------------------------------------------------------------------------------------------------


 k-point  1 :   0.0000 0.0000 0.0000  plane waves:   14241
 k-point  2 :   0.2500 0.0000 0.0000  plane waves:   14190
 k-point  3 :   0.5000 0.0000 0.0000  plane waves:   14218
 k-point  4 :   0.0000 0.2500 0.0000  plane waves:   14190
 k-point  5 :   0.2500 0.2500 0.0000  plane waves:   14239
 k-point  6 :   0.5000 0.2500 0.0000  plane waves:   14239
 k-point  7 :  -0.2500 0.2500 0.0000  plane waves:   14190
 k-point  8 :   0.0000 0.5000 0.0000  plane waves:   14218
 k-point  9 :   0.2500 0.5000 0.0000  plane waves:   14239
 k-point 10 :   0.5000 0.5000 0.0000  plane waves:   14218
 k-point 11 :   0.0000 0.0000 0.3333  plane waves:   14206
 k-point 12 :   0.2500 0.0000 0.3333  plane waves:   14238
 k-point 13 :   0.5000 0.0000 0.3333  plane waves:   14242
 k-point 14 :  -0.2500 0.0000 0.3333  plane waves:   14238
 k-point 15 :   0.0000 0.2500 0.3333  plane waves:   14238
 k-point 16 :   0.2500 0.2500 0.3333  plane waves:   14221
 k-point 17 :   0.5000 0.2500 0.3333  plane waves:   14221
 k-point 18 :  -0.2500 0.2500 0.3333  plane waves:   14238
 k-point 19 :   0.0000 0.5000 0.3333  plane waves:   14242
 k-point 20 :   0.2500 0.5000 0.3333  plane waves:   14221
 k-point 21 :   0.5000 0.5000 0.3333  plane waves:   14242
 k-point 22 :  -0.2500 0.5000 0.3333  plane waves:   14221
 k-point 23 :   0.0000-0.2500 0.3333  plane waves:   14238
 k-point 24 :   0.2500-0.2500 0.3333  plane waves:   14238
 k-point 25 :   0.5000-0.2500 0.3333  plane waves:   14221
 k-point 26 :  -0.2500-0.2500 0.3333  plane waves:   14221

 maximum and minimum number of plane-waves per node :     14242    14190

 maximum number of plane-waves:     14242
 maximum index in each direction: 
   IXMAX=   15   IYMAX=   15   IZMAX=   16
   IXMIN=  -15   IYMIN=  -15   IZMIN=  -17

 The following grids will avoid any aliasing or wrap around errors in the Hartre
 e energy
  - symmetry arguments have not been applied
  - exchange correlation energies might require even more grid points
  - we recommend to set PREC=Normal or Accurate and rely on VASP defaults
 NGX is ok and might be reduce to    64
 NGY is ok and might be reduce to    64
 NGZ is ok and might be reduce to    70

 serial   3D FFT for wavefunctions
 parallel 3D FFT for charge:
    minimum data exchange during FFTs selected (reduces bandwidth)


 total amount of memory used by VASP MPI-rank0   181695. kBytes
=======================================================================

   base      :      30000. kBytes
   nonlr-proj:      32303. kBytes
   fftplans  :       6058. kBytes
   grid      :      19644. kBytes
   one-center:        839. kBytes
   wavefun   :      92851. kBytes
 
     INWAV:  cpu time    0.0000: real time    0.0000
 Broyden mixing: mesh for mixing (old mesh)
   NGX = 31   NGY = 31   NGZ = 33
  (NGX  =128   NGY  =128   NGZ  =140)
  gives a total of  31713 points

 initial charge density was supplied:
 charge density of overlapping atoms calculated
 number of electron     396.0000000 magnetization 
 keeping initial charge density in first step


--------------------------------------------------------------------------------------------------------


 Maximum index for non-local projection operator         6683
 Maximum index for augmentation-charges         1093 (set IRDMAX)


--------------------------------------------------------------------------------------------------------


 First call to EWALD:  gamma=   0.215
 Maximum number of real-space cells 3x 3x 3
 Maximum number of reciprocal cells 3x 3x 3

    FEWALD:  cpu time    0.0027: real time    0.0027


--------------------------------------- Iteration      1(   1)  ---------------------------------------


    POTLOK:  cpu time    0.0976: real time    0.1151
    SETDIJ:  cpu time    0.0090: real time    0.0091
     EDDAV:  cpu time   36.2692: real time   36.3552
    --------------------------------------------
      LOOP:  cpu time   36.3775: real time   36.4811

 eigenvalue-minimisations  : 12480
 total energy-change (2. order) : 0.5290602E+04  (-0.1768851E+05)
 number of electron     396.0000000 magnetization 
 augmentation part      396.0000000 magnetization 

 Free energy of the ion-electron system (eV)
  ---------------------------------------------------
  alpha Z        PSCENC =      1237.65017714
  Ewald energy   TEWEN  =    -22538.72731204
  -Hartree energ DENC   =    -13347.44339406
  -exchange      EXHF   =         0.00000000
  -V(xc)+E(xc)   XCENC  =      1588.74187998
  PAW double counting   =     29784.60368500   -31040.73694357
  entropy T*S    EENTRO =        -0.00809895
  eigenvalues    EBANDS =      4716.14057415
  atomic energy  EATOM  =     34890.38139807
  Solvation  Ediel_sol  =         0.00000000
  ---------------------------------------------------
  free energy    TOTEN  =      5290.60196571 eV

  energy without entropy =     5290.61006466  energy(sigma->0) =     5290.60601519


--------------------------------------------------------------------------------------------------------




--------------------------------------- Iteration      1(   2)  ---------------------------------------


     EDDAV:  cpu time   38.4080: real time   38.5165
    --------------------------------------------
      LOOP:  cpu time   38.4080: real time   38.5165

 eigenvalue-minimisations  : 12992
 total energy-change (2. order) :-0.4593717E+04  (-0.4274072E+04)
 number of electron     396.0000000 magnetization 
 augmentation part      396.0000000 magnetization 

 Free energy of the ion-electron system (eV)
  ---------------------------------------------------
  alpha Z        PSCENC =      1237.65017714
  Ewald energy   TEWEN  =    -22538.72731204
  -Hartree energ DENC   =    -13347.44339406
  -exchange      EXHF   =         0.00000000
  -V(xc)+E(xc)   XCENC  =      1588.74187998
  PAW double counting   =     29784.60368500   -31040.73694357
  entropy T*S    EENTRO =        -0.02884369
  eigenvalues    EBANDS =       122.44463931
  atomic energy  EATOM  =     34890.38139807
  Solvation  Ediel_sol  =         0.00000000
  ---------------------------------------------------
  free energy    TOTEN  =       696.88528613 eV

  energy without entropy =      696.91412982  energy(sigma->0) =      696.89970797


--------------------------------------------------------------------------------------------------------




--------------------------------------- Iteration      1(   3)  ---------------------------------------


     EDDAV:  cpu time   38.4062: real time   38.4972
    --------------------------------------------
      LOOP:  cpu time   38.4052: real time   38.4963

 eigenvalue-minimisations  : 13296
 total energy-change (2. order) :-0.1050973E+04  (-0.9208313E+03)
 number of electron     396.0000000 magnetization 
 augmentation part      396.0000000 magnetization 

 Free energy of the ion-electron system (eV)
  ---------------------------------------------------
  alpha Z        PSCENC =      1237.65017714
  Ewald energy   TEWEN  =    -22538.72731204
  -Hartree energ DENC   =    -13347.44339406
  -exchange      EXHF   =         0.00000000
  -V(xc)+E(xc)   XCENC  =      1588.74187998
  PAW double counting   =     29784.60368500   -31040.73694357
  entropy T*S    EENTRO =        -0.00000000
  eigenvalues    EBANDS =      -928.55674917
  atomic energy  EATOM  =     34890.38139807
  Solvation  Ediel_sol  =         0.00000000
  ---------------------------------------------------
  free energy    TOTEN  =      -354.08725866 eV

  energy without entropy =     -354.08725866  energy(sigma->0) =     -354.08725866


--------------------------------------------------------------------------------------------------------




--------------------------------------- Iteration      1(   4)  ---------------------------------------


     EDDAV:  cpu time   38.1362: real time   38.2266
    --------------------------------------------
      LOOP:  cpu time   38.1363: real time   38.2267

 eigenvalue-minimisations  : 13312
 total energy-change (2. order) :-0.1077459E+03  (-0.1055802E+03)
 number of electron     396.0000000 magnetization 
 augmentation part      396.0000000 magnetization 

 Free energy of the ion-electron system (eV)
  ---------------------------------------------------
  alpha Z        PSCENC =      1237.65017714
  Ewald energy   TEWEN  =    -22538.72731204
  -Hartree energ DENC   =    -13347.44339406
  -exchange      EXHF   =         0.00000000
  -V(xc)+E(xc)   XCENC  =      1588.74187998
  PAW double counting   =     29784.60368500   -31040.73694357
  entropy T*S    EENTRO =        -0.00000000
  eigenvalues    EBANDS =     -1036.30264137
  atomic energy  EATOM  =     34890.38139807
  Solvation  Ediel_sol  =         0.00000000
  ---------------------------------------------------
  free energy    TOTEN  =      -461.83315086 eV

  energy without entropy =     -461.83315086  energy(sigma->0) =     -461.83315086


--------------------------------------------------------------------------------------------------------




--------------------------------------- Iteration      1(   5)  ---------------------------------------


     EDDAV:  cpu time   40.8764: real time   40.9807
    CHARGE:  cpu time    1.8847: real time    1.8892
    MIXING:  cpu time    0.0042: real time    0.0042
    --------------------------------------------
      LOOP:  cpu time   42.7644: real time   42.8732

 eigenvalue-minimisations  : 14384
 total energy-change (2. order) :-0.3355208E+01  (-0.3348878E+01)
 number of electron     396.0000036 magnetization 
 augmentation part      113.0927000 magnetization 

 Broyden mixing:
  rms(total) = 0.12422E+02    rms(broyden)= 0.12419E+02
  rms(prec ) = 0.15236E+02
  weight for this iteration     100.00

 Free energy of the ion-electron system (eV)
  ---------------------------------------------------
  alpha Z        PSCENC =      1237.65017714
  Ewald energy   TEWEN  =    -22538.72731204
  -Hartree energ DENC   =    -13347.44339406
  -exchange      EXHF   =         0.00000000
  -V(xc)+E(xc)   XCENC  =      1588.74187998
  PAW double counting   =     29784.60368500   -31040.73694357
  entropy T*S    EENTRO =        -0.00000000
  eigenvalues    EBANDS =     -1039.65784907
  atomic energy  EATOM  =     34890.38139807
  Solvation  Ediel_sol  =         0.00000000
  ---------------------------------------------------
  free energy    TOTEN  =      -465.18835857 eV

  energy without entropy =     -465.18835857  energy(sigma->0) =     -465.18835857


--------------------------------------------------------------------------------------------------------




--------------------------------------- Iteration      1(   6)  ---------------------------------------


    POTLOK:  cpu time    0.0771: real time    0.0773
    SETDIJ:  cpu time    0.0091: real time    0.0091
     EDDAV:  cpu time   51.9935: real time   52.1578
    CHARGE:  cpu time    1.8817: real time    1.8861
    MIXING:  cpu time    0.0029: real time    0.0029
    --------------------------------------------
      LOOP:  cpu time   53.9643: real time   54.1333

 eigenvalue-minimisations  : 19408
 total energy-change (2. order) :-0.1075028E+03  (-0.1161284E+03)
 number of electron     396.0000027 magnetization 
 augmentation part      155.4807896 magnetization 

 Broyden mixing:
  rms(total) = 0.21133E+02    rms(broyden)= 0.21131E+02
  rms(prec ) = 0.23781E+02
  weight for this iteration     100.00

 eigenvalues of (default mixing * dielectric matrix)
  average eigenvalue GAMMA=   0.1986
  0.1986

 Free energy of the ion-electron system (eV)
  ---------------------------------------------------
  alpha Z        PSCENC =      1237.65017714
  Ewald energy   TEWEN  =    -22538.72731204
  -Hartree energ DENC   =    -12640.36636796
  -exchange      EXHF   =         0.00000000
  -V(xc)+E(xc)   XCENC  =      1584.69627020
  PAW double counting   =     33156.31515027   -34203.35597683
  entropy T*S    EENTRO =        -0.05071947
  eigenvalues    EBANDS =     -2059.23373874
  atomic energy  EATOM  =     34890.38139807
  Solvation  Ediel_sol  =         0.00000000
  ---------------------------------------------------
  free energy    TOTEN  =      -572.69111936 eV

  energy without entropy =     -572.64039990  energy(sigma->0) =     -572.66575963


--------------------------------------------------------------------------------------------------------




--------------------------------------- Iteration      1(   7)  ---------------------------------------


    POTLOK:  cpu time    0.0755: real time    0.0757
    SETDIJ:  cpu time    0.0110: real time    0.0110
     EDDAV:  cpu time   47.9342: real time   48.0664
    CHARGE:  cpu time    2.1370: real time    2.1961
    MIXING:  cpu time    0.0027: real time    0.0027
    --------------------------------------------
      LOOP:  cpu time   50.1604: real time   50.3520

 eigenvalue-minimisations  : 17808
 total energy-change (2. order) : 0.2178958E+03  (-0.2975401E+02)
 number of electron     396.0000024 magnetization 
 augmentation part      139.4514683 magnetization 

 Broyden mixing:
  rms(total) = 0.68106E+01    rms(broyden)= 0.68097E+01
  rms(prec ) = 0.85749E+01
  weight for this iteration     100.00

 eigenvalues of (default mixing * dielectric matrix)
  average eigenvalue GAMMA=   0.5751
  0.5751  0.5751

 Free energy of the ion-electron system (eV)
  ---------------------------------------------------
  alpha Z        PSCENC =      1237.65017714
  Ewald energy   TEWEN  =    -22538.72731204
  -Hartree energ DENC   =    -12936.97702535
  -exchange      EXHF   =         0.00000000
  -V(xc)+E(xc)   XCENC  =      1589.12423051
  PAW double counting   =     34680.61315472   -35877.39101986
  entropy T*S    EENTRO =        -0.01677439
  eigenvalues    EBANDS =     -1399.45216138
  atomic energy  EATOM  =     34890.38139807
  Solvation  Ediel_sol  =         0.00000000
  ---------------------------------------------------
  free energy    TOTEN  =      -354.79533259 eV

  energy without entropy =     -354.77855820  energy(sigma->0) =     -354.78694540


--------------------------------------------------------------------------------------------------------




--------------------------------------- Iteration      1(   8)  ---------------------------------------


    POTLOK:  cpu time    0.0756: real time    0.0758
    SETDIJ:  cpu time    0.0090: real time    0.0090
     EDDAV:  cpu time   54.6636: real time   54.7931
    CHARGE:  cpu time    1.9318: real time    1.9364
    MIXING:  cpu time    0.0028: real time    0.0029
    --------------------------------------------
      LOOP:  cpu time   56.6828: real time   56.8171

 eigenvalue-minimisations  : 20592
 total energy-change (2. order) :-0.6649709E+01  (-0.1881048E+02)
 number of electron     396.0000026 magnetization 
 augmentation part      130.2395342 magnetization 

 Broyden mixing:
  rms(total) = 0.87327E+01    rms(broyden)= 0.87311E+01
  rms(prec ) = 0.12121E+02
  weight for this iteration     100.00

 eigenvalues of (default mixing * dielectric matrix)
  average eigenvalue GAMMA=   0.5135
  0.7861  0.5233  0.2310

 Free energy of the ion-electron system (eV)
  ---------------------------------------------------
  alpha Z        PSCENC =      1237.65017714
  Ewald energy   TEWEN  =    -22538.72731204
  -Hartree energ DENC   =    -12985.67143493
  -exchange      EXHF   =         0.00000000
  -V(xc)+E(xc)   XCENC  =      1584.54365911
  PAW double counting   =     36106.98485548   -37389.67837513
  entropy T*S    EENTRO =        -0.04790299
  eigenvalues    EBANDS =     -1266.88010636
  atomic energy  EATOM  =     34890.38139807
  Solvation  Ediel_sol  =         0.00000000
  ---------------------------------------------------
  free energy    TOTEN  =      -361.44504167 eV

  energy without entropy =     -361.39713868  energy(sigma->0) =     -361.42109017


--------------------------------------------------------------------------------------------------------




--------------------------------------- Iteration      1(   9)  ---------------------------------------


    POTLOK:  cpu time    0.0756: real time    0.0758
    SETDIJ:  cpu time    0.0092: real time    0.0093
     EDDAV:  cpu time   44.7043: real time   44.8133
    CHARGE:  cpu time    1.8895: real time    1.8940
    MIXING:  cpu time    0.0027: real time    0.0027
    --------------------------------------------
      LOOP:  cpu time   46.6813: real time   46.7950

 eigenvalue-minimisations  : 15824
 total energy-change (2. order) :-0.6985628E+00  (-0.3906009E+02)
 number of electron     396.0000033 magnetization 
 augmentation part      124.7072401 magnetization 

 Broyden mixing:
  rms(total) = 0.82367E+01    rms(broyden)= 0.82359E+01
  rms(prec ) = 0.11457E+02
  weight for this iteration     100.00

 eigenvalues of (default mixing * dielectric matrix)
  average eigenvalue GAMMA=   0.4910
  1.0852  0.3605  0.3605  0.1580

 Free energy of the ion-electron system (eV)
  ---------------------------------------------------
  alpha Z        PSCENC =      1237.65017714
  Ewald energy   TEWEN  =    -22538.72731204
  -Hartree energ DENC   =    -12973.54048098
  -exchange      EXHF   =         0.00000000
  -V(xc)+E(xc)   XCENC  =      1582.20291147
  PAW double counting   =     37113.86108096   -38415.58237480
  entropy T*S    EENTRO =        -0.04943318
  eigenvalues    EBANDS =     -1258.33957108
  atomic energy  EATOM  =     34890.38139807
  Solvation  Ediel_sol  =         0.00000000
  ---------------------------------------------------
  free energy    TOTEN  =      -362.14360444 eV

  energy without entropy =     -362.09417126  energy(sigma->0) =     -362.11888785


--------------------------------------------------------------------------------------------------------




--------------------------------------- Iteration      1(  10)  ---------------------------------------


    POTLOK:  cpu time    0.0750: real time    0.0752
    SETDIJ:  cpu time    0.0092: real time    0.0092
     EDDAV:  cpu time   50.4735: real time   50.6014
    CHARGE:  cpu time    1.9688: real time    1.9735
    MIXING:  cpu time    0.0028: real time    0.0028
    --------------------------------------------
      LOOP:  cpu time   52.5293: real time   52.6621

 eigenvalue-minimisations  : 18464
 total energy-change (2. order) : 0.1839713E+02  (-0.1473422E+02)
 number of electron     396.0000037 magnetization 
 augmentation part      125.5929207 magnetization 

 Broyden mixing:
  rms(total) = 0.72271E+01    rms(broyden)= 0.72267E+01
  rms(prec ) = 0.10209E+02
  weight for this iteration     100.00

 eigenvalues of (default mixing * dielectric matrix)
  average eigenvalue GAMMA=   0.4146
  1.1309  0.3379  0.3379  0.1805  0.0858

 Free energy of the ion-electron system (eV)
  ---------------------------------------------------
  alpha Z        PSCENC =      1237.65017714
  Ewald energy   TEWEN  =    -22538.72731204
  -Hartree energ DENC   =    -12940.26942525
  -exchange      EXHF   =         0.00000000
  -V(xc)+E(xc)   XCENC  =      1581.25792258
  PAW double counting   =     37886.91299034   -39196.18562986
  entropy T*S    EENTRO =        -0.01295834
  eigenvalues    EBANDS =     -1264.75363609
  atomic energy  EATOM  =     34890.38139807
  Solvation  Ediel_sol  =         0.00000000
  ---------------------------------------------------
  free energy    TOTEN  =      -343.74647345 eV

  energy without entropy =     -343.73351511  energy(sigma->0) =     -343.73999428


--------------------------------------------------------------------------------------------------------




--------------------------------------- Iteration      1(  11)  ---------------------------------------


    POTLOK:  cpu time    0.0772: real time    0.0773
    SETDIJ:  cpu time    0.0091: real time    0.0091
     EDDAV:  cpu time   49.6414: real time   49.7846
    CHARGE:  cpu time    1.9201: real time    1.9246
    MIXING:  cpu time    0.0033: real time    0.0033
    --------------------------------------------
      LOOP:  cpu time   51.6510: real time   51.7991

 eigenvalue-minimisations  : 18288
 total energy-change (2. order) : 0.1087917E+02  (-0.1427036E+02)
 number of electron     396.0000030 magnetization 
 augmentation part      127.4315310 magnetization 

 Broyden mixing:
  rms(total) = 0.29676E+01    rms(broyden)= 0.29667E+01
  rms(prec ) = 0.41797E+01
  weight for this iteration     100.00

 eigenvalues of (default mixing * dielectric matrix)
  average eigenvalue GAMMA=   0.4436
  1.2737  0.3789  0.3789  0.3854  0.1611  0.0838

 Free energy of the ion-electron system (eV)
  ---------------------------------------------------
  alpha Z        PSCENC =      1237.65017714
  Ewald energy   TEWEN  =    -22538.72731204
  -Hartree energ DENC   =    -12934.80813759
  -exchange      EXHF   =         0.00000000
  -V(xc)+E(xc)   XCENC  =      1581.26157147
  PAW double counting   =     38103.94887970   -39415.46516634
  entropy T*S    EENTRO =        -0.03522013
  eigenvalues    EBANDS =     -1257.07349684
  atomic energy  EATOM  =     34890.38139807
  Solvation  Ediel_sol  =         0.00000000
  ---------------------------------------------------
  free energy    TOTEN  =      -332.86730656 eV

  energy without entropy =     -332.83208643  energy(sigma->0) =     -332.84969649


--------------------------------------------------------------------------------------------------------




--------------------------------------- Iteration      1(  12)  ---------------------------------------


    POTLOK:  cpu time    0.0752: real time    0.0754
    SETDIJ:  cpu time    0.0091: real time    0.0092
     EDDAV:  cpu time   47.6839: real time   47.7969
    CHARGE:  cpu time    1.9051: real time    1.9097
    MIXING:  cpu time    0.0028: real time    0.0029
    --------------------------------------------
      LOOP:  cpu time   49.6763: real time   49.7940

 eigenvalue-minimisations  : 17056
 total energy-change (2. order) : 0.3828532E+01  (-0.2631923E+01)
 number of electron     396.0000030 magnetization 
 augmentation part      127.9976374 magnetization 

 Broyden mixing:
  rms(total) = 0.22268E+01    rms(broyden)= 0.22262E+01
  rms(prec ) = 0.29590E+01
  weight for this iteration     100.00

 eigenvalues of (default mixing * dielectric matrix)
  average eigenvalue GAMMA=   0.4550
  1.4769  0.4571  0.4571  0.3361  0.1878  0.1878  0.0826

 Free energy of the ion-electron system (eV)
  ---------------------------------------------------
  alpha Z        PSCENC =      1237.65017714
  Ewald energy   TEWEN  =    -22538.72731204
  -Hartree energ DENC   =    -12931.92743868
  -exchange      EXHF   =         0.00000000
  -V(xc)+E(xc)   XCENC  =      1581.72398875
  PAW double counting   =     38456.45123438   -39769.69440959
  entropy T*S    EENTRO =        -0.00000002
  eigenvalues    EBANDS =     -1254.89641238
  atomic energy  EATOM  =     34890.38139807
  Solvation  Ediel_sol  =         0.00000000
  ---------------------------------------------------
  free energy    TOTEN  =      -329.03877438 eV

  energy without entropy =     -329.03877436  energy(sigma->0) =     -329.03877437


--------------------------------------------------------------------------------------------------------




--------------------------------------- Iteration      1(  13)  ---------------------------------------


    POTLOK:  cpu time    0.0750: real time    0.0751
    SETDIJ:  cpu time    0.0098: real time    0.0098
     EDDAV:  cpu time   52.7899: real time   52.9153
    CHARGE:  cpu time    1.9047: real time    1.9093
    MIXING:  cpu time    0.0032: real time    0.0032
    --------------------------------------------
      LOOP:  cpu time   54.7827: real time   54.9128

 eigenvalue-minimisations  : 19088
 total energy-change (2. order) : 0.3224668E+01  (-0.7407689E+00)
 number of electron     396.0000030 magnetization 
 augmentation part      128.6810109 magnetization 

 Broyden mixing:
  rms(total) = 0.11004E+01    rms(broyden)= 0.11002E+01
  rms(prec ) = 0.13858E+01
  weight for this iteration     100.00

 eigenvalues of (default mixing * dielectric matrix)
  average eigenvalue GAMMA=   0.5102
  1.7116  0.5651  0.5651  0.3796  0.3796  0.2363  0.1620  0.0823

 Free energy of the ion-electron system (eV)
  ---------------------------------------------------
  alpha Z        PSCENC =      1237.65017714
  Ewald energy   TEWEN  =    -22538.72731204
  -Hartree energ DENC   =    -12934.25000709
  -exchange      EXHF   =         0.00000000
  -V(xc)+E(xc)   XCENC  =      1582.45191406
  PAW double counting   =     38949.92891648   -40266.68756240
  entropy T*S    EENTRO =        -0.00000000
  eigenvalues    EBANDS =     -1246.56163079
  atomic energy  EATOM  =     34890.38139807
  Solvation  Ediel_sol  =         0.00000000
  ---------------------------------------------------
  free energy    TOTEN  =      -325.81410657 eV

  energy without entropy =     -325.81410657  energy(sigma->0) =     -325.81410657


--------------------------------------------------------------------------------------------------------




--------------------------------------- Iteration      1(  14)  ---------------------------------------


    POTLOK:  cpu time    0.0756: real time    0.0758
    SETDIJ:  cpu time    0.0091: real time    0.0091
     EDDAV:  cpu time   51.1033: real time   51.2245
    CHARGE:  cpu time    1.8694: real time    1.8738
    MIXING:  cpu time    0.0030: real time    0.0030
    --------------------------------------------
      LOOP:  cpu time   53.0604: real time   53.1862

 eigenvalue-minimisations  : 18720
 total energy-change (2. order) : 0.3908105E+00  (-0.2730127E+00)
 number of electron     396.0000029 magnetization 
 augmentation part      129.4000152 magnetization 

 Broyden mixing:
  rms(total) = 0.85065E+00    rms(broyden)= 0.85051E+00
  rms(prec ) = 0.10582E+01
  weight for this iteration     100.00

 eigenvalues of (default mixing * dielectric matrix)
  average eigenvalue GAMMA=   0.5254
  1.8896  0.6300  0.6300  0.4075  0.4075  0.2984  0.2186  0.1643  0.0823

 Free energy of the ion-electron system (eV)
  ---------------------------------------------------
  alpha Z        PSCENC =      1237.65017714
  Ewald energy   TEWEN  =    -22538.72731204
  -Hartree energ DENC   =    -12933.36929015
  -exchange      EXHF   =         0.00000000
  -V(xc)+E(xc)   XCENC  =      1582.98591649
  PAW double counting   =     39440.57045395   -40760.38425843
  entropy T*S    EENTRO =        -0.00000000
  eigenvalues    EBANDS =     -1244.53038108
  atomic energy  EATOM  =     34890.38139807
  Solvation  Ediel_sol  =         0.00000000
  ---------------------------------------------------
  free energy    TOTEN  =      -325.42329606 eV

  energy without entropy =     -325.42329606  energy(sigma->0) =     -325.42329606


--------------------------------------------------------------------------------------------------------




--------------------------------------- Iteration      1(  15)  ---------------------------------------


    POTLOK:  cpu time    0.0742: real time    0.0744
    SETDIJ:  cpu time    0.0091: real time    0.0092
     EDDAV:  cpu time   50.7989: real time   50.9194
    CHARGE:  cpu time    1.9713: real time    1.9760
    MIXING:  cpu time    0.0037: real time    0.0037
    --------------------------------------------
      LOOP:  cpu time   52.8573: real time   52.9826

 eigenvalue-minimisations  : 18416
 total energy-change (2. order) : 0.2195022E+00  (-0.1475654E+00)
 number of electron     396.0000029 magnetization 
 augmentation part      129.7626053 magnetization 

 Broyden mixing:
  rms(total) = 0.53728E+00    rms(broyden)= 0.53718E+00
  rms(prec ) = 0.65113E+00
  weight for this iteration     100.00

 eigenvalues of (default mixing * dielectric matrix)
  average eigenvalue GAMMA=   0.5602
  2.1338  0.7130  0.7130  0.4456  0.4456  0.4118  0.2702  0.2230  0.1631  0.0823

 Free energy of the ion-electron system (eV)
  ---------------------------------------------------
  alpha Z        PSCENC =      1237.65017714
  Ewald energy   TEWEN  =    -22538.72731204
  -Hartree energ DENC   =    -12934.81291866
  -exchange      EXHF   =         0.00000000
  -V(xc)+E(xc)   XCENC  =      1583.38530276
  PAW double counting   =     39830.71583236   -41153.50197168
  entropy T*S    EENTRO =        -0.00000000
  eigenvalues    EBANDS =     -1240.29430181
  atomic energy  EATOM  =     34890.38139807
  Solvation  Ediel_sol  =         0.00000000
  ---------------------------------------------------
  free energy    TOTEN  =      -325.20379386 eV

  energy without entropy =     -325.20379386  energy(sigma->0) =     -325.20379386


--------------------------------------------------------------------------------------------------------




--------------------------------------- Iteration      1(  16)  ---------------------------------------


    POTLOK:  cpu time    0.0750: real time    0.0752
    SETDIJ:  cpu time    0.0093: real time    0.0093
     EDDAV:  cpu time   49.8455: real time   49.9636
    CHARGE:  cpu time    1.8764: real time    1.8809
    MIXING:  cpu time    0.0037: real time    0.0037
    --------------------------------------------
      LOOP:  cpu time   51.8100: real time   51.9328

 eigenvalue-minimisations  : 18816
 total energy-change (2. order) : 0.7752513E-01  (-0.5271893E-01)
 number of electron     396.0000029 magnetization 
 augmentation part      129.8700490 magnetization 

 Broyden mixing:
  rms(total) = 0.34881E+00    rms(broyden)= 0.34874E+00
  rms(prec ) = 0.42320E+00
  weight for this iteration     100.00

 eigenvalues of (default mixing * dielectric matrix)
  average eigenvalue GAMMA=   0.6149
  2.4633  0.9903  0.6429  0.6429  0.5343  0.3911  0.3911  0.0823  0.1635  0.2453
  0.2171

 Free energy of the ion-electron system (eV)
  ---------------------------------------------------
  alpha Z        PSCENC =      1237.65017714
  Ewald energy   TEWEN  =    -22538.72731204
  -Hartree energ DENC   =    -12938.45543851
  -exchange      EXHF   =         0.00000000
  -V(xc)+E(xc)   XCENC  =      1583.68335299
  PAW double counting   =     40151.65149602   -41477.35354070
  entropy T*S    EENTRO =        -0.00000000
  eigenvalues    EBANDS =     -1233.95640171
  atomic energy  EATOM  =     34890.38139807
  Solvation  Ediel_sol  =         0.00000000
  ---------------------------------------------------
  free energy    TOTEN  =      -325.12626873 eV

  energy without entropy =     -325.12626873  energy(sigma->0) =     -325.12626873


--------------------------------------------------------------------------------------------------------




--------------------------------------- Iteration      1(  17)  ---------------------------------------


    POTLOK:  cpu time    0.0753: real time    0.0755
    SETDIJ:  cpu time    0.0091: real time    0.0091
     EDDAV:  cpu time   48.8247: real time   48.9404
    CHARGE:  cpu time    1.8821: real time    1.8866
    MIXING:  cpu time    0.0034: real time    0.0034
    --------------------------------------------
      LOOP:  cpu time   50.7947: real time   50.9150

 eigenvalue-minimisations  : 18176
 total energy-change (2. order) : 0.4169011E-02  (-0.2377919E-01)
 number of electron     396.0000029 magnetization 
 augmentation part      129.8323961 magnetization 

 Broyden mixing:
  rms(total) = 0.28029E+00    rms(broyden)= 0.28026E+00
  rms(prec ) = 0.35765E+00
  weight for this iteration     100.00

 eigenvalues of (default mixing * dielectric matrix)
  average eigenvalue GAMMA=   0.6248
  2.6208  1.1819  0.6151  0.6151  0.6541  0.4005  0.4005  0.0823  0.3014  0.1634
  0.2184  0.2443

 Free energy of the ion-electron system (eV)
  ---------------------------------------------------
  alpha Z        PSCENC =      1237.65017714
  Ewald energy   TEWEN  =    -22538.72731204
  -Hartree energ DENC   =    -12942.73461774
  -exchange      EXHF   =         0.00000000
  -V(xc)+E(xc)   XCENC  =      1583.84830214
  PAW double counting   =     40415.55087368   -41743.33246937
  entropy T*S    EENTRO =        -0.00000000
  eigenvalues    EBANDS =     -1227.75845159
  atomic energy  EATOM  =     34890.38139807
  Solvation  Ediel_sol  =         0.00000000
  ---------------------------------------------------
  free energy    TOTEN  =      -325.12209972 eV

  energy without entropy =     -325.12209972  energy(sigma->0) =     -325.12209972


--------------------------------------------------------------------------------------------------------




--------------------------------------- Iteration      1(  18)  ---------------------------------------


    POTLOK:  cpu time    0.0747: real time    0.0749
    SETDIJ:  cpu time    0.0093: real time    0.0093
     EDDAV:  cpu time   41.8797: real time   41.9789
    CHARGE:  cpu time    1.6754: real time    1.6794
    MIXING:  cpu time    0.0042: real time    0.0042
    --------------------------------------------
      LOOP:  cpu time   43.6433: real time   43.7467

 eigenvalue-minimisations  : 14896
 total energy-change (2. order) : 0.1346969E-01  (-0.1164086E-01)
 number of electron     396.0000029 magnetization 
 augmentation part      129.8365192 magnetization 

 Broyden mixing:
  rms(total) = 0.21691E+00    rms(broyden)= 0.21689E+00
  rms(prec ) = 0.27504E+00
  weight for this iteration     100.00

 eigenvalues of (default mixing * dielectric matrix)
  average eigenvalue GAMMA=   0.6328
  2.6839  1.2602  0.8382  0.6316  0.6316  0.4197  0.4197  0.3632  0.0823  0.1634
  0.2791  0.2171  0.2361

 Free energy of the ion-electron system (eV)
  ---------------------------------------------------
  alpha Z        PSCENC =      1237.65017714
  Ewald energy   TEWEN  =    -22538.72731204
  -Hartree energ DENC   =    -12943.68211899
  -exchange      EXHF   =         0.00000000
  -V(xc)+E(xc)   XCENC  =      1583.85943425
  PAW double counting   =     40503.89233970   -41831.89871102
  entropy T*S    EENTRO =        -0.00000000
  eigenvalues    EBANDS =     -1226.58383714
  atomic energy  EATOM  =     34890.38139807
  Solvation  Ediel_sol  =         0.00000000
  ---------------------------------------------------
  free energy    TOTEN  =      -325.10863003 eV

  energy without entropy =     -325.10863003  energy(sigma->0) =     -325.10863003


--------------------------------------------------------------------------------------------------------




--------------------------------------- Iteration      1(  19)  ---------------------------------------


    POTLOK:  cpu time    0.0791: real time    0.0792
    SETDIJ:  cpu time    0.0091: real time    0.0091
     EDDAV:  cpu time   44.3521: real time   44.4573
    CHARGE:  cpu time    1.8707: real time    1.8751
    MIXING:  cpu time    0.0039: real time    0.0039
    --------------------------------------------
      LOOP:  cpu time   46.3149: real time   46.4247

 eigenvalue-minimisations  : 15872
 total energy-change (2. order) : 0.1031668E-01  (-0.3391031E-02)
 number of electron     396.0000029 magnetization 
 augmentation part      129.8550751 magnetization 

 Broyden mixing:
  rms(total) = 0.17389E+00    rms(broyden)= 0.17388E+00
  rms(prec ) = 0.21664E+00
  weight for this iteration     100.00

 eigenvalues of (default mixing * dielectric matrix)
  average eigenvalue GAMMA=   0.6476
  2.6892  1.3645  1.0212  0.6713  0.6713  0.4530  0.4530  0.3966  0.3966  0.0823
  0.1634  0.2542  0.2197  0.2302

 Free energy of the ion-electron system (eV)
  ---------------------------------------------------
  alpha Z        PSCENC =      1237.65017714
  Ewald energy   TEWEN  =    -22538.72731204
  -Hartree energ DENC   =    -12943.51396251
  -exchange      EXHF   =         0.00000000
  -V(xc)+E(xc)   XCENC  =      1583.82174443
  PAW double counting   =     40518.73257642   -41846.20337073
  entropy T*S    EENTRO =        -0.00000000
  eigenvalues    EBANDS =     -1227.23956413
  atomic energy  EATOM  =     34890.38139807
  Solvation  Ediel_sol  =         0.00000000
  ---------------------------------------------------
  free energy    TOTEN  =      -325.09831335 eV

  energy without entropy =     -325.09831335  energy(sigma->0) =     -325.09831335


--------------------------------------------------------------------------------------------------------




--------------------------------------- Iteration      1(  20)  ---------------------------------------


    POTLOK:  cpu time    0.0771: real time    0.0773
    SETDIJ:  cpu time    0.0095: real time    0.0096
     EDDAV:  cpu time   46.0685: real time   46.1777
    CHARGE:  cpu time    1.8532: real time    1.8576
    MIXING:  cpu time    0.0039: real time    0.0039
    --------------------------------------------
      LOOP:  cpu time   48.0122: real time   48.1260

 eigenvalue-minimisations  : 16688
 total energy-change (2. order) : 0.5880679E-02  (-0.1303107E-02)
 number of electron     396.0000029 magnetization 
 augmentation part      129.8668531 magnetization 

 Broyden mixing:
  rms(total) = 0.14362E+00    rms(broyden)= 0.14361E+00
  rms(prec ) = 0.17936E+00
  weight for this iteration     100.00

 eigenvalues of (default mixing * dielectric matrix)
  average eigenvalue GAMMA=   0.6644
  2.6422  1.7043  1.1703  0.6624  0.6624  0.6293  0.4447  0.4010  0.4010  0.0823
  0.1634  0.3002  0.2569  0.2174  0.2283

 Free energy of the ion-electron system (eV)
  ---------------------------------------------------
  alpha Z        PSCENC =      1237.65017714
  Ewald energy   TEWEN  =    -22538.72731204
  -Hartree energ DENC   =    -12943.26872469
  -exchange      EXHF   =         0.00000000
  -V(xc)+E(xc)   XCENC  =      1583.77879636
  PAW double counting   =     40501.49352013   -41828.14870297
  entropy T*S    EENTRO =        -0.00000000
  eigenvalues    EBANDS =     -1228.25158466
  atomic energy  EATOM  =     34890.38139807
  Solvation  Ediel_sol  =         0.00000000
  ---------------------------------------------------
  free energy    TOTEN  =      -325.09243267 eV

  energy without entropy =     -325.09243267  energy(sigma->0) =     -325.09243267


--------------------------------------------------------------------------------------------------------




--------------------------------------- Iteration      1(  21)  ---------------------------------------


    POTLOK:  cpu time    0.0769: real time    0.0771
    SETDIJ:  cpu time    0.0087: real time    0.0087
     EDDAV:  cpu time   48.6370: real time   48.7522
    CHARGE:  cpu time    1.8413: real time    1.8772
    MIXING:  cpu time    0.0040: real time    0.0040
    --------------------------------------------
      LOOP:  cpu time   50.5679: real time   50.7193

 eigenvalue-minimisations  : 17792
 total energy-change (2. order) : 0.4998912E-02  (-0.6875019E-03)
 number of electron     396.0000029 magnetization 
 augmentation part      129.8645320 magnetization 

 Broyden mixing:
  rms(total) = 0.10939E+00    rms(broyden)= 0.10939E+00
  rms(prec ) = 0.13803E+00
  weight for this iteration     100.00

 eigenvalues of (default mixing * dielectric matrix)
  average eigenvalue GAMMA=   0.6835
  2.6988  1.9805  1.2108  0.8344  0.6268  0.6268  0.5114  0.4164  0.4164  0.0823
  0.3703  0.1634  0.3053  0.2472  0.2194  0.2254

 Free energy of the ion-electron system (eV)
  ---------------------------------------------------
  alpha Z        PSCENC =      1237.65017714
  Ewald energy   TEWEN  =    -22538.72731204
  -Hartree energ DENC   =    -12943.23168915
  -exchange      EXHF   =         0.00000000
  -V(xc)+E(xc)   XCENC  =      1583.74773172
  PAW double counting   =     40480.09439228   -41806.05152378
  entropy T*S    EENTRO =        -0.00000000
  eigenvalues    EBANDS =     -1228.95060800
  atomic energy  EATOM  =     34890.38139807
  Solvation  Ediel_sol  =         0.00000000
  ---------------------------------------------------
  free energy    TOTEN  =      -325.08743376 eV

  energy without entropy =     -325.08743376  energy(sigma->0) =     -325.08743376


--------------------------------------------------------------------------------------------------------




--------------------------------------- Iteration      1(  22)  ---------------------------------------


    POTLOK:  cpu time    0.0752: real time    0.0754
    SETDIJ:  cpu time    0.0092: real time    0.0092
     EDDAV:  cpu time   49.5956: real time   49.7131
    CHARGE:  cpu time    1.8411: real time    1.8455
    MIXING:  cpu time    0.0040: real time    0.0040
    --------------------------------------------
      LOOP:  cpu time   51.5251: real time   51.6472

 eigenvalue-minimisations  : 18352
 total energy-change (2. order) : 0.3044941E-02  (-0.2998737E-03)
 number of electron     396.0000029 magnetization 
 augmentation part      129.8589107 magnetization 

 Broyden mixing:
  rms(total) = 0.86605E-01    rms(broyden)= 0.86603E-01
  rms(prec ) = 0.10869E+00
  weight for this iteration     100.00

 eigenvalues of (default mixing * dielectric matrix)
  average eigenvalue GAMMA=   0.7123
  2.6967  2.3090  1.4021  0.9819  0.6282  0.6282  0.6296  0.4071  0.4071  0.4042
  0.4042  0.0823  0.1634  0.2698  0.2504  0.2184  0.2259

 Free energy of the ion-electron system (eV)
  ---------------------------------------------------
  alpha Z        PSCENC =      1237.65017714
  Ewald energy   TEWEN  =    -22538.72731204
  -Hartree energ DENC   =    -12943.54117919
  -exchange      EXHF   =         0.00000000
  -V(xc)+E(xc)   XCENC  =      1583.74596296
  PAW double counting   =     40470.77066791   -41796.38417372
  entropy T*S    EENTRO =        -0.00000000
  eigenvalues    EBANDS =     -1228.97992993
  atomic energy  EATOM  =     34890.38139807
  Solvation  Ediel_sol  =         0.00000000
  ---------------------------------------------------
  free energy    TOTEN  =      -325.08438881 eV

  energy without entropy =     -325.08438881  energy(sigma->0) =     -325.08438881


--------------------------------------------------------------------------------------------------------




--------------------------------------- Iteration      1(  23)  ---------------------------------------


    POTLOK:  cpu time    0.0727: real time    0.0728
    SETDIJ:  cpu time    0.0088: real time    0.0088
     EDDAV:  cpu time   53.3619: real time   53.4883
    CHARGE:  cpu time    1.8019: real time    1.8062
    MIXING:  cpu time    0.0042: real time    0.0043
    --------------------------------------------
      LOOP:  cpu time   55.2494: real time   55.3803

 eigenvalue-minimisations  : 19280
 total energy-change (2. order) : 0.2411034E-02  (-0.2029771E-03)
 number of electron     396.0000029 magnetization 
 augmentation part      129.8425903 magnetization 

 Broyden mixing:
  rms(total) = 0.61118E-01    rms(broyden)= 0.61116E-01
  rms(prec ) = 0.76377E-01
  weight for this iteration     100.00

 eigenvalues of (default mixing * dielectric matrix)
  average eigenvalue GAMMA=   0.7352
  2.9385  2.4714  1.6575  0.9754  0.7268  0.6375  0.6375  0.4421  0.4421  0.4027
  0.4027  0.0823  0.1634  0.2829  0.2829  0.2426  0.2185  0.2263

 Free energy of the ion-electron system (eV)
  ---------------------------------------------------
  alpha Z        PSCENC =      1237.65017714
  Ewald energy   TEWEN  =    -22538.72731204
  -Hartree energ DENC   =    -12944.06516046
  -exchange      EXHF   =         0.00000000
  -V(xc)+E(xc)   XCENC  =      1583.75979282
  PAW double counting   =     40460.50353587   -41785.86857428
  entropy T*S    EENTRO =        -0.00000000
  eigenvalues    EBANDS =     -1228.71583489
  atomic energy  EATOM  =     34890.38139807
  Solvation  Ediel_sol  =         0.00000000
  ---------------------------------------------------
  free energy    TOTEN  =      -325.08197778 eV

  energy without entropy =     -325.08197778  energy(sigma->0) =     -325.08197778


--------------------------------------------------------------------------------------------------------




--------------------------------------- Iteration      1(  24)  ---------------------------------------


    POTLOK:  cpu time    0.0751: real time    0.0753
    SETDIJ:  cpu time    0.0093: real time    0.0094
     EDDAV:  cpu time   49.5196: real time   49.6371
    CHARGE:  cpu time    1.9359: real time    1.9405
    MIXING:  cpu time    0.0046: real time    0.0046
    --------------------------------------------
      LOOP:  cpu time   51.5446: real time   51.6668

 eigenvalue-minimisations  : 18432
 total energy-change (2. order) : 0.1407332E-02  (-0.1571477E-03)
 number of electron     396.0000029 magnetization 
 augmentation part      129.8332538 magnetization 

 Broyden mixing:
  rms(total) = 0.39092E-01    rms(broyden)= 0.39089E-01
  rms(prec ) = 0.48929E-01
  weight for this iteration     100.00

 eigenvalues of (default mixing * dielectric matrix)
  average eigenvalue GAMMA=   0.7632
  3.1348  2.7507  1.7548  0.9049  0.9049  0.6491  0.6491  0.5261  0.5261  0.4074
  0.4074  0.0823  0.3690  0.1634  0.3222  0.2588  0.2461  0.2185  0.2255

 Free energy of the ion-electron system (eV)
  ---------------------------------------------------
  alpha Z        PSCENC =      1237.65017714
  Ewald energy   TEWEN  =    -22538.72731204
  -Hartree energ DENC   =    -12944.55470660
  -exchange      EXHF   =         0.00000000
  -V(xc)+E(xc)   XCENC  =      1583.77825943
  PAW double counting   =     40454.93521363   -41780.16748865
  entropy T*S    EENTRO =        -0.00000000
  eigenvalues    EBANDS =     -1228.37611143
  atomic energy  EATOM  =     34890.38139807
  Solvation  Ediel_sol  =         0.00000000
  ---------------------------------------------------
  free energy    TOTEN  =      -325.08057045 eV

  energy without entropy =     -325.08057045  energy(sigma->0) =     -325.08057045


--------------------------------------------------------------------------------------------------------




--------------------------------------- Iteration      1(  25)  ---------------------------------------


    POTLOK:  cpu time    0.0745: real time    0.0747
    SETDIJ:  cpu time    0.0092: real time    0.0092
     EDDAV:  cpu time   49.3080: real time   49.4248
    CHARGE:  cpu time    1.9044: real time    1.9089
    MIXING:  cpu time    0.0043: real time    0.0043
    --------------------------------------------
      LOOP:  cpu time   51.3004: real time   51.4220

 eigenvalue-minimisations  : 18064
 total energy-change (2. order) : 0.5290361E-03  (-0.8082280E-04)
 number of electron     396.0000029 magnetization 
 augmentation part      129.8278349 magnetization 

 Broyden mixing:
  rms(total) = 0.25434E-01    rms(broyden)= 0.25432E-01
  rms(prec ) = 0.32235E-01
  weight for this iteration     100.00

 eigenvalues of (default mixing * dielectric matrix)
  average eigenvalue GAMMA=   0.7879
  3.4965  2.7525  1.8738  1.0498  1.0498  0.6442  0.6442  0.6428  0.5186  0.0823
  0.4082  0.4082  0.3936  0.3936  0.1634  0.2875  0.2608  0.2440  0.2185  0.2256

 Free energy of the ion-electron system (eV)
  ---------------------------------------------------
  alpha Z        PSCENC =      1237.65017714
  Ewald energy   TEWEN  =    -22538.72731204
  -Hartree energ DENC   =    -12944.86216238
  -exchange      EXHF   =         0.00000000
  -V(xc)+E(xc)   XCENC  =      1583.79438967
  PAW double counting   =     40450.42286515   -41775.58188280
  entropy T*S    EENTRO =        -0.00000000
  eigenvalues    EBANDS =     -1228.15751422
  atomic energy  EATOM  =     34890.38139807
  Solvation  Ediel_sol  =         0.00000000
  ---------------------------------------------------
  free energy    TOTEN  =      -325.08004141 eV

  energy without entropy =     -325.08004141  energy(sigma->0) =     -325.08004141


--------------------------------------------------------------------------------------------------------




--------------------------------------- Iteration      1(  26)  ---------------------------------------


    POTLOK:  cpu time    0.0693: real time    0.0695
    SETDIJ:  cpu time    0.0092: real time    0.0092
     EDDAV:  cpu time   48.8451: real time   48.9609
    CHARGE:  cpu time    1.8770: real time    1.8815
    MIXING:  cpu time    0.0048: real time    0.0048
    --------------------------------------------
      LOOP:  cpu time   50.8054: real time   50.9258

 eigenvalue-minimisations  : 17984
 total energy-change (2. order) : 0.2263110E-03  (-0.5121824E-04)
 number of electron     396.0000029 magnetization 
 augmentation part      129.8279865 magnetization 

 Broyden mixing:
  rms(total) = 0.15469E-01    rms(broyden)= 0.15468E-01
  rms(prec ) = 0.20357E-01
[...]
 -0.299   1.000   0.055   0.061  -0.766   0.329  -1.153  -0.065  -0.076   0.864  -0.075   0.025   0.754  -0.015  -0.016  -0.131
  0.059   0.194  -0.190  -0.334  -0.255  -0.074  -0.211   0.187   0.349   0.274  -0.474   0.115  -0.015   0.553   0.019   0.003
 -0.660   0.078  -0.022   0.497  -0.006   0.763  -0.089   0.020  -0.612  -0.007   0.158  -0.046  -0.016   0.019   0.749   0.003
  0.066  -0.211   0.015  -0.014   0.177  -0.066   0.227  -0.002   0.016  -0.179   0.014  -0.006  -0.131   0.003   0.003   0.033
 -0.013  -0.044   0.014   0.061   0.031   0.015   0.038  -0.026  -0.061  -0.039   0.095  -0.031   0.003  -0.086  -0.004  -0.000
  0.109  -0.013  -0.012  -0.153   0.011  -0.138   0.015   0.006   0.152  -0.003  -0.035   0.012   0.003  -0.003  -0.129  -0.001


------------------------ aborting loop because EDIFF is reached ----------------------------------------


    CHARGE:  cpu time    1.9860: real time    1.9908
    FORLOC:  cpu time    0.0395: real time    0.0417
    FORNL :  cpu time   12.7071: real time   12.7372
    STRESS:  cpu time   35.0719: real time   35.1561
    FORCOR:  cpu time    0.1166: real time    0.1169
    FORHAR:  cpu time    0.0574: real time    0.0576
    MIXING:  cpu time    0.0051: real time    0.0051
    OFIELD:  cpu time    0.0001: real time    0.0001

  FORCE on cell =-STRESS in cart. coord.  units (eV):
  Direction    XX          YY          ZZ          XY          YZ          ZX
  --------------------------------------------------------------------------------------
  Alpha Z  1237.65018  1237.65018  1237.65018
  Ewald   -1556.85018 -1772.11911-19209.90668   182.96060   -36.45096   -96.76221
  Hartree  8512.43337  8429.70735 -3996.70652    65.43221   -16.80443   -30.38168
  E(xc)   -2022.25319 -2022.09493 -2025.32595    -0.14955     0.07941     0.21999
  Local  -14628.62586-14350.95144 15222.55443  -230.39624    53.59634   120.06930
  n-local  -837.62001  -843.18622  -875.65171     5.33219    -2.04881    -5.29278
  augment  3330.91824  3340.99807  3428.38136    -8.10707    -0.32738     2.97978
  Kinetic  5994.31665  6006.27889  6226.82777    -8.88551    -0.01626     0.37686
  Fock        0.00000     0.00000     0.00000     0.00000     0.00000     0.00000
  -------------------------------------------------------------------------------------
  Total       29.9691794     26.2827962      7.8228809      6.1866320     -1.9720898     -8.7907409
  in kB       85.6691525     75.1313490     22.3622933     17.6849527     -5.6373668    -25.1289939
  external PRESSURE =      61.0542649 kB  Pullay stress =       0.0000000 kB


 VOLUME and BASIS-vectors are now :
 -----------------------------------------------------------------------------
  energy-cutoff  :      500.00
  volume of cell :      560.48
      direct lattice vectors                 reciprocal lattice vectors
     8.362870000  0.000000000  0.000000000     0.119576174  0.069037336  0.000000000
    -4.181435000  7.242457870  0.000000000     0.000000000  0.138074673  0.000000000
     0.000000000  0.000000000  9.253790000     0.000000000  0.000000000  0.108063831

  length of vectors
     8.362870000  8.362870001  9.253790000     0.138074673  0.138074673  0.108063831


 FORCES acting on ions
    electron-ion (+dipol)            ewald-force                    non-local-force                 convergence-correction
 -----------------------------------------------------------------------------------------------
   0.670E+02 -.666E+02 -.778E+02   -.698E+02 0.712E+02 0.832E+02   0.770E+00 -.816E+00 0.226E+01   0.186E-01 -.803E-02 -.198E-01
   -.156E+03 -.170E+02 0.391E+01   0.160E+03 0.182E+02 -.519E+01   -.183E+00 -.107E+01 0.250E-01   0.454E-01 -.152E-01 0.173E-01
   0.537E+02 0.180E+03 0.193E+02   -.561E+02 -.189E+03 -.187E+02   0.702E+00 0.115E+01 -.271E+00   -.293E-02 0.217E-01 -.165E-01
   0.360E+01 -.238E+02 0.262E+02   -.389E+01 0.243E+02 -.267E+02   -.239E+00 -.341E+00 0.627E+00   0.966E-02 0.118E-01 0.195E-01
   0.303E+02 0.777E+02 -.349E+02   -.326E+02 -.811E+02 0.373E+02   0.288E+00 0.266E+00 0.176E+01   0.491E-02 -.418E-02 -.256E-01
   -.838E+02 -.213E+02 0.198E+02   0.862E+02 0.219E+02 -.199E+02   0.909E+00 0.937E-02 -.162E+01   -.211E-01 0.167E-01 0.250E-01
   -.479E+02 -.522E+02 -.525E+02   0.494E+02 0.525E+02 0.524E+02   -.178E+00 -.254E+00 -.294E+01   0.153E-02 0.851E-03 -.207E-01
   0.112E+03 -.112E+03 -.141E+02   -.115E+03 0.118E+03 0.141E+02   0.115E+01 0.809E+00 0.188E+00   -.196E-01 0.241E-01 0.197E-01
   -.805E+01 0.311E+01 0.434E+02   0.792E+01 -.240E+01 -.423E+02   -.630E+00 -.864E-01 0.802E+00   0.190E-01 0.121E-01 -.255E-01
   -.110E+02 0.676E+02 -.225E+01   0.125E+02 -.700E+02 0.247E+01   -.244E+00 0.107E+01 0.756E+00   0.584E-01 -.228E-01 0.232E-01
   -.681E+02 -.800E+02 -.348E+02   0.764E+02 0.863E+02 0.310E+02   -.155E+01 -.683E+00 -.235E+01   -.135E-02 -.237E-02 -.196E-01
   0.114E+03 -.132E+02 -.194E+02   -.116E+03 0.141E+02 0.176E+02   0.117E+01 0.141E+01 -.162E+01   0.144E-01 0.182E-01 0.359E-01
   -.448E+02 -.740E+02 -.510E+01   0.478E+02 0.749E+02 0.660E+01   -.354E+00 -.763E+00 0.177E+01   -.204E-01 -.268E-02 -.143E-01
   -.380E+02 -.365E+02 0.411E+02   0.407E+02 0.386E+02 -.449E+02   -.794E+00 -.102E+01 -.270E+01   -.300E-01 -.279E-01 0.267E-01
   0.133E+02 -.216E+02 -.203E+02   -.142E+02 0.242E+02 0.222E+02   0.146E+00 0.779E-01 0.100E+01   -.136E-01 0.829E-02 -.312E-01
   0.179E+01 0.217E+02 0.349E+01   -.399E+01 -.218E+02 -.267E+01   0.165E+00 0.439E+00 0.734E+00   -.682E-01 0.169E-01 0.256E-01
   -.560E+02 0.808E+02 0.759E+02   0.576E+02 -.861E+02 -.737E+02   0.101E+00 -.831E-01 -.662E+00   -.383E-02 -.254E-01 -.235E-01
   -.708E+02 0.485E+02 -.453E+02   0.747E+02 -.518E+02 0.460E+02   0.429E+00 0.395E+00 0.118E+01   0.116E-01 -.368E-01 0.325E-01
   0.129E+02 0.542E+02 -.363E+03   -.134E+02 -.591E+02 0.386E+03   0.520E+00 0.468E+01 -.245E+02   0.183E-01 0.921E-02 -.101E-01
   -.460E+01 0.515E+02 0.316E+03   0.621E+01 -.562E+02 -.340E+03   -.195E+01 0.288E+01 0.251E+02   0.167E-01 0.463E-02 0.264E-03
   -.720E+00 -.122E+02 -.335E+03   0.151E+01 0.139E+02 0.361E+03   -.166E+01 -.524E+00 -.274E+02   0.592E-01 -.166E-01 0.391E-01
   -.558E+02 -.343E+02 0.367E+03   0.640E+02 0.363E+02 -.397E+03   -.440E+01 -.835E+00 0.278E+02   0.929E-02 0.202E-01 -.181E-01
   0.106E+03 -.702E+01 -.438E+03   -.120E+03 0.711E+01 0.475E+03   0.764E+01 -.690E-01 -.307E+02   0.486E-02 0.110E-01 -.172E-01
   0.470E+02 0.406E+02 0.353E+03   -.480E+02 -.408E+02 -.379E+03   -.171E+00 -.153E+01 0.284E+02   0.451E-01 0.215E-01 -.202E-01
   0.351E+02 0.272E+02 -.323E+03   -.387E+02 -.287E+02 0.349E+03   0.232E+01 0.453E-01 -.270E+02   -.253E-02 0.522E-01 0.395E-01
   -.375E+02 0.115E+02 0.422E+03   0.421E+02 -.901E+01 -.453E+03   -.265E+01 -.217E+01 0.299E+02   0.164E-01 0.832E-02 0.230E-03
   0.282E+02 0.831E+01 -.422E+03   -.331E+02 -.100E+02 0.451E+03   0.447E+01 0.549E+00 -.290E+02   -.347E-02 -.862E-02 0.440E-02
   0.470E+02 0.671E+02 0.368E+03   -.490E+02 -.755E+02 -.395E+03   0.181E+01 0.478E+01 0.275E+02   -.806E-02 0.596E-02 -.248E-02
   0.338E+02 -.211E+02 -.318E+03   -.367E+02 0.221E+02 0.344E+03   0.733E+00 -.125E+01 -.270E+02   0.586E-03 -.518E-04 0.157E-01
   -.648E+02 -.364E+02 0.390E+03   0.736E+02 0.403E+02 -.419E+03   -.644E+01 -.308E+01 0.276E+02   0.314E-02 -.133E-01 -.111E-01
   -.144E+02 -.207E+02 -.373E+03   0.149E+02 0.258E+02 0.402E+03   -.369E+00 -.522E+01 -.278E+02   -.236E-02 0.246E-01 -.883E-02
   0.615E+01 0.187E+02 0.381E+03   -.565E+01 -.220E+02 -.408E+03   0.394E+00 0.197E+01 0.274E+02   -.289E-01 0.182E-01 -.789E-03
   0.403E+02 0.349E+02 -.307E+03   -.422E+02 -.363E+02 0.329E+03   0.152E+01 0.983E+00 -.245E+02   -.164E-02 0.123E-01 0.113E-01
   0.437E+02 0.243E+02 0.360E+03   -.506E+02 -.270E+02 -.389E+03   0.462E+01 0.201E+01 0.279E+02   -.224E-02 0.156E-01 -.977E-02
   -.462E+02 0.362E+02 -.355E+03   0.518E+02 -.388E+02 0.381E+03   -.505E+01 0.148E+01 -.260E+02   0.295E-03 -.944E-02 -.186E-01
   -.493E+00 0.368E+02 0.360E+03   0.140E+01 -.366E+02 -.387E+03   -.263E+01 -.891E+00 0.278E+02   0.511E-02 -.177E-01 0.803E-02
   -.264E+01 0.419E+02 -.400E+03   0.495E+01 -.452E+02 0.431E+03   -.167E+01 0.178E+01 -.301E+02   0.882E-02 -.955E-02 0.239E-01
   -.750E+01 -.279E+02 0.340E+03   0.864E+01 0.312E+02 -.366E+03   -.821E+00 -.242E+01 0.250E+02   -.113E-02 -.859E-02 -.924E-02
   0.740E+01 -.369E+02 -.366E+03   -.576E+01 0.385E+02 0.392E+03   -.309E+01 -.901E+00 -.239E+02   0.824E-02 -.114E-01 -.926E-02
   0.573E+02 -.720E+02 0.398E+03   -.642E+02 0.781E+02 -.428E+03   0.425E+01 -.348E+01 0.290E+02   -.427E-02 -.141E-01 -.360E-02
   0.371E+02 0.338E+02 -.353E+03   -.412E+02 -.390E+02 0.384E+03   0.116E+01 0.162E+01 -.259E+02   -.199E-01 -.115E-01 0.274E-01
   0.491E+02 0.708E+01 0.387E+03   -.579E+02 -.101E+02 -.414E+03   0.718E+01 0.386E+01 0.251E+02   -.577E-02 -.108E-01 -.533E-02
   0.205E-01 0.377E+02 -.363E+03   0.102E+00 -.408E+02 0.387E+03   -.507E+00 0.236E+01 -.259E+02   -.156E-01 0.462E-02 -.166E-01
   0.124E+02 -.307E+02 0.376E+03   -.158E+02 0.304E+02 -.404E+03   0.275E+01 0.154E+01 0.287E+02   0.152E-01 -.407E-01 -.340E-01
   -.440E+02 -.603E+02 -.355E+03   0.454E+02 0.662E+02 0.383E+03   -.218E+00 -.416E+01 -.286E+02   -.557E-01 0.446E-03 0.458E-01
   0.275E+02 -.757E+02 0.323E+03   -.306E+02 0.850E+02 -.348E+03   0.144E+01 -.709E+01 0.231E+02   -.720E-02 0.174E-02 -.875E-02
   -.103E+02 0.277E+02 -.351E+03   0.101E+02 -.295E+02 0.375E+03   0.744E+00 0.160E+01 -.251E+02   -.383E-02 -.938E-02 -.155E-01
   -.548E+02 -.275E+02 0.351E+03   0.569E+02 0.299E+02 -.378E+03   -.675E+00 -.169E+01 0.284E+02   -.564E-01 0.244E-01 -.193E-01
   0.101E+02 -.147E+02 -.362E+03   -.157E+02 0.144E+02 0.389E+03   0.535E+01 0.139E+01 -.272E+02   -.985E-02 -.106E-01 0.135E-01
   0.879E+00 -.280E+01 0.362E+03   -.271E+00 0.415E+01 -.390E+03   0.427E+00 -.424E-01 0.266E+02   -.167E-01 0.361E-02 -.163E-02
   -.137E+02 -.682E+02 -.390E+03   0.137E+02 0.730E+02 0.417E+03   0.397E+00 -.297E+01 -.285E+02   -.456E-02 -.977E-02 -.767E-02
   -.749E+02 -.331E+02 0.366E+03   0.776E+02 0.347E+02 -.395E+03   -.110E+01 -.754E+00 0.283E+02   0.133E-01 -.991E-02 -.662E-03
   -.280E+02 -.576E+00 -.376E+03   0.297E+02 -.251E+01 0.406E+03   -.258E+01 0.281E+01 -.267E+02   0.134E-01 -.210E-01 0.306E-01
   0.334E+02 0.594E+02 0.398E+03   -.359E+02 -.665E+02 -.431E+03   0.601E+00 0.484E+01 0.299E+02   0.394E-02 -.176E-01 -.146E-01
 -----------------------------------------------------------------------------------------------
   -.140E+02 -.260E+01 -.668E+01   -.782E-12 0.270E-12 -.568E-13   0.140E+02 0.261E+01 0.666E+01   -.580E-02 -.270E-01 0.252E-01
 
 
 POSITION                                       TOTAL-FORCE (eV/Angst)
 -----------------------------------------------------------------------------------
      4.15593      7.11422      9.13097        -1.968089      3.725934      7.678893
      4.13580      7.22512      4.64728         3.578475      0.151354     -1.238908
     -1.40575      2.57499      9.24605        -1.643043     -7.950586      0.326716
     -1.36002      2.39609      4.57586        -0.513539      0.165135      0.231260
     -2.78894      4.91187      9.16700        -2.032785     -3.168573      4.093672
      5.39876      4.75223      4.69353         3.273814      0.632999     -1.671616
      2.70758      0.02748      0.12368         1.285442      0.011354     -3.000542
     -1.33863      7.07879      4.65365        -1.799892      6.647523      0.238754
      1.34248      2.39633      9.15536        -0.741987      0.627373      1.916560
      1.41027      2.47984      4.58739         1.253826     -1.301996      0.999785
     -0.11275      4.73102      0.13874         6.740283      5.628898     -6.162858
     -0.01658      4.76967      4.68883        -0.435171      2.320961     -3.428322
      1.33165      7.20929      9.16214         2.624046      0.167139      3.255068
      5.60128      0.00005      4.74038         1.868060      1.060593     -6.467407
      4.16957      2.36563      9.15893        -0.801601      2.707583      2.877552
      4.21792      2.34712      4.61514        -2.095244      0.363789      1.571306
      2.73305      4.94734      9.16621         1.686744     -5.344644      1.514311
      2.65526      4.82642      4.59780         4.336027     -2.910364      1.914239
     -0.03864      1.66859      0.98381         0.055763     -0.204787     -1.290095
      1.43314      0.94814      3.63729        -0.311639     -1.817460      1.367235
      0.08433      1.56017      5.59680        -0.808018      1.089800     -1.102164
      1.16905      0.75242      8.36110         3.807328      1.147756     -2.049588
     -1.31922      4.01471      0.84525        -6.433259      0.033241      5.659530
      0.07929      3.34930      3.53998        -1.063209     -1.650610      1.687049
     -1.38885      4.06202      5.59217        -1.249428     -1.393583     -0.604401
     -0.12098      3.24196      8.32652         1.978190      0.331898     -1.573773
     -2.81106      6.50627      1.00959        -0.476905     -1.170342     -0.195322
     -1.42752      5.76027      3.60688        -0.205592     -3.597550     -0.102750
     -2.61925      6.35051      5.68057        -2.096880     -0.218665     -0.933804
     -1.48098      5.68139      8.39423         2.292695      0.866207     -1.173869
      2.73798      1.67461      0.86291         0.109895     -0.039339      0.474606
      4.14304      0.82313      3.70760         0.863291     -1.340210     -0.100200
      2.83046      1.66416      5.78751        -0.359578     -0.352246     -2.708597
      4.25480      0.81677      8.32030        -2.226077     -0.714367     -1.489606
      1.39431      4.04994      0.88792         0.559051     -1.173643      0.198192
      2.92780      3.24350      3.62044        -1.718489     -0.693703      0.807420
      1.33222      4.09316      5.59152         0.651576     -1.496573      0.547107
      2.73741      3.14504      8.24661         0.313717      0.936962     -0.765910
      0.03245      6.41064      0.80246        -1.447286      0.733117      2.780985
      1.42982      5.42552      3.63252        -2.680849      2.667878     -0.969706
      0.12148      6.49774      5.38028        -2.932788     -3.592697      4.940558
      1.33299      5.55660      8.39280        -1.684911      0.879338     -2.215257
      5.60049      1.71669      0.98923        -0.400546     -0.760203     -1.338698
      7.01661      0.71520      3.64825        -0.668629      1.184995      0.900101
      5.53199      1.49207      5.66771         1.137133      1.797765     -0.502063
      6.99663      0.64998      8.39133        -1.664770      2.155498     -2.029843
      4.10615      4.08020      0.88124         0.583495     -0.201619     -1.137759
      5.48164      3.11970      3.55604         1.323316      0.744434      1.555921
      4.11595      3.87559      5.59358        -0.200734      1.029123      0.274816
      5.49958      3.19064      8.34084         1.018137      1.320825     -1.590307
      2.67675      6.29573      1.06962         0.388521      1.800664     -1.616644
      4.02670      5.55472      3.72290         1.650232      0.770789     -0.228557
      2.81534      6.40178      5.45334        -0.823849     -0.290638      3.067871
      4.27680      5.67931      8.31058        -1.894269     -2.316526     -3.190943
 -----------------------------------------------------------------------------------
    total drift:                               -0.001517     -0.012974      0.004429


--------------------------------------------------------------------------------------------------------



  FREE ENERGIE OF THE ION-ELECTRON SYSTEM (eV)
  ---------------------------------------------------
  free  energy   TOTEN  =      -325.0796779628 eV

  energy  without entropy=     -325.0796779627  energy(sigma->0) =     -325.07967796
 


--------------------------------------------------------------------------------------------------------


    POTLOK:  cpu time    0.0888: real time    0.0890


--------------------------------------------------------------------------------------------------------


     LOOP+:  cpu time 1452.7572: real time 1457.1469
    4ORBIT:  cpu time    0.0000: real time    0.0000

volume of typ            1:    20.5 %

volume of typ            2:    10.5 %
 
total charge     
 
# of ion       s       p       d       tot
------------------------------------------
    1        0.353   0.497   7.879   8.729
    2        0.297   0.393   7.826   8.517
    3        0.331   0.469   7.863   8.663
    4        0.258   0.311   7.807   8.375
    5        0.318   0.441   7.855   8.615
    6        0.281   0.353   7.813   8.448
    7        0.302   0.401   7.834   8.537
    8        0.323   0.441   7.846   8.609
    9        0.302   0.417   7.821   8.539
   10        0.284   0.375   7.806   8.465
   11        0.354   0.515   7.889   8.758
   12        0.313   0.436   7.841   8.590
   13        0.318   0.443   7.835   8.597
   14        0.338   0.468   7.866   8.672
   15        0.314   0.441   7.823   8.578
   16        0.315   0.453   7.823   8.590
   17        0.313   0.437   7.841   8.591
   18        0.339   0.495   7.864   8.698
   19        1.294   2.675   0.006   3.975
   20        1.291   2.681   0.006   3.978
   21        1.288   2.696   0.007   3.992
   22        1.285   2.754   0.011   4.050
   23        1.284   2.830   0.019   4.133
   24        1.295   2.682   0.007   3.984
   25        1.284   2.714   0.008   4.005
   26        1.284   2.762   0.011   4.057
   27        1.290   2.717   0.009   4.016
   28        1.292   2.701   0.008   4.002
   29        1.289   2.695   0.007   3.991
   30        1.286   2.752   0.010   4.048
   31        1.283   2.741   0.009   4.034
   32        1.289   2.720   0.008   4.017
   33        1.298   2.641   0.004   3.943
   34        1.284   2.747   0.010   4.042
   35        1.291   2.710   0.008   4.009
   36        1.292   2.698   0.007   3.997
   37        1.283   2.751   0.010   4.045
   38        1.284   2.714   0.007   4.005
   39        1.279   2.765   0.010   4.054
   40        1.296   2.720   0.010   4.026
   41        1.272   2.827   0.015   4.115
   42        1.283   2.761   0.011   4.054
   43        1.292   2.681   0.006   3.979
   44        1.290   2.708   0.008   4.006
   45        1.291   2.702   0.008   4.002
   46        1.277   2.762   0.009   4.048
   47        1.290   2.693   0.006   3.989
   48        1.292   2.683   0.007   3.982
   49        1.287   2.724   0.009   4.019
   50        1.280   2.751   0.010   4.040
   51        1.296   2.684   0.007   3.987
   52        1.287   2.727   0.009   4.024
   53        1.278   2.785   0.012   4.075
   54        1.281   2.789   0.014   4.085
--------------------------------------------------
tot          51.99  105.93  141.46  299.38
 

 total amount of memory used by VASP MPI-rank0   181695. kBytes
=======================================================================

   base      :      30000. kBytes
   nonlr-proj:      32303. kBytes
   fftplans  :       6058. kBytes
   grid      :      19644. kBytes
   one-center:        839. kBytes
   wavefun   :      92851. kBytes
 
  
  
 General timing and accounting informations for this job:
 ========================================================
  
                  Total CPU time used (sec):     1480.171
                            User time (sec):     1476.998
                          System time (sec):        3.173
                         Elapsed time (sec):     1487.914
  
                   Maximum memory used (kb):      245792.
                   Average memory used (kb):           0.
  
                          Minor page faults:        38912
                          Major page faults:           22
                 Voluntary context switches:         1225
