 vasp.5.4.4.18Apr17-6-g9f103f2a35 (build May 12 2020 04:58:55) complex          
  
 MD_VERSION_INFO: Compiled 2020-05-12T11:58:55-UTC in devlin.sd.materialsdesign.
 com:/home/medea2/data/build/wwolf/vasp-gpu5.4.4/13047/x86_64/src/src/build/std 
 from svn 13047
 
 This VASP executable licensed from Materials Design, Inc.
 
 executed on                        Lin64 date 2023.04.27  09:30:41
 running on   16 total cores
 distrk:  each k-point on   16 cores,    1 groups
 distr:  one band on NCORES_PER_BAND=   1 cores,   16 groups


--------------------------------------------------------------------------------------------------------


 INCAR:
 POTCAR:    PAW_PBE Ni 02Aug2007                  
 POTCAR:    PAW_PBE O 08Apr2002                   

 ----------------------------------------------------------------------------- 
|                                                                             |
|           W    W    AA    RRRRR   N    N  II  N    N   GGGG   !!!           |
|           W    W   A  A   R    R  NN   N  II  NN   N  G    G  !!!           |
|           W    W  A    A  R    R  N N  N  II  N N  N  G       !!!           |
|           W WW W  AAAAAA  RRRRR   N  N N  II  N  N N  G  GGG   !            |
|           WW  WW  A    A  R   R   N   NN  II  N   NN  G    G                |
|           W    W  A    A  R    R  N    N  II  N    N   GGGG   !!!           |
|                                                                             |
|      For optimal performance we recommend to set                            |
|        NCORE= 4 - approx SQRT( number of cores)                             |
|      NCORE specifies how many cores store one orbital (NPAR=cpu/NCORE).     |
|      This setting can  greatly improve the performance of VASP for DFT.     |
|      The default,   NCORE=1            might be grossly inefficient         |
|      on modern multi-core architectures or massively parallel machines.     |
|      Do your own testing !!!!                                               |
|      Unfortunately you need to use the default for GW and RPA calculations. |
|      (for HF NCORE is supported but not extensively tested yet)             |
|                                                                             |
 ----------------------------------------------------------------------------- 

 POTCAR:    PAW_PBE Ni 02Aug2007                  
  local pseudopotential read in
  partial core-charges read in
  partial kinetic energy density read in
  atomic valenz-charges read in
  non local Contribution for L=           2  read in
    real space projection operators read in
  non local Contribution for L=           2  read in
    real space projection operators read in
  non local Contribution for L=           0  read in
    real space projection operators read in
  non local Contribution for L=           0  read in
    real space projection operators read in
  non local Contribution for L=           1  read in
    real space projection operators read in
  non local Contribution for L=           1  read in
    real space projection operators read in
    PAW grid and wavefunctions read in
 
   number of l-projection  operators is LMAX  =           6
   number of lm-projection operators is LMMAX =          18
 
 POTCAR:    PAW_PBE O 08Apr2002                   
  local pseudopotential read in
  partial core-charges read in
  partial kinetic energy density read in
  kinetic energy density of atom read in
  atomic valenz-charges read in
  non local Contribution for L=           0  read in
    real space projection operators read in
  non local Contribution for L=           0  read in
    real space projection operators read in
  non local Contribution for L=           1  read in
    real space projection operators read in
  non local Contribution for L=           1  read in
    real space projection operators read in
    PAW grid and wavefunctions read in
 
   number of l-projection  operators is LMAX  =           4
   number of lm-projection operators is LMMAX =           8
 
 Optimization of the real space projectors (new method)

 maximal supplied QI-value         = 16.25
 optimisation between [QCUT,QGAM] = [ 11.38, 22.75] = [ 36.24,144.96] Ry 
 Optimized for a Real-space Cutoff    1.47 Angstroem

   l    n(q)    QCUT    max X(q) W(low)/X(q) W(high)/X(q)  e(spline) 
   2      9    11.376    60.317    0.17E-03    0.16E-04    0.16E-06
   2      9    11.376    55.921    0.17E-03    0.16E-04    0.17E-06
   0     10    11.376    51.690    0.45E-04    0.60E-04    0.21E-06
   0     10    11.376    30.015    0.37E-04    0.55E-04    0.19E-06
   1     10    11.376    18.849    0.83E-04    0.11E-03    0.92E-07
   1     10    11.376    14.624    0.69E-04    0.92E-04    0.82E-07
 Optimization of the real space projectors (new method)

 maximal supplied QI-value         = 24.76
 optimisation between [QCUT,QGAM] = [ 11.39, 22.77] = [ 36.31,145.25] Ry 
 Optimized for a Real-space Cutoff    1.10 Angstroem

   l    n(q)    QCUT    max X(q) W(low)/X(q) W(high)/X(q)  e(spline) 
   0      7    11.387    20.381    0.22E-03    0.48E-03    0.18E-06
   0      7    11.387    15.268    0.22E-03    0.52E-03    0.19E-06
   1      7    11.387     5.964    0.22E-03    0.73E-03    0.24E-06
   1      7    11.387     5.382    0.19E-03    0.60E-03    0.21E-06

 ----------------------------------------------------------------------------- 
|                                                                             |
|  ADVICE TO THIS USER RUNNING 'VASP/VAMP'   (HEAR YOUR MASTER'S VOICE ...):  |
|                                                                             |
|      You enforced a specific xc-type in the INCAR file,                     |
|      a different type was found on the POTCAR file                          |
|          I HOPE YOU KNOW, WHAT YOU ARE  DOING                               |
|                                                                             |
 ----------------------------------------------------------------------------- 

  PAW_PBE Ni 02Aug2007                  :
 energy of atom  1       EATOM=-1077.6739
 kinetic energy error for atom=    0.0030 (will be added to EATOM!!)
  PAW_PBE O 08Apr2002                   :
 energy of atom  2       EATOM= -432.3788
 kinetic energy error for atom=    0.0224 (will be added to EATOM!!)
 
 
 POSCAR: NiO2_C2_m_scale_1_000_disp_0_08_round_1 
  positions in direct lattice
  No initial velocities read in
 exchange correlation table for  LEXCH =       14
   RHO(1)=    0.500       N(1)  =     2000
   RHO(2)=  100.500       N(2)  =     4000
 


--------------------------------------------------------------------------------------------------------


 ion  position               nearest neighbor table
   1  0.011  0.997  0.005-  27 1.72  51 1.83  46 1.84  54 1.84  19 1.84  22 1.85   7 2.67  17 2.68
                             9 2.69   5 2.77   3 2.89  13 2.96
   2  0.005  0.002  0.500-  21 1.82  29 1.87  44 1.89  52 1.90  53 1.94  20 1.99  10 2.71   4 2.78
                             6 2.79   8 2.79  18 2.80  14 2.80
   3  1.000  0.336  0.007-  23 1.80  43 1.81  19 1.84  46 1.89  50 1.90  26 1.97  15 2.69   5 2.72
                            13 2.73   9 2.83   1 2.89  11 2.89
   4  0.015  0.340  0.503-  24 1.79  21 1.79  25 1.86  44 1.88  48 1.88  45 2.09  10 2.48  12 2.70
                             2 2.78  14 2.80   6 2.80  16 2.83
   5  0.989  0.656  0.011-  23 1.73  30 1.80  50 1.82  47 1.90  27 1.93  54 2.10  17 2.60  15 2.65
                             3 2.72   1 2.77  11 2.83   7 2.84
   6  0.993  0.664  0.497-  49 1.70  48 1.80  52 1.83  25 1.83  28 1.93  29 1.93  18 2.68   2 2.79
                             4 2.80  12 2.82  16 2.82   8 2.86
   7  0.328  0.994  0.995-  34 1.73  27 1.84  39 1.86  22 1.88  30 1.90  31 2.00  11 2.65   1 2.67
                             9 2.72  13 2.75   5 2.84  15 2.88
   8  0.339  0.002  0.496-  20 1.72  33 1.78  41 1.82  28 1.83  32 1.85  29 2.01  16 2.69  14 2.77
                            12 2.77   2 2.79   6 2.86  10 2.95
   9  0.330  0.320  0.004-  19 1.71  38 1.72  22 1.78  31 1.82  26 1.87  35 2.07   1 2.69   7 2.72
                             3 2.83  15 2.84  17 3.00  11 3.02
  10  0.312  0.341  0.492-  24 1.79  21 1.85  37 1.90  20 1.93  36 2.03  33 2.08   4 2.48  12 2.65
                             2 2.71  18 2.88   8 2.95  16 3.07
  11  0.341  0.686  0.022-  39 1.61  35 1.88  23 1.91  42 1.94  26 1.98  30 1.99   7 2.65  13 2.75
                             5 2.83   3 2.89  17 2.95   9 3.02
  12  0.332  0.668  0.504-  28 1.82  41 1.83  37 1.85  25 1.86  40 1.88  24 1.95  10 2.65   4 2.70
                             8 2.77   6 2.82  18 2.87  14 2.87
  13  0.667  0.017  0.004-  39 1.78  43 1.78  34 1.79  51 1.79  42 1.91  46 1.99  15 2.61   3 2.73
                             7 2.75  11 2.75  17 2.93   1 2.96
  14  0.674  0.011  0.490-  32 1.72  44 1.75  41 1.79  40 1.90  45 1.96  53 2.00  16 2.59   8 2.77
                             4 2.80   2 2.80  12 2.87  18 2.89
  15  0.677  0.334  1.000-  43 1.79  50 1.81  47 1.89  34 1.94  31 1.94  38 2.01  13 2.61   5 2.65
                             3 2.69  17 2.83   9 2.84   7 2.88
  16  0.666  0.317  0.505-  45 1.78  32 1.78  33 1.79  49 1.90  48 1.91  36 1.99  14 2.59   8 2.69
                             6 2.82   4 2.83  18 2.88  10 3.07
  17  0.690  0.678  0.010-  54 1.67  47 1.71  51 1.80  42 1.82  35 1.87  38 2.08   5 2.60   1 2.68
                            15 2.83  13 2.93  11 2.95   9 3.00
  18  0.673  0.665  0.503-  52 1.70  53 1.80  36 1.82  40 1.83  49 1.84  37 1.92   6 2.68   2 2.80
                            12 2.87  10 2.88  16 2.88  14 2.89
  19  0.121  0.226  0.090-   9 1.71   1 1.84   3 1.84
  20  0.246  0.111  0.398-   8 1.72  10 1.93   2 1.99
  21  0.102  0.215  0.603-   4 1.79   2 1.82  10 1.85
  22  0.224  0.116  0.896-   9 1.78   1 1.85   7 1.88
  23  0.097  0.554  0.100-   5 1.73   3 1.80  11 1.91
  24  0.210  0.445  0.386-  10 1.79   4 1.79  12 1.95
  25  0.107  0.562  0.601-   6 1.83   4 1.86  12 1.86
  26  0.240  0.456  0.907-   9 1.87   3 1.97  11 1.98
  27  0.113  0.895  0.101-   1 1.72   7 1.84   5 1.93
  28  0.230  0.780  0.402-  12 1.82   8 1.83   6 1.93
  29  0.104  0.887  0.612-   2 1.87   6 1.93   8 2.01
  30  0.194  0.762  0.901-   5 1.80   7 1.90  11 1.99
  31  0.449  0.228  0.110-   9 1.82  15 1.94   7 2.00
  32  0.564  0.110  0.402-  14 1.72  16 1.78   8 1.85
  33  0.444  0.216  0.591-   8 1.78  16 1.79  10 2.08
  34  0.537  0.097  0.904-   7 1.73  13 1.79  15 1.94
  35  0.463  0.572  0.108-  17 1.87  11 1.88   9 2.07
  36  0.565  0.452  0.398-  18 1.82  16 1.99  10 2.03
  37  0.444  0.558  0.605-  12 1.85  10 1.90  18 1.92
  38  0.528  0.431  0.901-   9 1.72  15 2.01  17 2.08
  39  0.449  0.890  0.091-  11 1.61  13 1.78   7 1.86
  40  0.559  0.771  0.406-  18 1.83  12 1.88  14 1.90
  41  0.459  0.898  0.585-  14 1.79   8 1.82  12 1.83
  42  0.571  0.780  0.915-  17 1.82  13 1.91  11 1.94
  43  0.781  0.229  0.102-  13 1.78  15 1.79   3 1.81
  44  0.888  0.115  0.401-  14 1.75   4 1.88   2 1.89
  45  0.769  0.224  0.622-  16 1.78  14 1.96   4 2.09
  46  0.909  0.113  0.904-   1 1.84   3 1.89  13 1.99
  47  0.759  0.552  0.110-  17 1.71  15 1.89   5 1.90
  48  0.895  0.446  0.404-   6 1.80   4 1.88  16 1.91
  49  0.792  0.555  0.591-   6 1.70  18 1.84  16 1.90
  50  0.890  0.449  0.898-  15 1.81   5 1.82   3 1.90
  51  0.781  0.906  0.085-  13 1.79  17 1.80   1 1.83
  52  0.874  0.769  0.408-  18 1.70   6 1.83   2 1.90
  53  0.773  0.877  0.604-  18 1.80   2 1.94  14 2.00
  54  0.869  0.788  0.898-  17 1.67   1 1.84   5 2.10
 
  LATTYP: Found a hexagonal cell.
 ALAT       =     8.3628700013
 C/A-ratio  =     1.1065328050
  
  Lattice vectors:
  
 A1 = (   8.3628700000,   0.0000000000,   0.0000000000)
 A2 = (  -4.1814350000,   7.2424578700,   0.0000000000)
 A3 = (   0.0000000000,   0.0000000000,   9.2537900000)


Analysis of symmetry for initial positions (statically):
=====================================================================
 Subroutine PRICEL returns:
 Original cell was already a primitive cell.
 

 Routine SETGRP: Setting up the symmetry group for a 
 hexagonal supercell.


 Subroutine GETGRP returns: Found  1 space group operations
 (whereof  1 operations were pure point group operations)
 out of a pool of 24 trial point group operations.


The static configuration has the point symmetry C_1 .


Analysis of symmetry for dynamics (positions and initial velocities):
=====================================================================
 Subroutine PRICEL returns:
 Original cell was already a primitive cell.
 

 Routine SETGRP: Setting up the symmetry group for a 
 hexagonal supercell.


 Subroutine GETGRP returns: Found  1 space group operations
 (whereof  1 operations were pure point group operations)
 out of a pool of 24 trial point group operations.


The dynamic configuration has the point symmetry C_1 .


 Subroutine INISYM returns: Found  1 space group operations
 (whereof  1 operations are pure point group operations),
 and found     1 'primitive' translations

 
 
 KPOINTS: Automatic mesh                          

Automatic generation of k-mesh.
Space group operators:
 irot       det(A)        alpha          n_x          n_y          n_z        tau_x        tau_y        tau_z
    1     1.000000     0.000000     1.000000     0.000000     0.000000     0.000000     0.000000     0.000000
 
 Subroutine IBZKPT returns following result:
 ===========================================
 
 Found     26 irreducible k-points:
 
 Following reciprocal coordinates:
            Coordinates               Weight
  0.000000  0.000000  0.000000      1.000000
  0.250000  0.000000  0.000000      2.000000
  0.500000  0.000000  0.000000      1.000000
  0.000000  0.250000  0.000000      2.000000
  0.250000  0.250000  0.000000      2.000000
  0.500000  0.250000  0.000000      2.000000
 -0.250000  0.250000  0.000000      2.000000
  0.000000  0.500000  0.000000      1.000000
  0.250000  0.500000  0.000000      2.000000
  0.500000  0.500000  0.000000      1.000000
  0.000000  0.000000  0.333333      2.000000
  0.250000  0.000000  0.333333      2.000000
  0.500000  0.000000  0.333333      2.000000
 -0.250000  0.000000  0.333333      2.000000
  0.000000  0.250000  0.333333      2.000000
  0.250000  0.250000  0.333333      2.000000
  0.500000  0.250000  0.333333      2.000000
 -0.250000  0.250000  0.333333      2.000000
  0.000000  0.500000  0.333333      2.000000
  0.250000  0.500000  0.333333      2.000000
  0.500000  0.500000  0.333333      2.000000
 -0.250000  0.500000  0.333333      2.000000
  0.000000 -0.250000  0.333333      2.000000
  0.250000 -0.250000  0.333333      2.000000
  0.500000 -0.250000  0.333333      2.000000
 -0.250000 -0.250000  0.333333      2.000000
 
 Following cartesian coordinates:
            Coordinates               Weight
  0.000000  0.000000  0.000000      1.000000
  0.029894  0.017259  0.000000      2.000000
  0.059788  0.034519  0.000000      1.000000
  0.000000  0.034519  0.000000      2.000000
  0.029894  0.051778  0.000000      2.000000
  0.059788  0.069037  0.000000      2.000000
 -0.029894  0.017259  0.000000      2.000000
  0.000000  0.069037  0.000000      1.000000
  0.029894  0.086297  0.000000      2.000000
  0.059788  0.103556  0.000000      1.000000
  0.000000  0.000000  0.036021      2.000000
  0.029894  0.017259  0.036021      2.000000
  0.059788  0.034519  0.036021      2.000000
 -0.029894 -0.017259  0.036021      2.000000
  0.000000  0.034519  0.036021      2.000000
  0.029894  0.051778  0.036021      2.000000
  0.059788  0.069037  0.036021      2.000000
 -0.029894  0.017259  0.036021      2.000000
  0.000000  0.069037  0.036021      2.000000
  0.029894  0.086297  0.036021      2.000000
  0.059788  0.103556  0.036021      2.000000
 -0.029894  0.051778  0.036021      2.000000
  0.000000 -0.034519  0.036021      2.000000
  0.029894 -0.017259  0.036021      2.000000
  0.059788  0.000000  0.036021      2.000000
 -0.029894 -0.051778  0.036021      2.000000
 


--------------------------------------------------------------------------------------------------------




 Dimension of arrays:
   k-points           NKPTS =     26   k-points in BZ     NKDIM =     26   number of bands    NBANDS=    240
   number of dos      NEDOS =    301   number of ions     NIONS =     54
   non local maximal  LDIM  =      6   non local SUM 2l+1 LMDIM =     18
   total plane-waves  NPLWV = 286720
   max r-space proj   IRMAX =   6918   max aug-charges    IRDMAX=  16780
   dimension x,y,z NGX =    64 NGY =   64 NGZ =   70
   dimension x,y,z NGXF=   128 NGYF=  128 NGZF=  140
   support grid    NGXF=   128 NGYF=  128 NGZF=  140
   ions per type =              18  36
   NGX,Y,Z   is equivalent  to a cutoff of  12.72, 12.72, 12.58 a.u.
   NGXF,Y,Z  is equivalent  to a cutoff of  25.45, 25.45, 25.15 a.u.

 SYSTEM =  unknown system                          
 POSCAR =  NiO2_C2_m_scale_1_000_disp_0_08_round_1 

 Startparameter for this run:
   NWRITE =      1    write-flag & timer
   PREC   = accura    normal or accurate (medium, high low for compatibility)
   ISTART =      0    job   : 0-new  1-cont  2-samecut
   ICHARG =      2    charge: 1-file 2-atom 10-const
   ISPIN  =      1    spin polarized calculation?
   LNONCOLLINEAR =      F non collinear calculations
   LSORBIT =      F    spin-orbit coupling
   INIWAV =      1    electr: 0-lowe 1-rand  2-diag
   LASPH  =      F    aspherical Exc in radial PAW
   METAGGA=      F    non-selfconsistent MetaGGA calc.

 Electronic Relaxation 1
   ENCUT  =  500.0 eV  36.75 Ry    6.06 a.u.  15.25 15.25 16.87*2*pi/ulx,y,z
   ENINI  =  500.0     initial cutoff
   ENAUG  =  605.4 eV  augmentation charge cutoff
   NELM   =    120;   NELMIN=  2; NELMDL= -5     # of ELM steps 
   EDIFF  = 0.1E-04   stopping-criterion for ELM
   LREAL  =      T    real-space projection
   NLSPLINE    = F    spline interpolate recip. space projectors
   LCOMPAT=      F    compatible to vasp.4.4
   GGA_COMPAT  = T    GGA compatible to vasp.4.4-vasp.4.6
   LMAXPAW     = -100 max onsite density
   LMAXMIX     =    2 max onsite mixed and CHGCAR
   VOSKOWN=      1    Vosko Wilk Nusair interpolation
   ROPT   =   -0.00025  -0.00025
 Ionic relaxation
   EDIFFG = 0.1E-03   stopping-criterion for IOM
   NSW    =      0    number of steps for IOM
   NBLOCK =      1;   KBLOCK =      1    inner block; outer block 
   IBRION =     -1    ionic relax: 0-MD 1-quasi-New 2-CG
   NFREE  =      0    steps in history (QN), initial steepest desc. (CG)
   ISIF   =      2    stress and relaxation
   IWAVPR =     10    prediction:  0-non 1-charg 2-wave 3-comb
   ISYM   =      2    0-nonsym 1-usesym 2-fastsym
   LCORR  =      T    Harris-Foulkes like correction to forces

   POTIM  = 0.5000    time-step for ionic-motion
   TEIN   =    0.0    initial temperature
   TEBEG  =    0.0;   TEEND  =   0.0 temperature during run
   SMASS  =  -3.00    Nose mass-parameter (am)
   estimated Nose-frequenzy (Omega)   =  0.10E-29 period in steps =****** mass=  -0.160E-26a.u.
   SCALEE = 1.0000    scale energy and forces
   NPACO  =    256;   APACO  = 16.0  distance and # of slots for P.C.
   PSTRESS=    0.0 pullay stress

  Mass of Ions in am
   POMASS =  58.69 16.00
  Ionic Valenz
   ZVAL   =  10.00  6.00
  Atomic Wigner-Seitz radii
   RWIGS  =   1.15  0.73
  virtual crystal weights 
   VCA    =   1.00  1.00
   NELECT =     396.0000    total number of electrons
   NUPDOWN=      -1.0000    fix difference up-down

 DOS related values:
   EMIN   =  10.00;   EMAX   =-10.00  energy-range for DOS
   EFERMI =   0.00
   ISMEAR =     0;   SIGMA  =   0.05  broadening in eV -4-tet -1-fermi 0-gaus

 Electronic relaxation 2 (details)
   IALGO  =     38    algorithm
   LDIAG  =      T    sub-space diagonalisation (order eigenvalues)
   LSUBROT=      F    optimize rotation matrix (better conditioning)
   TURBO    =      0    0=normal 1=particle mesh
   IRESTART =      0    0=no restart 2=restart with 2 vectors
   NREBOOT  =      0    no. of reboots
   NMIN     =      0    reboot dimension
   EREF     =   0.00    reference energy to select bands
   IMIX   =      4    mixing-type and parameters
     AMIX     =   0.40;   BMIX     =  1.00
     AMIX_MAG =   1.60;   BMIX_MAG =  1.00
     AMIN     =   0.10
     WC   =   100.;   INIMIX=   1;  MIXPRE=   1;  MAXMIX= -45

 Intra band minimization:
   WEIMIN = 0.0000     energy-eigenvalue tresh-hold
   EBREAK =  0.10E-07  absolut break condition
   DEPER  =   0.30     relativ break condition  

   TIME   =   0.40     timestep for ELM

  volume/ion in A,a.u.               =      10.38        70.04
  Fermi-wavevector in a.u.,A,eV,Ry     =   1.458096  2.755403 28.926600  2.126045
  Thomas-Fermi vector in A             =   2.574821
 
 Write flags
   LWAVE        =      F    write WAVECAR
   LDOWNSAMPLE  =      F    k-point downsampling of WAVECAR
   LCHARG       =      T    write CHGCAR
   LVTOT        =      F    write LOCPOT, total local potential
   LVHAR        =      F    write LOCPOT, Hartree potential only
   LELF         =      F    write electronic localiz. function (ELF)
   LORBIT       =      0    0 simple, 1 ext, 2 COOP (PROOUT), +10 PAW based schemes


 Dipole corrections
   LMONO  =      F    monopole corrections only (constant potential shift)
   LDIPOL =      F    correct potential (dipole corrections)
   IDIPOL =      0    1-x, 2-y, 3-z, 4-all directions 
   EPSILON=  1.0000000 bulk dielectric constant

 Exchange correlation treatment:
   GGA     =    PS    GGA type
   LEXCH   =    14    internal setting for exchange type
   VOSKOWN=      1    Vosko Wilk Nusair interpolation
   LHFCALC =     F    Hartree Fock is set to
   LHFONE  =     F    Hartree Fock one center treatment
   AEXX    =    0.0000 exact exchange contribution

 Linear response parameters
   LEPSILON=     F    determine dielectric tensor
   LRPA    =     F    only Hartree local field effects (RPA)
   LNABLA  =     F    use nabla operator in PAW spheres
   LVEL    =     F    velocity operator in full k-point grid
   LINTERFAST=   F  fast interpolation
   KINTER  =     0    interpolate to denser k-point grid
   CSHIFT  =0.1000    complex shift for real part using Kramers Kronig
   OMEGAMAX=  -1.0    maximum frequency
   DEG_THRESHOLD= 0.2000000E-02 threshold for treating states as degnerate
   RTIME   =   -0.100 relaxation time in fs
  (WPLASMAI=    0.000 imaginary part of plasma frequency in eV, 0.658/RTIME)
   DFIELD  = 0.0000000 0.0000000 0.0000000 field for delta impulse in time
 
 Orbital magnetization related:
   ORBITALMAG=     F  switch on orbital magnetization
   LCHIMAG   =     F  perturbation theory with respect to B field
   DQ        =  0.001000  dq finite difference perturbation B field
   LLRAUG    =     F  two centre corrections for induced B field



--------------------------------------------------------------------------------------------------------


 Static calculation
 charge density and potential will be updated during run
 non-spin polarized calculation
 Variant of blocked Davidson
 Davidson routine will perform the subspace rotation
 perform sub-space diagonalisation
    after iterative eigenvector-optimisation
 modified Broyden-mixing scheme, WC =      100.0
 initial mixing is a Kerker type mixing with AMIX =  0.4000 and BMIX =      1.0000
 Hartree-type preconditioning will be used
 using additional bands           42
 real space projection scheme for non local part
 use partial core corrections
 calculate Harris-corrections to forces 
   (improved forces if not selfconsistent)
 use gradient corrections 
 use of overlap-Matrix (Vanderbilt PP)
 Gauss-broadening in eV      SIGMA  =   0.05


--------------------------------------------------------------------------------------------------------


  energy-cutoff  :      500.00
  volume of cell :      560.48
      direct lattice vectors                 reciprocal lattice vectors
     8.362870000  0.000000000  0.000000000     0.119576174  0.069037336  0.000000000
    -4.181435000  7.242457870  0.000000000     0.000000000  0.138074673  0.000000000
     0.000000000  0.000000000  9.253790000     0.000000000  0.000000000  0.108063831

  length of vectors
     8.362870000  8.362870001  9.253790000     0.138074673  0.138074673  0.108063831


 
 k-points in units of 2pi/SCALE and weight: Automatic mesh                          
   0.00000000  0.00000000  0.00000000       0.021
   0.02989404  0.01725933  0.00000000       0.042
   0.05978809  0.03451867  0.00000000       0.021
   0.00000000  0.03451867  0.00000000       0.042
   0.02989404  0.05177800  0.00000000       0.042
   0.05978809  0.06903734  0.00000000       0.042
  -0.02989404  0.01725933  0.00000000       0.042
   0.00000000  0.06903734  0.00000000       0.021
   0.02989404  0.08629667  0.00000000       0.042
   0.05978809  0.10355600  0.00000000       0.021
   0.00000000  0.00000000  0.03602128       0.042
   0.02989404  0.01725933  0.03602128       0.042
   0.05978809  0.03451867  0.03602128       0.042
  -0.02989404 -0.01725933  0.03602128       0.042
   0.00000000  0.03451867  0.03602128       0.042
   0.02989404  0.05177800  0.03602128       0.042
   0.05978809  0.06903734  0.03602128       0.042
  -0.02989404  0.01725933  0.03602128       0.042
   0.00000000  0.06903734  0.03602128       0.042
   0.02989404  0.08629667  0.03602128       0.042
   0.05978809  0.10355600  0.03602128       0.042
  -0.02989404  0.05177800  0.03602128       0.042
   0.00000000 -0.03451867  0.03602128       0.042
   0.02989404 -0.01725933  0.03602128       0.042
   0.05978809  0.00000000  0.03602128       0.042
  -0.02989404 -0.05177800  0.03602128       0.042
 
 k-points in reciprocal lattice and weights: Automatic mesh                          
   0.00000000  0.00000000  0.00000000       0.021
   0.25000000  0.00000000  0.00000000       0.042
   0.50000000  0.00000000  0.00000000       0.021
   0.00000000  0.25000000  0.00000000       0.042
   0.25000000  0.25000000  0.00000000       0.042
   0.50000000  0.25000000  0.00000000       0.042
  -0.25000000  0.25000000  0.00000000       0.042
   0.00000000  0.50000000  0.00000000       0.021
   0.25000000  0.50000000  0.00000000       0.042
   0.50000000  0.50000000  0.00000000       0.021
   0.00000000  0.00000000  0.33333333       0.042
   0.25000000  0.00000000  0.33333333       0.042
   0.50000000  0.00000000  0.33333333       0.042
  -0.25000000  0.00000000  0.33333333       0.042
   0.00000000  0.25000000  0.33333333       0.042
   0.25000000  0.25000000  0.33333333       0.042
   0.50000000  0.25000000  0.33333333       0.042
  -0.25000000  0.25000000  0.33333333       0.042
   0.00000000  0.50000000  0.33333333       0.042
   0.25000000  0.50000000  0.33333333       0.042
   0.50000000  0.50000000  0.33333333       0.042
  -0.25000000  0.50000000  0.33333333       0.042
   0.00000000 -0.25000000  0.33333333       0.042
   0.25000000 -0.25000000  0.33333333       0.042
   0.50000000 -0.25000000  0.33333333       0.042
  -0.25000000 -0.25000000  0.33333333       0.042
 
 position of ions in fractional coordinates (direct lattice) 
   0.01062170  0.99664696  0.00535198
   0.00502203  0.00246773  0.49953023
   0.99962618  0.33601232  0.00709812
   0.01473228  0.33950966  0.50325698
   0.98906667  0.65553915  0.01060048
   0.99340411  0.66362702  0.49748217
   0.32824042  0.99436272  0.99528104
   0.33879848  0.00216048  0.49638933
   0.33022756  0.31992709  0.00363023
   0.31224412  0.34131692  0.49225899
   0.34119285  0.68565951  0.02223407
   0.33193029  0.66757037  0.50394499
   0.66703583  0.01686448  0.00382559
   0.67423240  0.01101089  0.49007920
   0.67709211  0.33395765  0.99982172
   0.66603300  0.31652676  0.50536775
   0.68957330  0.67786018  0.00985418
   0.67317032  0.66461949  0.50255055
   0.12103060  0.22644400  0.08962866
   0.24579832  0.11071356  0.39756106
   0.10161385  0.21528063  0.60318584
   0.22395579  0.11561851  0.89588285
   0.09700294  0.55357230  0.09970678
   0.21045850  0.44530862  0.38578451
   0.10697969  0.56195373  0.60139117
   0.24014966  0.45569524  0.90708081
   0.11299444  0.89542207  0.10070868
   0.23021153  0.78008027  0.40172671
   0.10351198  0.88709942  0.61194759
   0.19435022  0.76201753  0.90131340
   0.44902829  0.22843620  0.10996089
   0.56401437  0.10962038  0.40173781
   0.44448319  0.21607728  0.59139004
   0.53675576  0.09710495  0.90418487
   0.46331617  0.57221813  0.10761005
   0.56452215  0.45241976  0.39821976
   0.44352681  0.55807630  0.60510349
   0.52794779  0.43065720  0.90143977
   0.44872499  0.88975110  0.09144204
   0.55868879  0.77123908  0.40588383
   0.45915033  0.89802336  0.58517955
   0.57100144  0.77994358  0.91541253
   0.78148379  0.22889569  0.10184280
   0.88812109  0.11515191  0.40137377
   0.76850650  0.22353970  0.62151972
   0.90872020  0.11254238  0.90420807
   0.75947963  0.55224365  0.10951877
   0.89462534  0.44644549  0.40389173
   0.79151798  0.55520415  0.59123411
   0.89042791  0.44910406  0.89814308
   0.78122946  0.90592500  0.08483286
   0.87367517  0.76894816  0.40756274
   0.77260713  0.87653002  0.60445240
   0.86926924  0.78759179  0.89806767
 
 position of ions in cartesian coordinates  (Angst):
  -4.07858658  7.21817362  0.04952610
   0.03167993  0.01787243  4.62254785
   6.95473012  2.43355507  0.06568451
  -1.29643343  2.45888441  4.65703441
   5.53034164  4.74771468  0.09809462
   5.53279618  4.80629073  4.60359553
  -1.41283112  7.20163011  9.21012174
   2.82429374  0.01564719  4.59348262
   1.42389582  2.31705847  0.03359339
   1.18406247  2.47197341  4.55526132
  -0.01368922  4.96586011  0.20574941
  -0.01551225  4.83485028  4.66340111
   5.50781620  0.12214029  0.03540121
   5.59247659  0.07974591  4.53509000
   4.26601109  2.41867421  9.25214023
   4.24641132  2.29243172  4.67656703
   2.93238358  4.90937380  0.09118851
   2.85057268  4.81347866  4.65049725
   0.06530231  1.64001113  0.82940480
   1.59263784  0.80183829  3.67894656
  -0.05039854  1.55916089  5.58175509
   1.38946187  0.83736219  8.29031176
  -1.50350361  4.00922406  0.92266560
  -0.10199197  3.22512892  3.56996884
  -1.45511575  4.06992621  5.56514760
   0.10288036  3.30035358  8.39393533
  -2.79919137  6.48505662  0.93193698
  -1.33662585  5.64969849  3.71749461
  -2.84369133  6.42478018  5.66283449
  -1.56100115  5.51887986  8.34056493
   2.79997409  1.65443955  1.01755498
   4.25840836  0.79392098  3.71759733
   2.81364203  1.56493060  5.47259924
   4.08278061  0.70327851  8.36713691
   1.48195998  4.14426570  0.99580080
   2.82926153  3.27663105  3.68504203
   1.37559728  4.04184409  5.59950062
   2.61439365  3.11901663  8.34173433
   0.03219237  6.44398486  0.84618544
   1.44735564  5.58566654  3.75596373
   0.08478821  6.50389635  5.41512867
   1.51392743  5.64870852  8.47103532
   5.57833489  1.65776739  0.94243188
   6.94574099  0.83398286  3.71422858
   5.49220323  1.61897686  5.75141297
   7.12892025  0.81508345  8.36735160
   4.04225849  3.99960137  1.01346370
   5.61485262  3.23336265  3.73752925
   4.29781190  4.02104267  5.47115629
   5.56863342  3.25261723  8.31122745
   2.74525391  6.56112365  0.78502547
   4.09112512  5.56907465  3.77150001
   2.79605969  6.34823174  5.59347557
   3.97632177  5.70410036  8.31052962
 


--------------------------------------------------------------------------------------------------------


 k-point  1 :   0.0000 0.0000 0.0000  plane waves:   14241
 k-point  2 :   0.2500 0.0000 0.0000  plane waves:   14190
 k-point  3 :   0.5000 0.0000 0.0000  plane waves:   14218
 k-point  4 :   0.0000 0.2500 0.0000  plane waves:   14190
 k-point  5 :   0.2500 0.2500 0.0000  plane waves:   14239
 k-point  6 :   0.5000 0.2500 0.0000  plane waves:   14239
 k-point  7 :  -0.2500 0.2500 0.0000  plane waves:   14190
 k-point  8 :   0.0000 0.5000 0.0000  plane waves:   14218
 k-point  9 :   0.2500 0.5000 0.0000  plane waves:   14239
 k-point 10 :   0.5000 0.5000 0.0000  plane waves:   14218
 k-point 11 :   0.0000 0.0000 0.3333  plane waves:   14206
 k-point 12 :   0.2500 0.0000 0.3333  plane waves:   14238
 k-point 13 :   0.5000 0.0000 0.3333  plane waves:   14242
 k-point 14 :  -0.2500 0.0000 0.3333  plane waves:   14238
 k-point 15 :   0.0000 0.2500 0.3333  plane waves:   14238
 k-point 16 :   0.2500 0.2500 0.3333  plane waves:   14221
 k-point 17 :   0.5000 0.2500 0.3333  plane waves:   14221
 k-point 18 :  -0.2500 0.2500 0.3333  plane waves:   14238
 k-point 19 :   0.0000 0.5000 0.3333  plane waves:   14242
 k-point 20 :   0.2500 0.5000 0.3333  plane waves:   14221
 k-point 21 :   0.5000 0.5000 0.3333  plane waves:   14242
 k-point 22 :  -0.2500 0.5000 0.3333  plane waves:   14221
 k-point 23 :   0.0000-0.2500 0.3333  plane waves:   14238
 k-point 24 :   0.2500-0.2500 0.3333  plane waves:   14238
 k-point 25 :   0.5000-0.2500 0.3333  plane waves:   14221
 k-point 26 :  -0.2500-0.2500 0.3333  plane waves:   14221

 maximum and minimum number of plane-waves per node :     14242    14190

 maximum number of plane-waves:     14242
 maximum index in each direction: 
   IXMAX=   15   IYMAX=   15   IZMAX=   16
   IXMIN=  -15   IYMIN=  -15   IZMIN=  -17

 The following grids will avoid any aliasing or wrap around errors in the Hartre
 e energy
  - symmetry arguments have not been applied
  - exchange correlation energies might require even more grid points
  - we recommend to set PREC=Normal or Accurate and rely on VASP defaults
 NGX is ok and might be reduce to    64
 NGY is ok and might be reduce to    64
 NGZ is ok and might be reduce to    70

 serial   3D FFT for wavefunctions
 parallel 3D FFT for charge:
    minimum data exchange during FFTs selected (reduces bandwidth)


 total amount of memory used by VASP MPI-rank0   181713. kBytes
=======================================================================

   base      :      30000. kBytes
   nonlr-proj:      32321. kBytes
   fftplans  :       6058. kBytes
   grid      :      19644. kBytes
   one-center:        839. kBytes
   wavefun   :      92851. kBytes
 
     INWAV:  cpu time    0.0000: real time    0.0000
 Broyden mixing: mesh for mixing (old mesh)
   NGX = 31   NGY = 31   NGZ = 33
  (NGX  =128   NGY  =128   NGZ  =140)
  gives a total of  31713 points

 initial charge density was supplied:
 charge density of overlapping atoms calculated
 number of electron     396.0000000 magnetization 
 keeping initial charge density in first step


--------------------------------------------------------------------------------------------------------


 Maximum index for non-local projection operator         6681
 Maximum index for augmentation-charges         1095 (set IRDMAX)


--------------------------------------------------------------------------------------------------------


 First call to EWALD:  gamma=   0.215
 Maximum number of real-space cells 3x 3x 3
 Maximum number of reciprocal cells 3x 3x 3

    FEWALD:  cpu time    0.0028: real time    0.0028


--------------------------------------- Iteration      1(   1)  ---------------------------------------


    POTLOK:  cpu time    0.0938: real time    0.0993
    SETDIJ:  cpu time    0.0092: real time    0.0092
     EDDAV:  cpu time   35.6492: real time   35.7337
    --------------------------------------------
      LOOP:  cpu time   35.7538: real time   35.8439

 eigenvalue-minimisations  : 12480
 total energy-change (2. order) : 0.5313043E+04  (-0.1770890E+05)
 number of electron     396.0000000 magnetization 
 augmentation part      396.0000000 magnetization 

 Free energy of the ion-electron system (eV)
  ---------------------------------------------------
  alpha Z        PSCENC =      1237.65017714
  Ewald energy   TEWEN  =    -22195.58316277
  -Hartree energ DENC   =    -13672.80951821
  -exchange      EXHF   =         0.00000000
  -V(xc)+E(xc)   XCENC  =      1590.38063898
  PAW double counting   =     29784.60368500   -31040.73694357
  entropy T*S    EENTRO =        -0.00446842
  eigenvalues    EBANDS =      4719.16165066
  atomic energy  EATOM  =     34890.38139807
  Solvation  Ediel_sol  =         0.00000000
  ---------------------------------------------------
  free energy    TOTEN  =      5313.04345687 eV

  energy without entropy =     5313.04792529  energy(sigma->0) =     5313.04569108


--------------------------------------------------------------------------------------------------------




--------------------------------------- Iteration      1(   2)  ---------------------------------------


     EDDAV:  cpu time   36.8153: real time   36.9126
    --------------------------------------------
      LOOP:  cpu time   36.8155: real time   36.9127

 eigenvalue-minimisations  : 13008
 total energy-change (2. order) :-0.4608985E+04  (-0.4285589E+04)
 number of electron     396.0000000 magnetization 
 augmentation part      396.0000000 magnetization 

 Free energy of the ion-electron system (eV)
  ---------------------------------------------------
  alpha Z        PSCENC =      1237.65017714
  Ewald energy   TEWEN  =    -22195.58316277
  -Hartree energ DENC   =    -13672.80951821
  -exchange      EXHF   =         0.00000000
  -V(xc)+E(xc)   XCENC  =      1590.38063898
  PAW double counting   =     29784.60368500   -31040.73694357
  entropy T*S    EENTRO =        -0.02843374
  eigenvalues    EBANDS =       110.20088278
  atomic energy  EATOM  =     34890.38139807
  Solvation  Ediel_sol  =         0.00000000
  ---------------------------------------------------
  free energy    TOTEN  =       704.05872367 eV

  energy without entropy =      704.08715741  energy(sigma->0) =      704.07294054


--------------------------------------------------------------------------------------------------------




--------------------------------------- Iteration      1(   3)  ---------------------------------------


     EDDAV:  cpu time   37.4713: real time   37.5601
    --------------------------------------------
      LOOP:  cpu time   37.4704: real time   37.5592

 eigenvalue-minimisations  : 13312
 total energy-change (2. order) :-0.1059705E+04  (-0.9278605E+03)
 number of electron     396.0000000 magnetization 
 augmentation part      396.0000000 magnetization 

 Free energy of the ion-electron system (eV)
  ---------------------------------------------------
  alpha Z        PSCENC =      1237.65017714
  Ewald energy   TEWEN  =    -22195.58316277
  -Hartree energ DENC   =    -13672.80951821
  -exchange      EXHF   =         0.00000000
  -V(xc)+E(xc)   XCENC  =      1590.38063898
  PAW double counting   =     29784.60368500   -31040.73694357
  entropy T*S    EENTRO =        -0.00000000
  eigenvalues    EBANDS =      -949.53253061
  atomic energy  EATOM  =     34890.38139807
  Solvation  Ediel_sol  =         0.00000000
  ---------------------------------------------------
  free energy    TOTEN  =      -355.64625597 eV

  energy without entropy =     -355.64625597  energy(sigma->0) =     -355.64625597


--------------------------------------------------------------------------------------------------------




--------------------------------------- Iteration      1(   4)  ---------------------------------------


     EDDAV:  cpu time   37.2220: real time   37.3101
    --------------------------------------------
      LOOP:  cpu time   37.2221: real time   37.3102

 eigenvalue-minimisations  : 13280
 total energy-change (2. order) :-0.1080673E+03  (-0.1059393E+03)
 number of electron     396.0000000 magnetization 
 augmentation part      396.0000000 magnetization 

 Free energy of the ion-electron system (eV)
  ---------------------------------------------------
  alpha Z        PSCENC =      1237.65017714
  Ewald energy   TEWEN  =    -22195.58316277
  -Hartree energ DENC   =    -13672.80951821
  -exchange      EXHF   =         0.00000000
  -V(xc)+E(xc)   XCENC  =      1590.38063898
  PAW double counting   =     29784.60368500   -31040.73694357
  entropy T*S    EENTRO =        -0.00000000
  eigenvalues    EBANDS =     -1057.59983536
  atomic energy  EATOM  =     34890.38139807
  Solvation  Ediel_sol  =         0.00000000
  ---------------------------------------------------
  free energy    TOTEN  =      -463.71356072 eV

  energy without entropy =     -463.71356072  energy(sigma->0) =     -463.71356072


--------------------------------------------------------------------------------------------------------




--------------------------------------- Iteration      1(   5)  ---------------------------------------


     EDDAV:  cpu time   39.2570: real time   39.3499
    CHARGE:  cpu time    1.7519: real time    1.7560
    MIXING:  cpu time    0.0027: real time    0.0027
    --------------------------------------------
      LOOP:  cpu time   41.0108: real time   41.1079

 eigenvalue-minimisations  : 14240
 total energy-change (2. order) :-0.3370470E+01  (-0.3364168E+01)
 number of electron     396.0000047 magnetization 
 augmentation part      113.1803344 magnetization 

 Broyden mixing:
  rms(total) = 0.12420E+02    rms(broyden)= 0.12417E+02
  rms(prec ) = 0.15203E+02
  weight for this iteration     100.00

 Free energy of the ion-electron system (eV)
  ---------------------------------------------------
  alpha Z        PSCENC =      1237.65017714
  Ewald energy   TEWEN  =    -22195.58316277
  -Hartree energ DENC   =    -13672.80951821
  -exchange      EXHF   =         0.00000000
  -V(xc)+E(xc)   XCENC  =      1590.38063898
  PAW double counting   =     29784.60368500   -31040.73694357
  entropy T*S    EENTRO =        -0.00000000
  eigenvalues    EBANDS =     -1060.97030498
  atomic energy  EATOM  =     34890.38139807
  Solvation  Ediel_sol  =         0.00000000
  ---------------------------------------------------
  free energy    TOTEN  =      -467.08403035 eV

  energy without entropy =     -467.08403035  energy(sigma->0) =     -467.08403035


--------------------------------------------------------------------------------------------------------




--------------------------------------- Iteration      1(   6)  ---------------------------------------


    POTLOK:  cpu time    0.0747: real time    0.0749
    SETDIJ:  cpu time    0.0092: real time    0.0092
     EDDAV:  cpu time   50.4957: real time   50.6154
    CHARGE:  cpu time    1.8017: real time    1.8060
    MIXING:  cpu time    0.0025: real time    0.0025
    --------------------------------------------
      LOOP:  cpu time   52.3838: real time   52.5080

 eigenvalue-minimisations  : 19232
 total energy-change (2. order) :-0.1031508E+03  (-0.1129295E+03)
 number of electron     396.0000048 magnetization 
 augmentation part      155.3180130 magnetization 

 Broyden mixing:
  rms(total) = 0.20907E+02    rms(broyden)= 0.20905E+02
  rms(prec ) = 0.23532E+02
  weight for this iteration     100.00

 eigenvalues of (default mixing * dielectric matrix)
  average eigenvalue GAMMA=   0.2037
  0.2037

 Free energy of the ion-electron system (eV)
  ---------------------------------------------------
  alpha Z        PSCENC =      1237.65017714
  Ewald energy   TEWEN  =    -22195.58316277
  -Hartree energ DENC   =    -12974.47170357
  -exchange      EXHF   =         0.00000000
  -V(xc)+E(xc)   XCENC  =      1586.52866961
  PAW double counting   =     33243.59310715   -34291.71604207
  entropy T*S    EENTRO =        -0.03509033
  eigenvalues    EBANDS =     -2066.58219800
  atomic energy  EATOM  =     34890.38139807
  Solvation  Ediel_sol  =         0.00000000
  ---------------------------------------------------
  free energy    TOTEN  =      -570.23484476 eV

  energy without entropy =     -570.19975444  energy(sigma->0) =     -570.21729960


--------------------------------------------------------------------------------------------------------




--------------------------------------- Iteration      1(   7)  ---------------------------------------


    POTLOK:  cpu time    0.0739: real time    0.0741
    SETDIJ:  cpu time    0.0093: real time    0.0093
     EDDAV:  cpu time   47.0313: real time   47.1427
    CHARGE:  cpu time    1.7703: real time    1.7745
    MIXING:  cpu time    0.0027: real time    0.0027
    --------------------------------------------
      LOOP:  cpu time   48.8875: real time   49.0034

 eigenvalue-minimisations  : 17680
 total energy-change (2. order) : 0.2156178E+03  (-0.2956786E+02)
 number of electron     396.0000048 magnetization 
 augmentation part      139.0749525 magnetization 

 Broyden mixing:
  rms(total) = 0.65428E+01    rms(broyden)= 0.65417E+01
  rms(prec ) = 0.81951E+01
  weight for this iteration     100.00

 eigenvalues of (default mixing * dielectric matrix)
  average eigenvalue GAMMA=   0.5789
  0.5789  0.5789

 Free energy of the ion-electron system (eV)
  ---------------------------------------------------
  alpha Z        PSCENC =      1237.65017714
  Ewald energy   TEWEN  =    -22195.58316277
  -Hartree energ DENC   =    -13268.70789323
  -exchange      EXHF   =         0.00000000
  -V(xc)+E(xc)   XCENC  =      1590.98665250
  PAW double counting   =     34783.99178326   -35982.72905735
  entropy T*S    EENTRO =        -0.00336539
  eigenvalues    EBANDS =     -1410.60354258
  atomic energy  EATOM  =     34890.38139807
  Solvation  Ediel_sol  =         0.00000000
  ---------------------------------------------------
  free energy    TOTEN  =      -354.61701035 eV

  energy without entropy =     -354.61364496  energy(sigma->0) =     -354.61532766


--------------------------------------------------------------------------------------------------------




--------------------------------------- Iteration      1(   8)  ---------------------------------------


    POTLOK:  cpu time    0.0757: real time    0.0759
    SETDIJ:  cpu time    0.0090: real time    0.0090
     EDDAV:  cpu time   53.2070: real time   53.3330
    CHARGE:  cpu time    1.7911: real time    1.7953
    MIXING:  cpu time    0.0028: real time    0.0028
    --------------------------------------------
      LOOP:  cpu time   55.0855: real time   55.2161

 eigenvalue-minimisations  : 20560
 total energy-change (2. order) :-0.1405586E+01  (-0.1835592E+02)
 number of electron     396.0000040 magnetization 
 augmentation part      130.2262254 magnetization 

 Broyden mixing:
  rms(total) = 0.68351E+01    rms(broyden)= 0.68333E+01
  rms(prec ) = 0.97704E+01
  weight for this iteration     100.00

 eigenvalues of (default mixing * dielectric matrix)
  average eigenvalue GAMMA=   0.5460
  0.8361  0.5119  0.2900

 Free energy of the ion-electron system (eV)
  ---------------------------------------------------
  alpha Z        PSCENC =      1237.65017714
  Ewald energy   TEWEN  =    -22195.58316277
  -Hartree energ DENC   =    -13328.76753599
  -exchange      EXHF   =         0.00000000
  -V(xc)+E(xc)   XCENC  =      1586.66763518
  PAW double counting   =     36299.26320661   -37585.48552912
  entropy T*S    EENTRO =        -0.02634610
  eigenvalues    EBANDS =     -1260.12243964
  atomic energy  EATOM  =     34890.38139807
  Solvation  Ediel_sol  =         0.00000000
  ---------------------------------------------------
  free energy    TOTEN  =      -356.02259662 eV

  energy without entropy =     -355.99625052  energy(sigma->0) =     -356.00942357


--------------------------------------------------------------------------------------------------------




--------------------------------------- Iteration      1(   9)  ---------------------------------------


    POTLOK:  cpu time    0.0748: real time    0.0750
    SETDIJ:  cpu time    0.0091: real time    0.0091
     EDDAV:  cpu time   45.4558: real time   45.5635
    CHARGE:  cpu time    1.7730: real time    1.7772
    MIXING:  cpu time    0.0026: real time    0.0026
    --------------------------------------------
      LOOP:  cpu time   47.3153: real time   47.4274

 eigenvalue-minimisations  : 17040
 total energy-change (2. order) :-0.1183802E+02  (-0.3046833E+02)
 number of electron     396.0000033 magnetization 
 augmentation part      124.0117990 magnetization 

 Broyden mixing:
  rms(total) = 0.10936E+02    rms(broyden)= 0.10935E+02
  rms(prec ) = 0.14737E+02
  weight for this iteration     100.00

 eigenvalues of (default mixing * dielectric matrix)
  average eigenvalue GAMMA=   0.4756
  1.0375  0.3855  0.3855  0.0940

 Free energy of the ion-electron system (eV)
  ---------------------------------------------------
  alpha Z        PSCENC =      1237.65017714
  Ewald energy   TEWEN  =    -22195.58316277
  -Hartree energ DENC   =    -13300.46391863
  -exchange      EXHF   =         0.00000000
  -V(xc)+E(xc)   XCENC  =      1584.02853161
  PAW double counting   =     37390.39822694   -38691.08058323
  entropy T*S    EENTRO =        -0.02430187
  eigenvalues    EBANDS =     -1283.16698253
  atomic energy  EATOM  =     34890.38139807
  Solvation  Ediel_sol  =         0.00000000
  ---------------------------------------------------
  free energy    TOTEN  =      -367.86061528 eV

  energy without entropy =     -367.83631341  energy(sigma->0) =     -367.84846434


--------------------------------------------------------------------------------------------------------




--------------------------------------- Iteration      1(  10)  ---------------------------------------


    POTLOK:  cpu time    0.0749: real time    0.0751
    SETDIJ:  cpu time    0.0087: real time    0.0088
     EDDAV:  cpu time   46.2115: real time   46.3210
    CHARGE:  cpu time    1.7951: real time    1.7994
    MIXING:  cpu time    0.0029: real time    0.0029
    --------------------------------------------
      LOOP:  cpu time   48.0932: real time   48.2071

 eigenvalue-minimisations  : 17312
 total energy-change (2. order) : 0.2611790E+02  (-0.1104269E+02)
 number of electron     396.0000043 magnetization 
 augmentation part      126.1851355 magnetization 

 Broyden mixing:
  rms(total) = 0.45704E+01    rms(broyden)= 0.45694E+01
  rms(prec ) = 0.61704E+01
  weight for this iteration     100.00

 eigenvalues of (default mixing * dielectric matrix)
  average eigenvalue GAMMA=   0.4438
  1.1684  0.3564  0.3564  0.1834  0.1546

 Free energy of the ion-electron system (eV)
  ---------------------------------------------------
  alpha Z        PSCENC =      1237.65017714
  Ewald energy   TEWEN  =    -22195.58316277
  -Hartree energ DENC   =    -13281.10914956
  -exchange      EXHF   =         0.00000000
  -V(xc)+E(xc)   XCENC  =      1583.35610014
  PAW double counting   =     37977.69231331   -39285.96372993
  entropy T*S    EENTRO =        -0.01946497
  eigenvalues    EBANDS =     -1268.14719854
  atomic energy  EATOM  =     34890.38139807
  Solvation  Ediel_sol  =         0.00000000
  ---------------------------------------------------
  free energy    TOTEN  =      -341.74271711 eV

  energy without entropy =     -341.72325214  energy(sigma->0) =     -341.73298463


--------------------------------------------------------------------------------------------------------




--------------------------------------- Iteration      1(  11)  ---------------------------------------


    POTLOK:  cpu time    0.0752: real time    0.0754
    SETDIJ:  cpu time    0.0092: real time    0.0092
     EDDAV:  cpu time   46.6209: real time   46.7313
    CHARGE:  cpu time    1.7471: real time    1.7513
    MIXING:  cpu time    0.0030: real time    0.0031
    --------------------------------------------
      LOOP:  cpu time   48.4554: real time   48.5702

 eigenvalue-minimisations  : 17024
 total energy-change (2. order) : 0.8650690E+01  (-0.5340760E+01)
 number of electron     396.0000044 magnetization 
 augmentation part      127.3715713 magnetization 

 Broyden mixing:
  rms(total) = 0.24055E+01    rms(broyden)= 0.24051E+01
  rms(prec ) = 0.32217E+01
  weight for this iteration     100.00

 eigenvalues of (default mixing * dielectric matrix)
  average eigenvalue GAMMA=   0.4969
  1.4057  0.4611  0.4611  0.3644  0.1723  0.1168

 Free energy of the ion-electron system (eV)
  ---------------------------------------------------
  alpha Z        PSCENC =      1237.65017714
  Ewald energy   TEWEN  =    -22195.58316277
  -Hartree energ DENC   =    -13273.51508882
  -exchange      EXHF   =         0.00000000
  -V(xc)+E(xc)   XCENC  =      1583.41419877
  PAW double counting   =     38363.87771263   -39675.87913159
  entropy T*S    EENTRO =        -0.00029567
  eigenvalues    EBANDS =     -1263.43783516
  atomic energy  EATOM  =     34890.38139807
  Solvation  Ediel_sol  =         0.00000000
  ---------------------------------------------------
  free energy    TOTEN  =      -333.09202739 eV

  energy without entropy =     -333.09173173  energy(sigma->0) =     -333.09187956


--------------------------------------------------------------------------------------------------------




--------------------------------------- Iteration      1(  12)  ---------------------------------------


    POTLOK:  cpu time    0.0763: real time    0.0764
    SETDIJ:  cpu time    0.0094: real time    0.0095
     EDDAV:  cpu time   50.1359: real time   50.2546
    CHARGE:  cpu time    1.7645: real time    1.7686
    MIXING:  cpu time    0.0030: real time    0.0030
    --------------------------------------------
      LOOP:  cpu time   51.9891: real time   52.1122

 eigenvalue-minimisations  : 18784
 total energy-change (2. order) : 0.3652982E+01  (-0.1049168E+01)
 number of electron     396.0000045 magnetization 
 augmentation part      128.5519389 magnetization 

 Broyden mixing:
  rms(total) = 0.16746E+01    rms(broyden)= 0.16743E+01
  rms(prec ) = 0.22246E+01
  weight for this iteration     100.00

 eigenvalues of (default mixing * dielectric matrix)
  average eigenvalue GAMMA=   0.4855
  1.4800  0.4832  0.4832  0.3343  0.3343  0.1635  0.1201

 Free energy of the ion-electron system (eV)
  ---------------------------------------------------
  alpha Z        PSCENC =      1237.65017714
  Ewald energy   TEWEN  =    -22195.58316277
  -Hartree energ DENC   =    -13269.31928404
  -exchange      EXHF   =         0.00000000
  -V(xc)+E(xc)   XCENC  =      1584.23421171
  PAW double counting   =     38958.55349231   -40273.58603737
  entropy T*S    EENTRO =        -0.00000613
  eigenvalues    EBANDS =     -1261.76983453
  atomic energy  EATOM  =     34890.38139807
  Solvation  Ediel_sol  =         0.00000000
  ---------------------------------------------------
  free energy    TOTEN  =      -329.43904562 eV

  energy without entropy =     -329.43903949  energy(sigma->0) =     -329.43904256


--------------------------------------------------------------------------------------------------------




--------------------------------------- Iteration      1(  13)  ---------------------------------------


    POTLOK:  cpu time    0.0738: real time    0.0740
    SETDIJ:  cpu time    0.0091: real time    0.0092
     EDDAV:  cpu time   48.3877: real time   48.5023
    CHARGE:  cpu time    1.7623: real time    1.7665
    MIXING:  cpu time    0.0034: real time    0.0034
    --------------------------------------------
      LOOP:  cpu time   50.2362: real time   50.3553

 eigenvalue-minimisations  : 18416
 total energy-change (2. order) : 0.1206766E+01  (-0.5821030E+00)
 number of electron     396.0000045 magnetization 
 augmentation part      128.8504675 magnetization 

 Broyden mixing:
  rms(total) = 0.10395E+01    rms(broyden)= 0.10393E+01
  rms(prec ) = 0.13419E+01
  weight for this iteration     100.00

 eigenvalues of (default mixing * dielectric matrix)
  average eigenvalue GAMMA=   0.5452
  1.7300  0.6270  0.6270  0.4284  0.4284  0.2348  0.1669  0.1193

 Free energy of the ion-electron system (eV)
  ---------------------------------------------------
  alpha Z        PSCENC =      1237.65017714
  Ewald energy   TEWEN  =    -22195.58316277
  -Hartree energ DENC   =    -13271.45252665
  -exchange      EXHF   =         0.00000000
  -V(xc)+E(xc)   XCENC  =      1584.71876731
  PAW double counting   =     39247.92558473   -40564.64045496
  entropy T*S    EENTRO =        -0.00000000
  eigenvalues    EBANDS =     -1257.23206296
  atomic energy  EATOM  =     34890.38139807
  Solvation  Ediel_sol  =         0.00000000
  ---------------------------------------------------
  free energy    TOTEN  =      -328.23228008 eV

  energy without entropy =     -328.23228008  energy(sigma->0) =     -328.23228008


--------------------------------------------------------------------------------------------------------




--------------------------------------- Iteration      1(  14)  ---------------------------------------


    POTLOK:  cpu time    0.0742: real time    0.0744
    SETDIJ:  cpu time    0.0091: real time    0.0091
     EDDAV:  cpu time   49.8687: real time   49.9868
    CHARGE:  cpu time    1.7509: real time    1.7551
    MIXING:  cpu time    0.0031: real time    0.0031
    --------------------------------------------
      LOOP:  cpu time   51.7061: real time   51.8285

 eigenvalue-minimisations  : 19104
 total energy-change (2. order) : 0.5404949E+00  (-0.1853672E+00)
 number of electron     396.0000045 magnetization 
 augmentation part      129.4032369 magnetization 

 Broyden mixing:
  rms(total) = 0.59716E+00    rms(broyden)= 0.59702E+00
  rms(prec ) = 0.76049E+00
  weight for this iteration     100.00

 eigenvalues of (default mixing * dielectric matrix)
  average eigenvalue GAMMA=   0.5838
  1.9974  0.7161  0.7161  0.4781  0.4781  0.3519  0.1194  0.1654  0.2320

 Free energy of the ion-electron system (eV)
  ---------------------------------------------------
  alpha Z        PSCENC =      1237.65017714
  Ewald energy   TEWEN  =    -22195.58316277
  -Hartree energ DENC   =    -13274.02500574
  -exchange      EXHF   =         0.00000000
  -V(xc)+E(xc)   XCENC  =      1585.27051963
  PAW double counting   =     39751.41497032   -41072.29526708
  entropy T*S    EENTRO =        -0.00000000
  eigenvalues    EBANDS =     -1250.50541479
  atomic energy  EATOM  =     34890.38139807
  Solvation  Ediel_sol  =         0.00000000
  ---------------------------------------------------
  free energy    TOTEN  =      -327.69178522 eV

  energy without entropy =     -327.69178522  energy(sigma->0) =     -327.69178522


--------------------------------------------------------------------------------------------------------




--------------------------------------- Iteration      1(  15)  ---------------------------------------


    POTLOK:  cpu time    0.0750: real time    0.0752
    SETDIJ:  cpu time    0.0092: real time    0.0092
     EDDAV:  cpu time   47.2659: real time   47.3778
    CHARGE:  cpu time    1.8352: real time    1.8396
    MIXING:  cpu time    0.0033: real time    0.0033
    --------------------------------------------
      LOOP:  cpu time   49.1886: real time   49.3051

 eigenvalue-minimisations  : 18032
 total energy-change (2. order) : 0.1183812E+00  (-0.9068218E-01)
 number of electron     396.0000045 magnetization 
 augmentation part      129.6679351 magnetization 

 Broyden mixing:
  rms(total) = 0.42302E+00    rms(broyden)= 0.42293E+00
  rms(prec ) = 0.53982E+00
  weight for this iteration     100.00

 eigenvalues of (default mixing * dielectric matrix)
  average eigenvalue GAMMA=   0.6010
  2.2374  0.7832  0.7832  0.5185  0.5185  0.3759  0.2848  0.1194  0.1660  0.2230

 Free energy of the ion-electron system (eV)
  ---------------------------------------------------
  alpha Z        PSCENC =      1237.65017714
  Ewald energy   TEWEN  =    -22195.58316277
  -Hartree energ DENC   =    -13274.93408781
  -exchange      EXHF   =         0.00000000
  -V(xc)+E(xc)   XCENC  =      1585.58333393
  PAW double counting   =     40175.19996947   -41499.57494636
  entropy T*S    EENTRO =        -0.00000000
  eigenvalues    EBANDS =     -1246.29608568
  atomic energy  EATOM  =     34890.38139807
  Solvation  Ediel_sol  =         0.00000000
  ---------------------------------------------------
  free energy    TOTEN  =      -327.57340402 eV

  energy without entropy =     -327.57340402  energy(sigma->0) =     -327.57340402


--------------------------------------------------------------------------------------------------------




--------------------------------------- Iteration      1(  16)  ---------------------------------------


    POTLOK:  cpu time    0.0749: real time    0.0750
    SETDIJ:  cpu time    0.0093: real time    0.0093
     EDDAV:  cpu time   48.9276: real time   49.0435
    CHARGE:  cpu time    1.7690: real time    1.7732
    MIXING:  cpu time    0.0035: real time    0.0035
    --------------------------------------------
      LOOP:  cpu time   50.7842: real time   50.9045

 eigenvalue-minimisations  : 18704
 total energy-change (2. order) : 0.6768544E-01  (-0.4684383E-01)
 number of electron     396.0000045 magnetization 
 augmentation part      129.7951252 magnetization 

 Broyden mixing:
  rms(total) = 0.21774E+00    rms(broyden)= 0.21765E+00
  rms(prec ) = 0.28146E+00
  weight for this iteration     100.00

 eigenvalues of (default mixing * dielectric matrix)
  average eigenvalue GAMMA=   0.6194
  2.4243  0.8381  0.8381  0.5406  0.5406  0.4744  0.3963  0.1194  0.1657  0.2486
  0.2271

 Free energy of the ion-electron system (eV)
  ---------------------------------------------------
  alpha Z        PSCENC =      1237.65017714
  Ewald energy   TEWEN  =    -22195.58316277
  -Hartree energ DENC   =    -13276.74380821
  -exchange      EXHF   =         0.00000000
  -V(xc)+E(xc)   XCENC  =      1585.75013230
  PAW double counting   =     40445.72514743   -41772.48010022
  entropy T*S    EENTRO =        -0.00000000
  eigenvalues    EBANDS =     -1242.20550232
  atomic energy  EATOM  =     34890.38139807
  Solvation  Ediel_sol  =         0.00000000
  ---------------------------------------------------
  free energy    TOTEN  =      -327.50571858 eV

  energy without entropy =     -327.50571858  energy(sigma->0) =     -327.50571858


--------------------------------------------------------------------------------------------------------




--------------------------------------- Iteration      1(  17)  ---------------------------------------


    POTLOK:  cpu time    0.0740: real time    0.0742
    SETDIJ:  cpu time    0.0092: real time    0.0092
     EDDAV:  cpu time   46.3403: real time   46.4500
    CHARGE:  cpu time    1.7647: real time    1.7689
    MIXING:  cpu time    0.0034: real time    0.0034
    --------------------------------------------
      LOOP:  cpu time   48.1916: real time   48.3057

 eigenvalue-minimisations  : 17488
 total energy-change (2. order) : 0.1989984E-01  (-0.1606380E-01)
 number of electron     396.0000045 magnetization 
 augmentation part      129.7944646 magnetization 

 Broyden mixing:
  rms(total) = 0.12182E+00    rms(broyden)= 0.12177E+00
  rms(prec ) = 0.16052E+00
  weight for this iteration     100.00

 eigenvalues of (default mixing * dielectric matrix)
  average eigenvalue GAMMA=   0.6317
  2.5153  0.9212  0.9212  0.5964  0.5964  0.4707  0.4707  0.3393  0.1194  0.1658
  0.2452  0.2194

 Free energy of the ion-electron system (eV)
  ---------------------------------------------------
  alpha Z        PSCENC =      1237.65017714
  Ewald energy   TEWEN  =    -22195.58316277
  -Hartree energ DENC   =    -13278.47889435
  -exchange      EXHF   =         0.00000000
  -V(xc)+E(xc)   XCENC  =      1585.80887340
  PAW double counting   =     40613.12996265   -41941.13605375
  entropy T*S    EENTRO =        -0.00000000
  eigenvalues    EBANDS =     -1239.25811913
  atomic energy  EATOM  =     34890.38139807
  Solvation  Ediel_sol  =         0.00000000
  ---------------------------------------------------
  free energy    TOTEN  =      -327.48581874 eV

  energy without entropy =     -327.48581874  energy(sigma->0) =     -327.48581874


--------------------------------------------------------------------------------------------------------




--------------------------------------- Iteration      1(  18)  ---------------------------------------


    POTLOK:  cpu time    0.0749: real time    0.0751
    SETDIJ:  cpu time    0.0091: real time    0.0091
     EDDAV:  cpu time   41.4901: real time   41.5883
    CHARGE:  cpu time    1.7669: real time    1.7711
    MIXING:  cpu time    0.0039: real time    0.0039
    --------------------------------------------
      LOOP:  cpu time   43.3449: real time   43.4476

 eigenvalue-minimisations  : 15216
 total energy-change (2. order) : 0.2231541E-02  (-0.6577457E-02)
 number of electron     396.0000045 magnetization 
 augmentation part      129.7876717 magnetization 

 Broyden mixing:
  rms(total) = 0.99982E-01    rms(broyden)= 0.99961E-01
  rms(prec ) = 0.13159E+00
  weight for this iteration     100.00

 eigenvalues of (default mixing * dielectric matrix)
  average eigenvalue GAMMA=   0.6426
  2.6002  1.0493  1.0493  0.6531  0.6531  0.4805  0.4805  0.3581  0.1194  0.1658
  0.2859  0.2364  0.2219

 Free energy of the ion-electron system (eV)
  ---------------------------------------------------
  alpha Z        PSCENC =      1237.65017714
  Ewald energy   TEWEN  =    -22195.58316277
  -Hartree energ DENC   =    -13278.86065451
  -exchange      EXHF   =         0.00000000
  -V(xc)+E(xc)   XCENC  =      1585.78257196
  PAW double counting   =     40671.13095867   -41999.27560931
  entropy T*S    EENTRO =        -0.00000000
  eigenvalues    EBANDS =     -1238.70926645
  atomic energy  EATOM  =     34890.38139807
  Solvation  Ediel_sol  =         0.00000000
  ---------------------------------------------------
  free energy    TOTEN  =      -327.48358720 eV

  energy without entropy =     -327.48358720  energy(sigma->0) =     -327.48358720


--------------------------------------------------------------------------------------------------------




--------------------------------------- Iteration      1(  19)  ---------------------------------------


    POTLOK:  cpu time    0.0747: real time    0.0749
    SETDIJ:  cpu time    0.0092: real time    0.0092
     EDDAV:  cpu time   42.9533: real time   43.0551
    CHARGE:  cpu time    1.7395: real time    1.7436
    MIXING:  cpu time    0.0039: real time    0.0039
    --------------------------------------------
      LOOP:  cpu time   44.7806: real time   44.8867

 eigenvalue-minimisations  : 15728
 total energy-change (2. order) : 0.5587442E-02  (-0.2436185E-02)
 number of electron     396.0000045 magnetization 
 augmentation part      129.8007099 magnetization 

 Broyden mixing:
  rms(total) = 0.52573E-01    rms(broyden)= 0.52554E-01
  rms(prec ) = 0.68503E-01
  weight for this iteration     100.00

 eigenvalues of (default mixing * dielectric matrix)
  average eigenvalue GAMMA=   0.6769
  2.6331  1.5256  1.0422  0.7192  0.7192  0.4992  0.4992  0.4721  0.3653  0.1194
  0.1658  0.2631  0.2349  0.2178

 Free energy of the ion-electron system (eV)
  ---------------------------------------------------
  alpha Z        PSCENC =      1237.65017714
  Ewald energy   TEWEN  =    -22195.58316277
  -Hartree energ DENC   =    -13278.78967818
  -exchange      EXHF   =         0.00000000
  -V(xc)+E(xc)   XCENC  =      1585.75094119
  PAW double counting   =     40693.22026346   -42021.15684813
  entropy T*S    EENTRO =        -0.00000000
  eigenvalues    EBANDS =     -1238.95109054
  atomic energy  EATOM  =     34890.38139807
  Solvation  Ediel_sol  =         0.00000000
  ---------------------------------------------------
  free energy    TOTEN  =      -327.47799975 eV

  energy without entropy =     -327.47799975  energy(sigma->0) =     -327.47799975


--------------------------------------------------------------------------------------------------------




--------------------------------------- Iteration      1(  20)  ---------------------------------------


    POTLOK:  cpu time    0.0755: real time    0.0757
    SETDIJ:  cpu time    0.0095: real time    0.0095
     EDDAV:  cpu time   44.7323: real time   44.8382
    CHARGE:  cpu time    1.7994: real time    1.8037
    MIXING:  cpu time    0.0038: real time    0.0038
    --------------------------------------------
      LOOP:  cpu time   46.6205: real time   46.7310

 eigenvalue-minimisations  : 16704
 total energy-change (2. order) : 0.1370769E-02  (-0.6487676E-03)
 number of electron     396.0000045 magnetization 
 augmentation part      129.8151881 magnetization 

 Broyden mixing:
  rms(total) = 0.33792E-01    rms(broyden)= 0.33784E-01
  rms(prec ) = 0.46100E-01
  weight for this iteration     100.00

 eigenvalues of (default mixing * dielectric matrix)
  average eigenvalue GAMMA=   0.7009
  2.6163  1.8786  1.1627  0.7376  0.7376  0.5719  0.5096  0.5096  0.4321  0.3605
  0.1194  0.1658  0.2612  0.2329  0.2184

 Free energy of the ion-electron system (eV)
  ---------------------------------------------------
  alpha Z        PSCENC =      1237.65017714
  Ewald energy   TEWEN  =    -22195.58316277
  -Hartree energ DENC   =    -13278.77489789
  -exchange      EXHF   =         0.00000000
  -V(xc)+E(xc)   XCENC  =      1585.73109028
  PAW double counting   =     40687.25326286   -42014.69572876
  entropy T*S    EENTRO =        -0.00000000
  eigenvalues    EBANDS =     -1239.43876792
  atomic energy  EATOM  =     34890.38139807
  Solvation  Ediel_sol  =         0.00000000
  ---------------------------------------------------
  free energy    TOTEN  =      -327.47662898 eV

  energy without entropy =     -327.47662898  energy(sigma->0) =     -327.47662898


--------------------------------------------------------------------------------------------------------




--------------------------------------- Iteration      1(  21)  ---------------------------------------


    POTLOK:  cpu time    0.0741: real time    0.0743
    SETDIJ:  cpu time    0.0090: real time    0.0090
     EDDAV:  cpu time   37.8996: real time   37.9894
    CHARGE:  cpu time    1.7628: real time    1.7670
    MIXING:  cpu time    0.0039: real time    0.0039
    --------------------------------------------
      LOOP:  cpu time   39.7494: real time   39.8436

 eigenvalue-minimisations  : 13376
 total energy-change (2. order) : 0.4685017E-03  (-0.4526571E-03)
 number of electron     396.0000045 magnetization 
 augmentation part      129.8295892 magnetization 

 Broyden mixing:
  rms(total) = 0.28282E-01    rms(broyden)= 0.28278E-01
  rms(prec ) = 0.37967E-01
  weight for this iteration     100.00

 eigenvalues of (default mixing * dielectric matrix)
  average eigenvalue GAMMA=   0.6968
  2.4364  2.2974  1.1800  0.7385  0.7385  0.5988  0.5199  0.5199  0.4578  0.3693
  0.1194  0.1658  0.2990  0.2562  0.2343  0.2179

 Free energy of the ion-electron system (eV)
  ---------------------------------------------------
  alpha Z        PSCENC =      1237.65017714
  Ewald energy   TEWEN  =    -22195.58316277
  -Hartree energ DENC   =    -13279.06521103
  -exchange      EXHF   =         0.00000000
  -V(xc)+E(xc)   XCENC  =      1585.73782486
  PAW double counting   =     40675.50572663   -42002.51545313
  entropy T*S    EENTRO =        -0.00000000
  eigenvalues    EBANDS =     -1239.58746026
  atomic energy  EATOM  =     34890.38139807
  Solvation  Ediel_sol  =         0.00000000
  ---------------------------------------------------
  free energy    TOTEN  =      -327.47616048 eV

  energy without entropy =     -327.47616048  energy(sigma->0) =     -327.47616048


--------------------------------------------------------------------------------------------------------




--------------------------------------- Iteration      1(  22)  ---------------------------------------


    POTLOK:  cpu time    0.0744: real time    0.0746
    SETDIJ:  cpu time    0.0092: real time    0.0093
     EDDAV:  cpu time   40.0504: real time   40.1453
    CHARGE:  cpu time    1.7577: real time    1.7618
    MIXING:  cpu time    0.0044: real time    0.0044
    --------------------------------------------
      LOOP:  cpu time   41.8961: real time   41.9954

 eigenvalue-minimisations  : 14256
 total energy-change (2. order) : 0.3390594E-03  (-0.2741692E-03)
 number of electron     396.0000045 magnetization 
 augmentation part      129.8295140 magnetization 

 Broyden mixing:
  rms(total) = 0.18600E-01    rms(broyden)= 0.18597E-01
  rms(prec ) = 0.24168E-01
  weight for this iteration     100.00

 eigenvalues of (default mixing * dielectric matrix)
  average eigenvalue GAMMA=   0.6976
  2.4031  2.4031  1.2566  0.7388  0.7388  0.6347  0.6347  0.5015  0.5015  0.4411
  0.3576  0.1194  0.1658  0.2182  0.2316  0.2613  0.2508

 Free energy of the ion-electron system (eV)
  ---------------------------------------------------
  alpha Z        PSCENC =      1237.65017714
  Ewald energy   TEWEN  =    -22195.58316277
  -Hartree energ DENC   =    -13279.30622748
  -exchange      EXHF   =         0.00000000
  -V(xc)+E(xc)   XCENC  =      1585.74945257
  PAW double counting   =     40668.57383874   -41995.43009549
  entropy T*S    EENTRO =        -0.00000000
  eigenvalues    EBANDS =     -1239.51120221
  atomic energy  EATOM  =     34890.38139807
  Solvation  Ediel_sol  =         0.00000000
  ---------------------------------------------------
  free energy    TOTEN  =      -327.47582142 eV

  energy without entropy =     -327.47582142  energy(sigma->0) =     -327.47582142


--------------------------------------------------------------------------------------------------------




--------------------------------------- Iteration      1(  23)  ---------------------------------------


    POTLOK:  cpu time    0.0761: real time    0.0763
    SETDIJ:  cpu time    0.0095: real time    0.0095
     EDDAV:  cpu time   46.5335: real time   46.6437
    CHARGE:  cpu time    1.7818: real time    1.7861
    MIXING:  cpu time    0.0044: real time    0.0044
    --------------------------------------------
      LOOP:  cpu time   48.4053: real time   48.5199

 eigenvalue-minimisations  : 17520
 total energy-change (2. order) : 0.1350558E-03  (-0.9401589E-04)
 number of electron     396.0000045 magnetization 
 augmentation part      129.8300684 magnetization 

 Broyden mixing:
  rms(total) = 0.12710E-01    rms(broyden)= 0.12708E-01
  rms(prec ) = 0.16324E-01
  weight for this iteration     100.00

 eigenvalues of (default mixing * dielectric matrix)
  average eigenvalue GAMMA=   0.7067
  2.4357  2.4357  1.4611  0.8217  0.8217  0.6631  0.6631  0.4937  0.4937  0.4345
  0.4053  0.3560  0.1194  0.1658  0.2634  0.2180  0.2348  0.2348

 Free energy of the ion-electron system (eV)
  ---------------------------------------------------
  alpha Z        PSCENC =      1237.65017714
  Ewald energy   TEWEN  =    -22195.58316277
  -Hartree energ DENC   =    -13279.53959761
  -exchange      EXHF   =         0.00000000
  -V(xc)+E(xc)   XCENC  =      1585.76536857
  PAW double counting   =     40667.50671288   -41994.34531149
  entropy T*S    EENTRO =        -0.00000000
  eigenvalues    EBANDS =     -1239.31127114
  atomic energy  EATOM  =     34890.38139807
  Solvation  Ediel_sol  =         0.00000000
  ---------------------------------------------------
  free energy    TOTEN  =      -327.47568637 eV

  energy without entropy =     -327.47568637  energy(sigma->0) =     -327.47568637


--------------------------------------------------------------------------------------------------------




--------------------------------------- Iteration      1(  24)  ---------------------------------------


    POTLOK:  cpu time    0.0743: real time    0.0745
    SETDIJ:  cpu time    0.0092: real time    0.0092
     EDDAV:  cpu time   37.5542: real time   37.6432
    CHARGE:  cpu time    1.6693: real time    1.6733
    MIXING:  cpu time    0.0046: real time    0.0046
    --------------------------------------------
      LOOP:  cpu time   39.3116: real time   39.4048

 eigenvalue-minimisations  : 13600
 total energy-change (2. order) : 0.3155717E-04  (-0.5751790E-04)
 number of electron     396.0000045 magnetization 
 augmentation part      129.8309480 magnetization 

 Broyden mixing:
  rms(total) = 0.10225E-01    rms(broyden)= 0.10224E-01
  rms(prec ) = 0.12644E-01
  weight for this iteration     100.00

 eigenvalues of (default mixing * dielectric matrix)
  average eigenvalue GAMMA=   0.7073
  2.4680  2.2606  1.7944  0.8824  0.8824  0.6669  0.6669  0.5018  0.5018  0.4546
  0.4546  0.1194  0.3606  0.3207  0.1658  0.2607  0.2343  0.2179  0.2258

 Free energy of the ion-electron system (eV)
  ---------------------------------------------------
  alpha Z        PSCENC =      1237.65017714
  Ewald energy   TEWEN  =    -22195.58316277
  -Hartree energ DENC   =    -13279.73961252
  -exchange      EXHF   =         0.00000000
  -V(xc)+E(xc)   XCENC  =      1585.77988076
  PAW double counting   =     40667.30051694   -41994.13304929
  entropy T*S    EENTRO =        -0.00000000
  eigenvalues    EBANDS =     -1239.13180315
  atomic energy  EATOM  =     34890.38139807
  Solvation  Ediel_sol  =         0.00000000
  ---------------------------------------------------
  free energy    TOTEN  =      -327.47565481 eV

  energy without entropy =     -327.47565481  energy(sigma->0) =     -327.47565481


--------------------------------------------------------------------------------------------------------




--------------------------------------- Iteration      1(  25)  ---------------------------------------


    POTLOK:  cpu time    0.0721: real time    0.0723
    SETDIJ:  cpu time    0.0086: real time    0.0086
     EDDAV:  cpu time   39.6919: real time   39.7859
    CHARGE:  cpu time    1.7792: real time    1.7835
    MIXING:  cpu time    0.0046: real time    0.0046
    --------------------------------------------
      LOOP:  cpu time   41.5564: real time   41.6549

 eigenvalue-minimisations  : 14288
 total energy-change (2. order) : 0.1789843E-04  (-0.1878328E-04)
 number of electron     396.0000045 magnetization 
 augmentation part      129.8312460 magnetization 

 Broyden mixing:
  rms(total) = 0.79144E-02    rms(broyden)= 0.79139E-02
  rms(prec ) = 0.98360E-02
  weight for this iteration     100.00

 eigenvalues of (default mixing * dielectric matrix)
  average eigenvalue GAMMA=   0.7164
  2.5644  2.1066  2.1066  0.9441  0.9441  0.6872  0.6872  0.5180  0.5180  0.5138
  0.4834  0.3991  0.3617  0.1194  0.1658  0.2625  0.2625  0.2180  0.2326  0.2326

 Free energy of the ion-electron system (eV)
  ---------------------------------------------------
  alpha Z        PSCENC =      1237.65017714
  Ewald energy   TEWEN  =    -22195.58316277
  -Hartree energ DENC   =    -13279.82617994
  -exchange      EXHF   =         0.00000000
  -V(xc)+E(xc)   XCENC  =      1585.78717821
  PAW double counting   =     40667.54526412   -41994.38532860
  entropy T*S    EENTRO =        -0.00000000
  eigenvalues    EBANDS =     -1239.04498315
  atomic energy  EATOM  =     34890.38139807
  Solvation  Ediel_sol  =         0.00000000
  ---------------------------------------------------
  free energy    TOTEN  =      -327.47563691 eV

  energy without entropy =     -327.47563691  energy(sigma->0) =     -327.47563691


--------------------------------------------------------------------------------------------------------




--------------------------------------- Iteration      1(  26)  ---------------------------------------


    POTLOK:  cpu time    0.0743: real time    0.0745
    SETDIJ:  cpu time    0.0091: real time    0.0092
     EDDAV:  cpu time   36.9969: real time   37.0846
    CHARGE:  cpu time    1.7004: real time    1.7044
    MIXING:  cpu time    0.0047: real time    0.0047
    --------------------------------------------
      LOOP:  cpu time   38.7854: real time   38.8773

 eigenvalue-minimisations  : 12832
 total energy-change (2. order) : 0.1555345E-04  (-0.7183550E-05)
 number of electron     396.0000045 magnetization 
 augmentation part      129.8326770 magnetization 

 Broyden mixing:
  rms(total) = 0.55102E-02    rms(broyden)= 0.55098E-02
  rms(prec ) = 0.71861E-02
[...]
  0.077   0.079   0.022   0.293   0.286  -0.063  -0.071  -0.023  -0.302  -0.283  -0.032   0.005   0.722  -0.029  -0.021  -0.126
  0.260   0.022   0.159  -0.118  -0.136  -0.276  -0.044  -0.158   0.141   0.151   0.026  -0.004  -0.029   0.551   0.068   0.005
  0.223   0.236  -0.110  -0.210   0.047  -0.247  -0.254   0.108   0.240  -0.029   0.037  -0.005  -0.021   0.068   0.774   0.002
  0.001   0.001  -0.003  -0.037  -0.030   0.005   0.005   0.005   0.044   0.040   0.003  -0.002  -0.126   0.005   0.002   0.031
 -0.039  -0.017  -0.016   0.031   0.023   0.046   0.016   0.023  -0.029  -0.027  -0.001   0.001   0.005  -0.088  -0.012  -0.001
 -0.047  -0.036   0.008   0.046   0.019   0.049   0.043  -0.015  -0.048  -0.011  -0.002   0.002   0.002  -0.012  -0.136  -0.000


------------------------ aborting loop because EDIFF is reached ----------------------------------------


    CHARGE:  cpu time    1.7732: real time    1.7774
    FORLOC:  cpu time    0.0350: real time    0.0355
    FORNL :  cpu time   11.1806: real time   11.2071
    STRESS:  cpu time   33.8028: real time   33.8838
    FORCOR:  cpu time    0.1013: real time    0.1015
    FORHAR:  cpu time    0.0481: real time    0.0482
    MIXING:  cpu time    0.0046: real time    0.0046
    OFIELD:  cpu time    0.0000: real time    0.0000

  FORCE on cell =-STRESS in cart. coord.  units (eV):
  Direction    XX          YY          ZZ          XY          YZ          ZX
  --------------------------------------------------------------------------------------
  Alpha Z  1237.65018  1237.65018  1237.65018
  Ewald    -985.75947 -1197.23974-20012.73132   -26.28749  -172.53863    32.10602
  Hartree  8967.63919  8878.87889 -4566.64423   -10.36567   -72.57101    18.59098
  E(xc)   -2024.30430 -2024.11259 -2027.77099     0.01230     0.19111     0.00184
  Local  -15654.24817-15365.14193 16576.49469    35.37150   233.48974   -49.76320
  n-local  -834.47638  -840.47622  -875.44843    -0.19499    -4.50620     0.42081
  augment  3330.89551  3334.85437  3433.19694     0.65106     4.90051    -0.06133
  Kinetic  5993.31764  6003.73455  6256.71854     1.52120     3.58262    -0.96229
  Fock        0.00000     0.00000     0.00000     0.00000     0.00000     0.00000
  -------------------------------------------------------------------------------------
  Total       30.7141882     28.1475019     21.4653811      0.7079042     -7.4518695      0.3328317
  in kB       87.7988161     80.4617503     61.3604059      2.0235975    -21.3017293      0.9514244
  external PRESSURE =      76.5403241 kB  Pullay stress =       0.0000000 kB


 VOLUME and BASIS-vectors are now :
 -----------------------------------------------------------------------------
  energy-cutoff  :      500.00
  volume of cell :      560.48
      direct lattice vectors                 reciprocal lattice vectors
     8.362870000  0.000000000  0.000000000     0.119576174  0.069037336  0.000000000
    -4.181435000  7.242457870  0.000000000     0.000000000  0.138074673  0.000000000
     0.000000000  0.000000000  9.253790000     0.000000000  0.000000000  0.108063831

  length of vectors
     8.362870000  8.362870001  9.253790000     0.138074673  0.138074673  0.108063831


 FORCES acting on ions
    electron-ion (+dipol)            ewald-force                    non-local-force                 convergence-correction
 -----------------------------------------------------------------------------------------------
   0.302E+01 -.242E+01 -.235E+02   -.563E+01 0.403E+01 0.220E+02   -.954E+00 0.771E+00 -.848E+00   0.294E-02 -.278E-01 -.462E-02
   -.242E+02 -.394E+01 0.391E+02   0.239E+02 0.239E+01 -.383E+02   -.461E+00 0.177E+00 -.433E+00   0.198E-02 0.777E-02 0.565E-02
   -.491E+02 -.135E+02 0.344E+02   0.521E+02 0.134E+02 -.366E+02   -.356E+00 0.109E+00 -.359E+00   0.141E-02 0.381E-01 -.163E-01
   0.506E+02 0.301E+02 -.679E+02   -.551E+02 -.307E+02 0.681E+02   -.122E+00 -.264E+00 -.808E-01   0.533E-02 0.231E-01 0.390E-02
   0.524E+02 -.438E+02 -.169E+02   -.534E+02 0.460E+02 0.164E+02   -.660E+00 0.280E+00 -.979E+00   0.159E-01 0.567E-02 -.852E-02
   -.558E+02 -.829E+02 0.367E+02   0.590E+02 0.853E+02 -.373E+02   -.370E+00 -.478E+00 0.386E+00   0.176E-01 -.156E-01 0.968E-02
   0.100E+02 0.752E+01 0.400E+02   -.118E+02 -.702E+01 -.397E+02   0.655E+00 -.744E-01 0.137E+01   -.286E-01 -.467E-01 -.111E-01
   0.601E+02 0.467E+02 -.422E+02   -.609E+02 -.488E+02 0.434E+02   0.841E+00 0.701E+00 0.122E+00   -.240E-01 -.103E-01 0.106E-01
   0.333E+01 -.929E+02 -.255E+02   -.298E+01 0.973E+02 0.255E+02   -.327E+00 0.242E+00 0.202E+00   -.214E-01 0.121E-01 -.142E-01
   -.103E+03 0.111E+02 0.519E+01   0.109E+03 -.115E+02 -.498E+01   0.196E+00 -.568E+00 0.544E+00   -.268E-01 0.565E-02 0.526E-02
   0.481E+01 0.108E+03 -.142E+02   -.305E+01 -.117E+03 0.107E+02   0.313E-01 0.134E+01 -.175E+01   -.230E-01 -.159E-01 -.131E-01
   -.204E+02 0.158E+02 -.628E+02   0.211E+02 -.147E+02 0.630E+02   0.284E-01 -.285E+00 -.122E+01   -.160E-01 -.294E-01 0.563E-02
   -.266E+02 -.931E+01 0.602E+02   0.296E+02 0.777E+01 -.624E+02   0.362E+00 -.935E+00 -.434E-01   0.221E-01 -.259E-01 -.108E-01
   -.818E+02 0.357E+02 0.164E+01   0.848E+02 -.386E+02 0.547E+00   -.112E+01 -.205E+00 0.127E+01   0.226E-01 -.384E-02 0.939E-03
   0.696E+02 -.813E+01 0.807E+02   -.743E+02 0.829E+01 -.810E+02   -.673E-01 -.327E+00 0.263E+00   0.215E-01 0.451E-01 -.151E-01
   0.531E+02 -.710E+02 -.263E+02   -.546E+02 0.753E+02 0.263E+02   -.566E-01 0.896E-01 -.132E+01   0.808E-02 0.314E-01 -.130E-02
   0.569E+02 0.942E+02 -.273E+01   -.636E+02 -.974E+02 0.334E+01   -.909E+00 0.711E+00 -.983E+00   0.169E-01 0.182E-01 -.759E-02
   0.689E+02 0.540E+02 -.768E+02   -.725E+02 -.561E+02 0.782E+02   0.527E+00 0.518E+00 0.238E+00   -.129E-02 -.616E-02 -.307E-02
   0.317E+02 -.138E+02 -.371E+03   -.349E+02 0.132E+02 0.399E+03   0.196E+01 -.260E+00 -.251E+02   -.133E-01 -.968E-02 0.157E-01
   0.444E+02 -.154E+02 0.350E+03   -.469E+02 0.178E+02 -.377E+03   -.971E+00 -.200E+01 0.267E+02   -.174E-01 -.369E-02 0.778E-02
   -.225E+02 0.116E+02 -.398E+03   0.240E+02 -.139E+02 0.429E+03   -.606E+00 0.279E+01 -.309E+02   -.307E-01 0.153E-01 -.241E-01
   -.102E+02 0.354E+01 0.415E+03   0.937E+01 -.428E+01 -.445E+03   0.147E+01 -.641E+00 0.299E+02   -.154E-01 -.187E-01 -.265E-01
   -.505E+02 -.225E+01 -.355E+03   0.544E+02 0.131E+01 0.384E+03   -.244E+01 0.107E+01 -.264E+02   -.264E-01 0.301E-01 -.145E-01
   -.118E+02 -.283E+02 0.393E+03   0.103E+02 0.332E+02 -.424E+03   0.185E+01 -.413E+01 0.315E+02   -.360E-01 -.747E-02 0.350E-01
   -.155E+02 -.111E+02 -.397E+03   0.142E+02 0.118E+02 0.425E+03   0.214E+01 -.788E+00 -.279E+02   -.405E-03 -.254E-01 -.238E-01
   0.108E+02 -.469E+02 0.356E+03   -.113E+02 0.511E+02 -.379E+03   -.917E+00 -.419E+01 0.241E+02   -.171E-01 0.217E-01 -.188E-01
   -.270E+02 0.269E+02 -.387E+03   0.313E+02 -.290E+02 0.416E+03   -.291E+01 0.341E+00 -.278E+02   -.116E-01 -.401E-01 -.375E-02
   0.264E+02 0.331E+01 0.356E+03   -.280E+02 -.438E+01 -.383E+03   0.701E+00 0.735E+00 0.264E+02   -.775E-02 -.258E-01 0.105E-01
   -.301E+02 -.104E+02 -.359E+03   0.321E+02 0.994E+01 0.385E+03   -.127E+01 0.741E+00 -.270E+02   -.934E-02 -.118E-01 -.557E-02
   -.419E+02 0.137E+02 0.394E+03   0.449E+02 -.166E+02 -.421E+03   -.142E+01 0.376E+01 0.275E+02   -.260E-01 -.335E-01 0.707E-02
   -.209E+02 0.102E+02 -.360E+03   0.240E+02 -.116E+02 0.386E+03   -.220E+01 0.183E-02 -.268E+02   0.211E-03 0.135E-02 0.228E-01
   0.268E+02 -.793E+01 0.398E+03   -.313E+02 0.915E+01 -.430E+03   0.323E+01 -.548E+00 0.297E+02   0.141E-02 0.718E-02 0.258E-02
   0.692E+02 -.534E+02 -.367E+03   -.762E+02 0.575E+02 0.393E+03   0.596E+01 -.318E+01 -.252E+02   -.603E-02 0.797E-02 0.545E-03
   -.751E+01 -.253E+02 0.406E+03   0.856E+01 0.284E+02 -.436E+03   0.388E+00 -.110E+01 0.281E+02   -.983E-02 0.268E-02 -.330E-01
   0.173E+02 0.398E+02 -.322E+03   -.157E+02 -.445E+02 0.345E+03   -.199E+01 0.371E+01 -.217E+02   -.241E-01 0.990E-02 0.153E-01
   0.173E+02 0.451E+02 0.318E+03   -.169E+02 -.490E+02 -.342E+03   -.100E+01 0.259E+01 0.246E+02   0.224E-02 0.112E-01 0.107E-01
   -.231E+02 0.164E+02 -.385E+03   0.256E+02 -.172E+02 0.412E+03   -.284E+01 0.192E+00 -.273E+02   -.912E-02 0.551E-02 -.803E-02
   -.363E+02 -.511E+02 0.379E+03   0.393E+02 0.572E+02 -.404E+03   0.506E+00 -.481E+01 0.248E+02   0.470E-02 0.828E-02 -.317E-01
   0.134E+02 -.428E+02 -.374E+03   -.146E+02 0.528E+02 0.406E+03   -.544E+00 -.561E+01 -.277E+02   -.141E-01 -.431E-01 0.109E-01
   0.317E+01 0.327E+01 0.345E+03   -.368E+01 -.446E+01 -.370E+03   0.637E-01 0.155E+01 0.248E+02   0.107E-02 -.165E-01 0.878E-02
   0.459E+00 0.251E+02 -.397E+03   0.543E+00 -.246E+02 0.425E+03   -.163E+01 -.128E+01 -.261E+02   -.294E-02 -.226E-01 0.449E-02
   0.467E+02 0.297E+02 0.389E+03   -.483E+02 -.318E+02 -.414E+03   -.374E+00 0.257E+01 0.237E+02   -.163E-01 -.158E-01 -.222E-01
   -.744E+01 0.345E+01 -.384E+03   0.779E+01 -.293E+01 0.415E+03   -.441E+00 -.423E+00 -.303E+02   0.100E-01 0.281E-01 0.203E-01
   -.346E+02 0.190E+01 0.359E+03   0.377E+02 0.163E+00 -.386E+03   -.152E+01 -.134E+01 0.272E+02   0.195E-01 0.325E-01 0.241E-01
   -.497E+02 0.114E+02 -.393E+03   0.546E+02 -.131E+02 0.419E+03   -.307E+01 0.987E+00 -.281E+02   0.268E-01 0.253E-01 -.156E-01
   0.314E+02 -.160E+02 0.385E+03   -.323E+02 0.149E+02 -.410E+03   -.870E+00 0.210E+01 0.251E+02   0.209E-01 -.543E-03 -.210E-01
   -.119E+02 0.312E+02 -.373E+03   0.124E+02 -.370E+02 0.403E+03   0.258E+01 0.504E+01 -.296E+02   0.464E-01 0.144E-01 0.831E-02
   0.538E+01 0.231E+02 0.360E+03   -.618E+01 -.262E+02 -.387E+03   0.101E+01 0.188E+01 0.266E+02   0.326E-01 0.343E-02 0.273E-01
   0.455E+02 0.400E+02 -.395E+03   -.484E+02 -.438E+02 0.424E+03   0.748E+00 0.226E+01 -.271E+02   0.141E-01 0.998E-02 -.673E-02
   -.986E+01 0.188E+01 0.411E+03   0.129E+02 -.106E+01 -.441E+03   -.294E+01 -.143E+01 0.298E+02   0.849E-02 0.455E-01 0.129E-03
   0.897E+01 -.195E+02 -.366E+03   -.106E+02 0.218E+02 0.393E+03   0.291E+01 -.217E+01 -.227E+02   0.244E-01 0.147E-02 0.159E-01
   -.270E+02 -.539E+02 0.381E+03   0.293E+02 0.578E+02 -.411E+03   0.168E+00 -.193E+01 0.277E+02   0.738E-02 -.281E-02 0.113E-01
   0.244E+02 -.319E+02 -.375E+03   -.266E+02 0.356E+02 0.401E+03   0.227E+01 -.165E+01 -.263E+02   0.124E-01 -.400E-02 -.522E-02
   -.517E+02 0.185E+02 0.423E+03   0.563E+02 -.162E+02 -.455E+03   -.170E+00 -.228E+01 0.302E+02   0.365E-01 0.247E-02 -.127E-01
 -----------------------------------------------------------------------------------------------
   0.496E+01 0.563E+01 -.409E+00   -.504E-12 0.174E-12 0.568E-13   -.494E+01 -.565E+01 0.510E+00   -.291E-01 0.819E-02 -.780E-01
 
 
 POSITION                                       TOTAL-FORCE (eV/Angst)
 -----------------------------------------------------------------------------------
     -4.07859      7.21817      0.04953        -3.560786      2.350599     -2.426659
      0.03168      0.01787      4.62255        -0.773290     -1.361236      0.347114
      6.95473      2.43356      0.06568         2.605042     -0.014005     -2.586846
     -1.29643      2.45888      4.65703        -4.664218     -0.873585      0.180080
      5.53034      4.74771      0.09809        -1.558184      2.480676     -1.454431
      5.53280      4.80629      4.60360         2.846250      1.940679     -0.181360
     -1.41283      7.20163      9.21012        -1.196051      0.375514      1.631939
      2.82429      0.01565      4.59348         0.041363     -1.316651      1.295326
      1.42390      2.31706      0.03359         0.010148      4.605472      0.182063
      1.18406      2.47197      4.55526         6.471031     -0.963694      0.758915
     -0.01369      4.96586      0.20575         1.773211     -7.133140     -5.208328
     -0.01551      4.83485      4.66340         0.710350      0.813892     -1.009636
      5.50782      0.12214      0.03540         3.373694     -2.498093     -2.203521
      5.59248      0.07975      4.53509         1.839219     -3.106916      3.459112
      4.26601      2.41867      9.25214        -4.823462     -0.114721     -0.088155
      4.24641      2.29243      4.67657        -1.595430      4.430672     -1.290631
      2.93238      4.90937      0.09119        -7.573238     -2.454179     -0.375691
      2.85057      4.81348      4.65050        -3.083604     -1.591169      1.586232
      0.06530      1.64001      0.82940        -1.336168     -0.927931      3.185504
      1.59264      0.80184      3.67895        -3.549403      0.478002     -0.896186
     -0.05040      1.55916      5.58176         0.950174      0.490179      0.099321
      1.38946      0.83736      8.29031         0.581284     -1.403082     -0.137923
     -1.50350      4.00922      0.92267         1.404654      0.159395      2.316053
     -0.10199      3.22513      3.56997         0.331130      0.807667      0.659578
     -1.45512      4.06993      5.56515         0.899877     -0.099523      0.291786
      0.10288      3.30035      8.39394        -1.424599      0.022356      0.893413
     -2.79919      6.48506      0.93194         1.347082     -1.836254      1.285147
     -1.33663      5.64970      3.71749        -0.966253     -0.361966     -0.498536
     -2.84369      6.42478      5.66283         0.769832      0.255614     -1.741138
     -1.56100      5.51888      8.34056         1.476894      0.817759      0.162640
      2.79997      1.65444      1.01755         0.890229     -1.385672     -0.907752
      4.25841      0.79392      3.71760        -1.248057      0.676555     -2.144159
      2.81364      1.56493      5.47260        -1.122877      0.933366      1.303717
      4.08278      0.70328      8.36714         1.428444      2.091567     -1.745999
      1.48196      4.14427      0.99580        -0.465903     -0.977936      0.726387
      2.82926      3.27663      3.68504        -0.527057     -1.278392      0.150673
      1.37560      4.04184      5.59950        -0.294625     -0.612673     -0.582710
      2.61439      3.11902      8.34173         3.446795      1.284017     -0.272091
      0.03219      6.44398      0.84619        -1.730708      4.301574      4.129034
      1.44736      5.58567      3.75596        -0.446045      0.342621     -1.011908
      0.08479      6.50390      5.41513        -0.636329     -0.720643      2.131857
      1.51393      5.64871      8.47104        -1.970689      0.447247     -0.941607
      5.57833      1.65777      0.94243        -0.084361      0.126953      1.039047
      6.94574      0.83398      3.71423         1.611786      0.748931     -0.679345
      5.49220      1.61898      5.75141         1.885006     -0.751011     -1.337994
      7.12892      0.81508      8.36735        -1.708658      0.936167     -0.296100
      4.04226      3.99960      1.01346         3.210848     -0.798648      0.514293
      5.61485      3.23336      3.73753         0.243870     -1.218141     -0.555239
      4.29781      4.02104      5.47116        -2.173845     -1.573958      2.376998
      5.56863      3.25262      8.31123         0.095679     -0.561373      0.156451
      2.74525      6.56112      0.78503         1.336085      0.074204      3.710165
      4.09113      5.56907      3.77150         2.379339      1.949865     -2.300635
      2.79606      6.34823      5.59348         0.069411      1.980826     -0.426533
      3.97632      5.70410      8.31053         4.485113      0.012221     -1.271733
 -----------------------------------------------------------------------------------
    total drift:                               -0.011536     -0.008584      0.022553


--------------------------------------------------------------------------------------------------------



  FREE ENERGIE OF THE ION-ELECTRON SYSTEM (eV)
  ---------------------------------------------------
  free  energy   TOTEN  =      -327.4756133277 eV

  energy  without entropy=     -327.4756133277  energy(sigma->0) =     -327.47561333
 


--------------------------------------------------------------------------------------------------------


    POTLOK:  cpu time    0.0848: real time    0.0850


--------------------------------------------------------------------------------------------------------


     LOOP+:  cpu time 1259.6006: real time 1262.7990
    4ORBIT:  cpu time    0.0000: real time    0.0000

volume of typ            1:    20.5 %

volume of typ            2:    10.5 %
 
total charge     
 
# of ion       s       p       d       tot
------------------------------------------
    1        0.332   0.489   7.850   8.671
    2        0.288   0.383   7.817   8.489
    3        0.306   0.422   7.829   8.557
    4        0.306   0.420   7.838   8.565
    5        0.311   0.425   7.848   8.585
    6        0.325   0.467   7.840   8.633
    7        0.309   0.432   7.841   8.582
    8        0.326   0.472   7.839   8.637
    9        0.337   0.501   7.842   8.680
   10        0.285   0.368   7.828   8.481
   11        0.314   0.427   7.845   8.586
   12        0.305   0.422   7.826   8.552
   13        0.319   0.454   7.854   8.627
   14        0.322   0.458   7.842   8.622
   15        0.295   0.395   7.833   8.523
   16        0.315   0.439   7.834   8.588
   17        0.344   0.509   7.866   8.720
   18        0.334   0.491   7.839   8.665
   19        1.276   2.783   0.011   4.070
   20        1.285   2.728   0.009   4.021
   21        1.285   2.742   0.010   4.037
   22        1.290   2.728   0.010   4.028
   23        1.280   2.762   0.011   4.052
   24        1.289   2.724   0.010   4.024
   25        1.285   2.731   0.009   4.025
   26        1.292   2.686   0.006   3.984
   27        1.278   2.768   0.010   4.056
   28        1.280   2.744   0.008   4.032
   29        1.291   2.684   0.006   3.982
   30        1.291   2.705   0.008   4.004
   31        1.290   2.696   0.007   3.994
   32        1.285   2.766   0.012   4.063
   33        1.286   2.727   0.009   4.022
   34        1.281   2.764   0.011   4.056
   35        1.288   2.696   0.006   3.990
   36        1.289   2.692   0.006   3.988
   37        1.286   2.714   0.007   4.007
   38        1.291   2.706   0.008   4.005
   39        1.279   2.807   0.015   4.102
   40        1.286   2.720   0.008   4.014
   41        1.282   2.761   0.010   4.052
   42        1.295   2.701   0.008   4.004
   43        1.281   2.766   0.011   4.058
   44        1.279   2.752   0.009   4.040
   45        1.294   2.686   0.007   3.987
   46        1.290   2.708   0.007   4.006
   47        1.284   2.750   0.010   4.044
   48        1.285   2.730   0.008   4.024
   49        1.283   2.761   0.011   4.055
   50        1.287   2.730   0.009   4.027
   51        1.280   2.767   0.011   4.057
   52        1.281   2.769   0.011   4.061
   53        1.292   2.698   0.007   3.996
   54        1.291   2.743   0.011   4.044
--------------------------------------------------
tot          51.96  106.37  141.44  299.78
 

 total amount of memory used by VASP MPI-rank0   181713. kBytes
=======================================================================

   base      :      30000. kBytes
   nonlr-proj:      32321. kBytes
   fftplans  :       6058. kBytes
   grid      :      19644. kBytes
   one-center:        839. kBytes
   wavefun   :      92851. kBytes
 
  
  
 General timing and accounting informations for this job:
 ========================================================
  
                  Total CPU time used (sec):     1286.175
                            User time (sec):     1283.458
                          System time (sec):        2.718
                         Elapsed time (sec):     1293.054
  
                   Maximum memory used (kb):      244736.
                   Average memory used (kb):           0.
  
                          Minor page faults:        36574
                          Major page faults:           19
                 Voluntary context switches:         1187
