 vasp.5.4.4.18Apr17-6-g9f103f2a35 (build May 12 2020 04:58:55) complex          
  
 MD_VERSION_INFO: Compiled 2020-05-12T11:58:55-UTC in devlin.sd.materialsdesign.
 com:/home/medea2/data/build/wwolf/vasp-gpu5.4.4/13047/x86_64/src/src/build/std 
 from svn 13047
 
 This VASP executable licensed from Materials Design, Inc.
 
 executed on                        Lin64 date 2023.04.27  09:53:24
 running on   16 total cores
 distrk:  each k-point on   16 cores,    1 groups
 distr:  one band on NCORES_PER_BAND=   1 cores,   16 groups


--------------------------------------------------------------------------------------------------------


 INCAR:
 POTCAR:    PAW_PBE Ni 02Aug2007                  
 POTCAR:    PAW_PBE O 08Apr2002                   

 ----------------------------------------------------------------------------- 
|                                                                             |
|           W    W    AA    RRRRR   N    N  II  N    N   GGGG   !!!           |
|           W    W   A  A   R    R  NN   N  II  NN   N  G    G  !!!           |
|           W    W  A    A  R    R  N N  N  II  N N  N  G       !!!           |
|           W WW W  AAAAAA  RRRRR   N  N N  II  N  N N  G  GGG   !            |
|           WW  WW  A    A  R   R   N   NN  II  N   NN  G    G                |
|           W    W  A    A  R    R  N    N  II  N    N   GGGG   !!!           |
|                                                                             |
|      For optimal performance we recommend to set                            |
|        NCORE= 4 - approx SQRT( number of cores)                             |
|      NCORE specifies how many cores store one orbital (NPAR=cpu/NCORE).     |
|      This setting can  greatly improve the performance of VASP for DFT.     |
|      The default,   NCORE=1            might be grossly inefficient         |
|      on modern multi-core architectures or massively parallel machines.     |
|      Do your own testing !!!!                                               |
|      Unfortunately you need to use the default for GW and RPA calculations. |
|      (for HF NCORE is supported but not extensively tested yet)             |
|                                                                             |
 ----------------------------------------------------------------------------- 

 POTCAR:    PAW_PBE Ni 02Aug2007                  
  local pseudopotential read in
  partial core-charges read in
  partial kinetic energy density read in
  atomic valenz-charges read in
  non local Contribution for L=           2  read in
    real space projection operators read in
  non local Contribution for L=           2  read in
    real space projection operators read in
  non local Contribution for L=           0  read in
    real space projection operators read in
  non local Contribution for L=           0  read in
    real space projection operators read in
  non local Contribution for L=           1  read in
    real space projection operators read in
  non local Contribution for L=           1  read in
    real space projection operators read in
    PAW grid and wavefunctions read in
 
   number of l-projection  operators is LMAX  =           6
   number of lm-projection operators is LMMAX =          18
 
 POTCAR:    PAW_PBE O 08Apr2002                   
  local pseudopotential read in
  partial core-charges read in
  partial kinetic energy density read in
  kinetic energy density of atom read in
  atomic valenz-charges read in
  non local Contribution for L=           0  read in
    real space projection operators read in
  non local Contribution for L=           0  read in
    real space projection operators read in
  non local Contribution for L=           1  read in
    real space projection operators read in
  non local Contribution for L=           1  read in
    real space projection operators read in
    PAW grid and wavefunctions read in
 
   number of l-projection  operators is LMAX  =           4
   number of lm-projection operators is LMMAX =           8
 
 Optimization of the real space projectors (new method)

 maximal supplied QI-value         = 16.25
 optimisation between [QCUT,QGAM] = [ 11.38, 22.75] = [ 36.24,144.96] Ry 
 Optimized for a Real-space Cutoff    1.47 Angstroem

   l    n(q)    QCUT    max X(q) W(low)/X(q) W(high)/X(q)  e(spline) 
   2      9    11.376    60.317    0.17E-03    0.16E-04    0.16E-06
   2      9    11.376    55.921    0.17E-03    0.16E-04    0.17E-06
   0     10    11.376    51.690    0.45E-04    0.60E-04    0.21E-06
   0     10    11.376    30.015    0.37E-04    0.55E-04    0.19E-06
   1     10    11.376    18.849    0.83E-04    0.11E-03    0.92E-07
   1     10    11.376    14.624    0.69E-04    0.92E-04    0.82E-07
 Optimization of the real space projectors (new method)

 maximal supplied QI-value         = 24.76
 optimisation between [QCUT,QGAM] = [ 11.39, 22.77] = [ 36.31,145.25] Ry 
 Optimized for a Real-space Cutoff    1.10 Angstroem

   l    n(q)    QCUT    max X(q) W(low)/X(q) W(high)/X(q)  e(spline) 
   0      7    11.387    20.381    0.22E-03    0.48E-03    0.18E-06
   0      7    11.387    15.268    0.22E-03    0.52E-03    0.19E-06
   1      7    11.387     5.964    0.22E-03    0.73E-03    0.24E-06
   1      7    11.387     5.382    0.19E-03    0.60E-03    0.21E-06

 ----------------------------------------------------------------------------- 
|                                                                             |
|  ADVICE TO THIS USER RUNNING 'VASP/VAMP'   (HEAR YOUR MASTER'S VOICE ...):  |
|                                                                             |
|      You enforced a specific xc-type in the INCAR file,                     |
|      a different type was found on the POTCAR file                          |
|          I HOPE YOU KNOW, WHAT YOU ARE  DOING                               |
|                                                                             |
 ----------------------------------------------------------------------------- 

  PAW_PBE Ni 02Aug2007                  :
 energy of atom  1       EATOM=-1077.6739
 kinetic energy error for atom=    0.0030 (will be added to EATOM!!)
  PAW_PBE O 08Apr2002                   :
 energy of atom  2       EATOM= -432.3788
 kinetic energy error for atom=    0.0224 (will be added to EATOM!!)
 
 
 POSCAR: NiO2_C2_m_scale_1_000_disp_0_04_round_1 
  positions in direct lattice
  No initial velocities read in
 exchange correlation table for  LEXCH =       14
   RHO(1)=    0.500       N(1)  =     2000
   RHO(2)=  100.500       N(2)  =     4000
 


--------------------------------------------------------------------------------------------------------


 ion  position               nearest neighbor table
   1  0.004  0.006  0.996-  22 1.80  46 1.81  19 1.82  27 1.85  51 1.87  54 1.90   9 2.65  17 2.76
                            13 2.79   7 2.82   3 2.83   5 2.91
   2  0.995  0.995  0.499-  53 1.76  29 1.85  44 1.86  21 1.86  20 1.87  52 1.88   6 2.70   8 2.71
                            18 2.73   4 2.76  10 2.81  14 2.84
   3  0.002  0.343  0.991-  50 1.75  26 1.80  23 1.87  43 1.92  46 1.94  19 1.98   5 2.62  11 2.68
                             9 2.76  15 2.76   1 2.83  13 2.86
   4  0.002  0.328  0.499-  21 1.82  44 1.83  24 1.87  45 1.87  25 1.94  48 1.95  10 2.74   2 2.76
                            14 2.81  12 2.82  16 2.84   6 2.90
   5  0.007  0.659  0.000-  23 1.79  50 1.80  30 1.84  47 1.92  54 1.93  27 1.98   3 2.62  11 2.71
                             7 2.80  15 2.81  17 2.87   1 2.91
   6  0.997  0.673  0.495-  52 1.75  28 1.84  29 1.86  49 1.87  48 1.88  25 1.95  18 2.67   2 2.70
                             8 2.82  16 2.82  12 2.85   4 2.90
   7  0.337  0.998  0.010-  39 1.75  31 1.81  27 1.81  34 1.83  30 1.88  22 1.91  13 2.76  15 2.76
                             9 2.79   5 2.80  11 2.82   1 2.82
   8  0.329  0.016  0.503-  20 1.71  33 1.75  29 1.88  32 1.92  28 1.96  41 2.04  10 2.63   2 2.71
                            16 2.73  14 2.82   6 2.82  12 2.93
   9  0.320  0.322  0.002-  19 1.73  31 1.78  22 1.84  35 1.87  26 1.91  38 2.00   1 2.65   3 2.76
                            11 2.76   7 2.79  15 2.86  17 2.96
  10  0.331  0.330  0.509-  21 1.76  33 1.80  37 1.84  20 1.87  36 1.89  24 1.96   8 2.63   4 2.74
                            16 2.78  12 2.81   2 2.81  18 2.82
  11  0.329  0.657  0.007-  23 1.79  26 1.83  35 1.86  39 1.88  42 1.92  30 1.99   3 2.68   5 2.71
                             9 2.76  17 2.79   7 2.82  13 2.83
  12  0.336  0.669  0.502-  41 1.83  25 1.83  40 1.85  37 1.89  28 1.91  24 1.94  14 2.73  10 2.81
                             4 2.82  18 2.84   6 2.85   8 2.93
  13  0.666  0.997  0.001-  42 1.73  51 1.81  34 1.85  39 1.86  43 1.88  46 1.93  17 2.69   7 2.76
                            15 2.78   1 2.79  11 2.83   3 2.86
  14  0.658  0.001  0.492-  32 1.74  40 1.82  41 1.83  45 1.84  44 1.89  53 1.95  12 2.73  16 2.75
                             4 2.81   8 2.82   2 2.84  18 2.89
  15  0.666  0.329  0.002-  43 1.82  50 1.82  31 1.88  34 1.89  47 1.91  38 1.92   3 2.76   7 2.76
                            13 2.78   5 2.81   9 2.86  17 2.89
  16  0.664  0.332  0.498-  45 1.83  36 1.85  49 1.85  48 1.86  33 1.89  32 1.89   8 2.73  18 2.73
                            14 2.75  10 2.78   6 2.82   4 2.84
  17  0.673  0.678  0.005-  51 1.80  54 1.81  42 1.82  35 1.93  47 1.94  38 1.96  13 2.69   1 2.76
                            11 2.79   5 2.87  15 2.89   9 2.96
  18  0.673  0.663  0.507-  49 1.78  53 1.81  37 1.82  36 1.86  52 1.88  40 1.96   6 2.67  16 2.73
                             2 2.73  10 2.82  12 2.84  14 2.89
  19  0.116  0.220  0.099-   9 1.73   1 1.82   3 1.98
  20  0.223  0.110  0.404-   8 1.71  10 1.87   2 1.87
  21  0.114  0.221  0.594-  10 1.76   4 1.82   2 1.86
  22  0.221  0.105  0.900-   1 1.80   9 1.84   7 1.91
  23  0.115  0.559  0.103-   5 1.79  11 1.79   3 1.87
  24  0.218  0.443  0.390-   4 1.87  12 1.94  10 1.96
  25  0.118  0.562  0.602-  12 1.83   4 1.94   6 1.95
  26  0.219  0.447  0.897-   3 1.80  11 1.83   9 1.91
  27  0.116  0.900  0.101-   7 1.81   1 1.85   5 1.98
  28  0.219  0.780  0.398-   6 1.84  12 1.91   8 1.96
  29  0.104  0.888  0.605-   2 1.85   6 1.86   8 1.88
  30  0.221  0.784  0.896-   5 1.84   7 1.88  11 1.99
  31  0.435  0.222  0.095-   9 1.78   7 1.81  15 1.88
  32  0.555  0.105  0.397-  14 1.74  16 1.89   8 1.92
  33  0.439  0.221  0.602-   8 1.75  10 1.80  16 1.89
  34  0.549  0.102  0.902-   7 1.83  13 1.85  15 1.89
  35  0.441  0.544  0.105-  11 1.86   9 1.87  17 1.93
  36  0.553  0.445  0.401-  16 1.85  18 1.86  10 1.89
  37  0.451  0.556  0.600-  18 1.82  10 1.84  12 1.89
  38  0.559  0.448  0.893-  15 1.92  17 1.96   9 2.00
  39  0.441  0.888  0.098-   7 1.75  13 1.86  11 1.88
  40  0.555  0.779  0.399-  14 1.82  12 1.85  18 1.96
  41  0.449  0.886  0.603-  14 1.83  12 1.83   8 2.04
  42  0.562  0.788  0.910-  13 1.73  17 1.82  11 1.92
  43  0.777  0.223  0.100-  15 1.82  13 1.88   3 1.92
  44  0.890  0.111  0.398-   4 1.83   2 1.86  14 1.89
  45  0.773  0.220  0.592-  16 1.83  14 1.84   4 1.87
  46  0.894  0.107  0.892-   1 1.81  13 1.93   3 1.94
  47  0.782  0.555  0.110-  15 1.91   5 1.92  17 1.94
  48  0.885  0.447  0.396-  16 1.86   6 1.88   4 1.95
  49  0.777  0.552  0.600-  18 1.78  16 1.85   6 1.87
  50  0.885  0.442  0.906-   3 1.75   5 1.80  15 1.82
  51  0.781  0.895  0.099-  17 1.80  13 1.81   1 1.87
  52  0.890  0.771  0.395-   6 1.75  18 1.88   2 1.88
  53  0.782  0.888  0.592-   2 1.76  18 1.81  14 1.95
  54  0.885  0.773  0.901-  17 1.81   1 1.90   5 1.93
 
  LATTYP: Found a hexagonal cell.
 ALAT       =     8.3628700013
 C/A-ratio  =     1.1065328050
  
  Lattice vectors:
  
 A1 = (   8.3628700000,   0.0000000000,   0.0000000000)
 A2 = (  -4.1814350000,   7.2424578700,   0.0000000000)
 A3 = (   0.0000000000,   0.0000000000,   9.2537900000)


Analysis of symmetry for initial positions (statically):
=====================================================================
 Subroutine PRICEL returns:
 Original cell was already a primitive cell.
 

 Routine SETGRP: Setting up the symmetry group for a 
 hexagonal supercell.


 Subroutine GETGRP returns: Found  1 space group operations
 (whereof  1 operations were pure point group operations)
 out of a pool of 24 trial point group operations.


The static configuration has the point symmetry C_1 .


Analysis of symmetry for dynamics (positions and initial velocities):
=====================================================================
 Subroutine PRICEL returns:
 Original cell was already a primitive cell.
 

 Routine SETGRP: Setting up the symmetry group for a 
 hexagonal supercell.


 Subroutine GETGRP returns: Found  1 space group operations
 (whereof  1 operations were pure point group operations)
 out of a pool of 24 trial point group operations.


The dynamic configuration has the point symmetry C_1 .


 Subroutine INISYM returns: Found  1 space group operations
 (whereof  1 operations are pure point group operations),
 and found     1 'primitive' translations

 
 
 KPOINTS: Automatic mesh                          

Automatic generation of k-mesh.
Space group operators:
 irot       det(A)        alpha          n_x          n_y          n_z        tau_x        tau_y        tau_z
    1     1.000000     0.000000     1.000000     0.000000     0.000000     0.000000     0.000000     0.000000
 
 Subroutine IBZKPT returns following result:
 ===========================================
 
 Found     26 irreducible k-points:
 
 Following reciprocal coordinates:
            Coordinates               Weight
  0.000000  0.000000  0.000000      1.000000
  0.250000  0.000000  0.000000      2.000000
  0.500000  0.000000  0.000000      1.000000
  0.000000  0.250000  0.000000      2.000000
  0.250000  0.250000  0.000000      2.000000
  0.500000  0.250000  0.000000      2.000000
 -0.250000  0.250000  0.000000      2.000000
  0.000000  0.500000  0.000000      1.000000
  0.250000  0.500000  0.000000      2.000000
  0.500000  0.500000  0.000000      1.000000
  0.000000  0.000000  0.333333      2.000000
  0.250000  0.000000  0.333333      2.000000
  0.500000  0.000000  0.333333      2.000000
 -0.250000  0.000000  0.333333      2.000000
  0.000000  0.250000  0.333333      2.000000
  0.250000  0.250000  0.333333      2.000000
  0.500000  0.250000  0.333333      2.000000
 -0.250000  0.250000  0.333333      2.000000
  0.000000  0.500000  0.333333      2.000000
  0.250000  0.500000  0.333333      2.000000
  0.500000  0.500000  0.333333      2.000000
 -0.250000  0.500000  0.333333      2.000000
  0.000000 -0.250000  0.333333      2.000000
  0.250000 -0.250000  0.333333      2.000000
  0.500000 -0.250000  0.333333      2.000000
 -0.250000 -0.250000  0.333333      2.000000
 
 Following cartesian coordinates:
            Coordinates               Weight
  0.000000  0.000000  0.000000      1.000000
  0.029894  0.017259  0.000000      2.000000
  0.059788  0.034519  0.000000      1.000000
  0.000000  0.034519  0.000000      2.000000
  0.029894  0.051778  0.000000      2.000000
  0.059788  0.069037  0.000000      2.000000
 -0.029894  0.017259  0.000000      2.000000
  0.000000  0.069037  0.000000      1.000000
  0.029894  0.086297  0.000000      2.000000
  0.059788  0.103556  0.000000      1.000000
  0.000000  0.000000  0.036021      2.000000
  0.029894  0.017259  0.036021      2.000000
  0.059788  0.034519  0.036021      2.000000
 -0.029894 -0.017259  0.036021      2.000000
  0.000000  0.034519  0.036021      2.000000
  0.029894  0.051778  0.036021      2.000000
  0.059788  0.069037  0.036021      2.000000
 -0.029894  0.017259  0.036021      2.000000
  0.000000  0.069037  0.036021      2.000000
  0.029894  0.086297  0.036021      2.000000
  0.059788  0.103556  0.036021      2.000000
 -0.029894  0.051778  0.036021      2.000000
  0.000000 -0.034519  0.036021      2.000000
  0.029894 -0.017259  0.036021      2.000000
  0.059788  0.000000  0.036021      2.000000
 -0.029894 -0.051778  0.036021      2.000000
 


--------------------------------------------------------------------------------------------------------




 Dimension of arrays:
   k-points           NKPTS =     26   k-points in BZ     NKDIM =     26   number of bands    NBANDS=    240
   number of dos      NEDOS =    301   number of ions     NIONS =     54
   non local maximal  LDIM  =      6   non local SUM 2l+1 LMDIM =     18
   total plane-waves  NPLWV = 286720
   max r-space proj   IRMAX =   6918   max aug-charges    IRDMAX=  16780
   dimension x,y,z NGX =    64 NGY =   64 NGZ =   70
   dimension x,y,z NGXF=   128 NGYF=  128 NGZF=  140
   support grid    NGXF=   128 NGYF=  128 NGZF=  140
   ions per type =              18  36
   NGX,Y,Z   is equivalent  to a cutoff of  12.72, 12.72, 12.58 a.u.
   NGXF,Y,Z  is equivalent  to a cutoff of  25.45, 25.45, 25.15 a.u.

 SYSTEM =  unknown system                          
 POSCAR =  NiO2_C2_m_scale_1_000_disp_0_04_round_1 

 Startparameter for this run:
   NWRITE =      1    write-flag & timer
   PREC   = accura    normal or accurate (medium, high low for compatibility)
   ISTART =      0    job   : 0-new  1-cont  2-samecut
   ICHARG =      2    charge: 1-file 2-atom 10-const
   ISPIN  =      1    spin polarized calculation?
   LNONCOLLINEAR =      F non collinear calculations
   LSORBIT =      F    spin-orbit coupling
   INIWAV =      1    electr: 0-lowe 1-rand  2-diag
   LASPH  =      F    aspherical Exc in radial PAW
   METAGGA=      F    non-selfconsistent MetaGGA calc.

 Electronic Relaxation 1
   ENCUT  =  500.0 eV  36.75 Ry    6.06 a.u.  15.25 15.25 16.87*2*pi/ulx,y,z
   ENINI  =  500.0     initial cutoff
   ENAUG  =  605.4 eV  augmentation charge cutoff
   NELM   =    120;   NELMIN=  2; NELMDL= -5     # of ELM steps 
   EDIFF  = 0.1E-04   stopping-criterion for ELM
   LREAL  =      T    real-space projection
   NLSPLINE    = F    spline interpolate recip. space projectors
   LCOMPAT=      F    compatible to vasp.4.4
   GGA_COMPAT  = T    GGA compatible to vasp.4.4-vasp.4.6
   LMAXPAW     = -100 max onsite density
   LMAXMIX     =    2 max onsite mixed and CHGCAR
   VOSKOWN=      1    Vosko Wilk Nusair interpolation
   ROPT   =   -0.00025  -0.00025
 Ionic relaxation
   EDIFFG = 0.1E-03   stopping-criterion for IOM
   NSW    =      0    number of steps for IOM
   NBLOCK =      1;   KBLOCK =      1    inner block; outer block 
   IBRION =     -1    ionic relax: 0-MD 1-quasi-New 2-CG
   NFREE  =      0    steps in history (QN), initial steepest desc. (CG)
   ISIF   =      2    stress and relaxation
   IWAVPR =     10    prediction:  0-non 1-charg 2-wave 3-comb
   ISYM   =      2    0-nonsym 1-usesym 2-fastsym
   LCORR  =      T    Harris-Foulkes like correction to forces

   POTIM  = 0.5000    time-step for ionic-motion
   TEIN   =    0.0    initial temperature
   TEBEG  =    0.0;   TEEND  =   0.0 temperature during run
   SMASS  =  -3.00    Nose mass-parameter (am)
   estimated Nose-frequenzy (Omega)   =  0.10E-29 period in steps =****** mass=  -0.160E-26a.u.
   SCALEE = 1.0000    scale energy and forces
   NPACO  =    256;   APACO  = 16.0  distance and # of slots for P.C.
   PSTRESS=    0.0 pullay stress

  Mass of Ions in am
   POMASS =  58.69 16.00
  Ionic Valenz
   ZVAL   =  10.00  6.00
  Atomic Wigner-Seitz radii
   RWIGS  =   1.15  0.73
  virtual crystal weights 
   VCA    =   1.00  1.00
   NELECT =     396.0000    total number of electrons
   NUPDOWN=      -1.0000    fix difference up-down

 DOS related values:
   EMIN   =  10.00;   EMAX   =-10.00  energy-range for DOS
   EFERMI =   0.00
   ISMEAR =     0;   SIGMA  =   0.05  broadening in eV -4-tet -1-fermi 0-gaus

 Electronic relaxation 2 (details)
   IALGO  =     38    algorithm
   LDIAG  =      T    sub-space diagonalisation (order eigenvalues)
   LSUBROT=      F    optimize rotation matrix (better conditioning)
   TURBO    =      0    0=normal 1=particle mesh
   IRESTART =      0    0=no restart 2=restart with 2 vectors
   NREBOOT  =      0    no. of reboots
   NMIN     =      0    reboot dimension
   EREF     =   0.00    reference energy to select bands
   IMIX   =      4    mixing-type and parameters
     AMIX     =   0.40;   BMIX     =  1.00
     AMIX_MAG =   1.60;   BMIX_MAG =  1.00
     AMIN     =   0.10
     WC   =   100.;   INIMIX=   1;  MIXPRE=   1;  MAXMIX= -45

 Intra band minimization:
   WEIMIN = 0.0000     energy-eigenvalue tresh-hold
   EBREAK =  0.10E-07  absolut break condition
   DEPER  =   0.30     relativ break condition  

   TIME   =   0.40     timestep for ELM

  volume/ion in A,a.u.               =      10.38        70.04
  Fermi-wavevector in a.u.,A,eV,Ry     =   1.458096  2.755403 28.926600  2.126045
  Thomas-Fermi vector in A             =   2.574821
 
 Write flags
   LWAVE        =      F    write WAVECAR
   LDOWNSAMPLE  =      F    k-point downsampling of WAVECAR
   LCHARG       =      T    write CHGCAR
   LVTOT        =      F    write LOCPOT, total local potential
   LVHAR        =      F    write LOCPOT, Hartree potential only
   LELF         =      F    write electronic localiz. function (ELF)
   LORBIT       =      0    0 simple, 1 ext, 2 COOP (PROOUT), +10 PAW based schemes


 Dipole corrections
   LMONO  =      F    monopole corrections only (constant potential shift)
   LDIPOL =      F    correct potential (dipole corrections)
   IDIPOL =      0    1-x, 2-y, 3-z, 4-all directions 
   EPSILON=  1.0000000 bulk dielectric constant

 Exchange correlation treatment:
   GGA     =    PS    GGA type
   LEXCH   =    14    internal setting for exchange type
   VOSKOWN=      1    Vosko Wilk Nusair interpolation
   LHFCALC =     F    Hartree Fock is set to
   LHFONE  =     F    Hartree Fock one center treatment
   AEXX    =    0.0000 exact exchange contribution

 Linear response parameters
   LEPSILON=     F    determine dielectric tensor
   LRPA    =     F    only Hartree local field effects (RPA)
   LNABLA  =     F    use nabla operator in PAW spheres
   LVEL    =     F    velocity operator in full k-point grid
   LINTERFAST=   F  fast interpolation
   KINTER  =     0    interpolate to denser k-point grid
   CSHIFT  =0.1000    complex shift for real part using Kramers Kronig
   OMEGAMAX=  -1.0    maximum frequency
   DEG_THRESHOLD= 0.2000000E-02 threshold for treating states as degnerate
   RTIME   =   -0.100 relaxation time in fs
  (WPLASMAI=    0.000 imaginary part of plasma frequency in eV, 0.658/RTIME)
   DFIELD  = 0.0000000 0.0000000 0.0000000 field for delta impulse in time
 
 Orbital magnetization related:
   ORBITALMAG=     F  switch on orbital magnetization
   LCHIMAG   =     F  perturbation theory with respect to B field
   DQ        =  0.001000  dq finite difference perturbation B field
   LLRAUG    =     F  two centre corrections for induced B field



--------------------------------------------------------------------------------------------------------


 Static calculation
 charge density and potential will be updated during run
 non-spin polarized calculation
 Variant of blocked Davidson
 Davidson routine will perform the subspace rotation
 perform sub-space diagonalisation
    after iterative eigenvector-optimisation
 modified Broyden-mixing scheme, WC =      100.0
 initial mixing is a Kerker type mixing with AMIX =  0.4000 and BMIX =      1.0000
 Hartree-type preconditioning will be used
 using additional bands           42
 real space projection scheme for non local part
 use partial core corrections
 calculate Harris-corrections to forces 
   (improved forces if not selfconsistent)
 use gradient corrections 
 use of overlap-Matrix (Vanderbilt PP)
 Gauss-broadening in eV      SIGMA  =   0.05


--------------------------------------------------------------------------------------------------------


  energy-cutoff  :      500.00
  volume of cell :      560.48
      direct lattice vectors                 reciprocal lattice vectors
     8.362870000  0.000000000  0.000000000     0.119576174  0.069037336  0.000000000
    -4.181435000  7.242457870  0.000000000     0.000000000  0.138074673  0.000000000
     0.000000000  0.000000000  9.253790000     0.000000000  0.000000000  0.108063831

  length of vectors
     8.362870000  8.362870001  9.253790000     0.138074673  0.138074673  0.108063831


 
 k-points in units of 2pi/SCALE and weight: Automatic mesh                          
   0.00000000  0.00000000  0.00000000       0.021
   0.02989404  0.01725933  0.00000000       0.042
   0.05978809  0.03451867  0.00000000       0.021
   0.00000000  0.03451867  0.00000000       0.042
   0.02989404  0.05177800  0.00000000       0.042
   0.05978809  0.06903734  0.00000000       0.042
  -0.02989404  0.01725933  0.00000000       0.042
   0.00000000  0.06903734  0.00000000       0.021
   0.02989404  0.08629667  0.00000000       0.042
   0.05978809  0.10355600  0.00000000       0.021
   0.00000000  0.00000000  0.03602128       0.042
   0.02989404  0.01725933  0.03602128       0.042
   0.05978809  0.03451867  0.03602128       0.042
  -0.02989404 -0.01725933  0.03602128       0.042
   0.00000000  0.03451867  0.03602128       0.042
   0.02989404  0.05177800  0.03602128       0.042
   0.05978809  0.06903734  0.03602128       0.042
  -0.02989404  0.01725933  0.03602128       0.042
   0.00000000  0.06903734  0.03602128       0.042
   0.02989404  0.08629667  0.03602128       0.042
   0.05978809  0.10355600  0.03602128       0.042
  -0.02989404  0.05177800  0.03602128       0.042
   0.00000000 -0.03451867  0.03602128       0.042
   0.02989404 -0.01725933  0.03602128       0.042
   0.05978809  0.00000000  0.03602128       0.042
  -0.02989404 -0.05177800  0.03602128       0.042
 
 k-points in reciprocal lattice and weights: Automatic mesh                          
   0.00000000  0.00000000  0.00000000       0.021
   0.25000000  0.00000000  0.00000000       0.042
   0.50000000  0.00000000  0.00000000       0.021
   0.00000000  0.25000000  0.00000000       0.042
   0.25000000  0.25000000  0.00000000       0.042
   0.50000000  0.25000000  0.00000000       0.042
  -0.25000000  0.25000000  0.00000000       0.042
   0.00000000  0.50000000  0.00000000       0.021
   0.25000000  0.50000000  0.00000000       0.042
   0.50000000  0.50000000  0.00000000       0.021
   0.00000000  0.00000000  0.33333333       0.042
   0.25000000  0.00000000  0.33333333       0.042
   0.50000000  0.00000000  0.33333333       0.042
  -0.25000000  0.00000000  0.33333333       0.042
   0.00000000  0.25000000  0.33333333       0.042
   0.25000000  0.25000000  0.33333333       0.042
   0.50000000  0.25000000  0.33333333       0.042
  -0.25000000  0.25000000  0.33333333       0.042
   0.00000000  0.50000000  0.33333333       0.042
   0.25000000  0.50000000  0.33333333       0.042
   0.50000000  0.50000000  0.33333333       0.042
  -0.25000000  0.50000000  0.33333333       0.042
   0.00000000 -0.25000000  0.33333333       0.042
   0.25000000 -0.25000000  0.33333333       0.042
   0.50000000 -0.25000000  0.33333333       0.042
  -0.25000000 -0.25000000  0.33333333       0.042
 
 position of ions in fractional coordinates (direct lattice) 
   0.00392759  0.00567150  0.99637085
   0.99452991  0.99471512  0.49903899
   0.00211028  0.34348072  0.99112480
   0.00161187  0.32824480  0.49899582
   0.00661204  0.65929868  0.00033016
   0.99735996  0.67331013  0.49546157
   0.33722488  0.99768213  0.00991958
   0.32871547  0.01559005  0.50294318
   0.32032641  0.32241518  0.00230539
   0.33052068  0.33049384  0.50857001
   0.32933009  0.65650823  0.00694924
   0.33629108  0.66887771  0.50175269
   0.66595869  0.99650152  0.00106603
   0.65770804  0.00062995  0.49185051
   0.66588449  0.32943364  0.00157612
   0.66364094  0.33208318  0.49755543
   0.67273836  0.67781764  0.00472995
   0.67288879  0.66320458  0.50700772
   0.11570984  0.22014955  0.09867711
   0.22302800  0.10997326  0.40411379
   0.11398333  0.22099368  0.59401577
   0.22051040  0.10470101  0.90032538
   0.11496335  0.55875152  0.10321465
   0.21826698  0.44252701  0.39003986
   0.11790522  0.56179471  0.60175154
   0.21895222  0.44715729  0.89658889
   0.11613833  0.89975685  0.10075908
   0.21932681  0.78013567  0.39777023
   0.10425634  0.88836423  0.60463345
   0.22135540  0.78355784  0.89617856
   0.43512370  0.22168243  0.09515610
   0.55477512  0.10477336  0.39665086
   0.43947054  0.22104831  0.60186358
   0.54924569  0.10156819  0.90227272
   0.44067258  0.54376524  0.10544058
   0.55288311  0.44470531  0.40139136
   0.45124317  0.55554238  0.59974289
   0.55852872  0.44815119  0.89315063
   0.44109470  0.88795553  0.09818411
   0.55511272  0.77876062  0.39910959
   0.44918376  0.88591044  0.60332060
   0.56236334  0.78772482  0.90983525
   0.77718450  0.22337280  0.09972955
   0.88970732  0.11128110  0.39756537
   0.77313042  0.22035631  0.59229624
   0.89363211  0.10701255  0.89222717
   0.78189840  0.55455319  0.10979415
   0.88486257  0.44681506  0.39581042
   0.77670600  0.55184187  0.60030092
   0.88532500  0.44249334  0.90626986
   0.78131744  0.89508133  0.09907956
   0.88990706  0.77147197  0.39525402
   0.78174020  0.88790731  0.59170019
   0.88500791  0.77278290  0.90107775
 
 position of ions in cartesian coordinates  (Angst):
   0.00913092  0.04107560  9.22020661
   4.15778773  7.20418235  4.61800202
  -1.41859431  2.48764464  9.17166076
  -1.35905444  2.37729914  4.61760253
  -2.70151895  4.77494291  0.00305523
   5.52538915  4.87642025  4.58489732
  -1.35157515  7.22567079  0.09179371
   2.68381596  0.11291028  4.65413057
   1.33069001  2.33507836  0.02133359
   1.38216297  2.39358771  4.70620007
   0.00899824  4.75473320  0.06430681
   0.01548992  4.84431863  4.64311403
   1.40251962  7.21712028  0.00986482
   5.49769274  0.00456239  4.55148133
   4.19120007  2.38590926  0.01458508
   4.16135868  2.40509844  4.60427346
   2.79177305  4.90906570  0.04376996
   2.85413463  4.80323123  4.69174297
   0.04712532  1.59442384  0.91313725
   1.40530813  0.79647670  3.73958415
   0.02915706  1.60053742  5.49689719
   1.40629934  0.75829265  8.33142200
  -1.37495961  4.04673434  0.95512670
  -0.02505955  3.20498323  3.60934696
  -1.36308204  4.06877452  5.56848238
  -0.03869019  3.23851783  8.29684530
  -2.79102503  6.51645108  0.93240337
  -1.42788500  5.65009972  3.68088218
  -2.84275507  6.43394051  5.59515097
  -1.42522974  5.67488464  8.29304820
   2.71193227  1.60552566  0.88055457
   4.20140921  0.75881665  3.67052376
   2.75093585  1.60093307  5.56951918
   4.16856952  0.73560334  8.34944227
   1.41156849  3.93819684  0.97572498
   2.76418323  3.22075947  3.71439135
   1.45072362  4.02349228  5.54989476
   2.79698801  3.24571611  8.26502837
  -0.02411070  6.43098052  0.90857514
   1.38599860  5.64014098  3.69327633
   0.05208847  6.41616904  5.58300214
   1.40915137  5.70506382  8.41942434
   5.56547410  1.61776809  0.92287631
   6.97519197  0.80594868  3.67898645
   5.54418361  1.59592129  5.48098502
   7.02586314  0.77503388  8.25648286
   4.22008655  4.01632812  1.01601201
   5.53166251  3.23603925  3.66274651
   4.18800040  3.99669149  5.55505865
   5.55360074  3.20473937  8.38643097
   2.79133178  6.48258882  0.91686144
   4.21631716  5.58735324  3.65759770
   2.82486496  6.43063129  5.47546930
   4.16986463  5.59684760  8.33838427
 


--------------------------------------------------------------------------------------------------------


 k-point  1 :   0.0000 0.0000 0.0000  plane waves:   14241
 k-point  2 :   0.2500 0.0000 0.0000  plane waves:   14190
 k-point  3 :   0.5000 0.0000 0.0000  plane waves:   14218
 k-point  4 :   0.0000 0.2500 0.0000  plane waves:   14190
 k-point  5 :   0.2500 0.2500 0.0000  plane waves:   14239
 k-point  6 :   0.5000 0.2500 0.0000  plane waves:   14239
 k-point  7 :  -0.2500 0.2500 0.0000  plane waves:   14190
 k-point  8 :   0.0000 0.5000 0.0000  plane waves:   14218
 k-point  9 :   0.2500 0.5000 0.0000  plane waves:   14239
 k-point 10 :   0.5000 0.5000 0.0000  plane waves:   14218
 k-point 11 :   0.0000 0.0000 0.3333  plane waves:   14206
 k-point 12 :   0.2500 0.0000 0.3333  plane waves:   14238
 k-point 13 :   0.5000 0.0000 0.3333  plane waves:   14242
 k-point 14 :  -0.2500 0.0000 0.3333  plane waves:   14238
 k-point 15 :   0.0000 0.2500 0.3333  plane waves:   14238
 k-point 16 :   0.2500 0.2500 0.3333  plane waves:   14221
 k-point 17 :   0.5000 0.2500 0.3333  plane waves:   14221
 k-point 18 :  -0.2500 0.2500 0.3333  plane waves:   14238
 k-point 19 :   0.0000 0.5000 0.3333  plane waves:   14242
 k-point 20 :   0.2500 0.5000 0.3333  plane waves:   14221
 k-point 21 :   0.5000 0.5000 0.3333  plane waves:   14242
 k-point 22 :  -0.2500 0.5000 0.3333  plane waves:   14221
 k-point 23 :   0.0000-0.2500 0.3333  plane waves:   14238
 k-point 24 :   0.2500-0.2500 0.3333  plane waves:   14238
 k-point 25 :   0.5000-0.2500 0.3333  plane waves:   14221
 k-point 26 :  -0.2500-0.2500 0.3333  plane waves:   14221

 maximum and minimum number of plane-waves per node :     14242    14190

 maximum number of plane-waves:     14242
 maximum index in each direction: 
   IXMAX=   15   IYMAX=   15   IZMAX=   16
   IXMIN=  -15   IYMIN=  -15   IZMIN=  -17

 The following grids will avoid any aliasing or wrap around errors in the Hartre
 e energy
  - symmetry arguments have not been applied
  - exchange correlation energies might require even more grid points
  - we recommend to set PREC=Normal or Accurate and rely on VASP defaults
 NGX is ok and might be reduce to    64
 NGY is ok and might be reduce to    64
 NGZ is ok and might be reduce to    70

 serial   3D FFT for wavefunctions
 parallel 3D FFT for charge:
    minimum data exchange during FFTs selected (reduces bandwidth)


 total amount of memory used by VASP MPI-rank0   181715. kBytes
=======================================================================

   base      :      30000. kBytes
   nonlr-proj:      32323. kBytes
   fftplans  :       6058. kBytes
   grid      :      19644. kBytes
   one-center:        839. kBytes
   wavefun   :      92851. kBytes
 
     INWAV:  cpu time    0.0000: real time    0.0000
 Broyden mixing: mesh for mixing (old mesh)
   NGX = 31   NGY = 31   NGZ = 33
  (NGX  =128   NGY  =128   NGZ  =140)
  gives a total of  31713 points

 initial charge density was supplied:
 charge density of overlapping atoms calculated
 number of electron     396.0000000 magnetization 
 keeping initial charge density in first step


--------------------------------------------------------------------------------------------------------


 Maximum index for non-local projection operator         6702
 Maximum index for augmentation-charges         1092 (set IRDMAX)


--------------------------------------------------------------------------------------------------------


 First call to EWALD:  gamma=   0.215
 Maximum number of real-space cells 3x 3x 3
 Maximum number of reciprocal cells 3x 3x 3

    FEWALD:  cpu time    0.0027: real time    0.0027


--------------------------------------- Iteration      1(   1)  ---------------------------------------


    POTLOK:  cpu time    0.1153: real time    0.2780
    SETDIJ:  cpu time    0.0095: real time    0.0095
     EDDAV:  cpu time   38.3958: real time   38.4881
    --------------------------------------------
      LOOP:  cpu time   38.5223: real time   38.7773

 eigenvalue-minimisations  : 12480
 total energy-change (2. order) : 0.5295739E+04  (-0.1769847E+05)
 number of electron     396.0000000 magnetization 
 augmentation part      396.0000000 magnetization 

 Free energy of the ion-electron system (eV)
  ---------------------------------------------------
  alpha Z        PSCENC =      1237.65017714
  Ewald energy   TEWEN  =    -22399.36747492
  -Hartree energ DENC   =    -13489.45406320
  -exchange      EXHF   =         0.00000000
  -V(xc)+E(xc)   XCENC  =      1589.13453583
  PAW double counting   =     29784.60368500   -31040.73694357
  entropy T*S    EENTRO =        -0.00839503
  eigenvalues    EBANDS =      4723.53657767
  atomic energy  EATOM  =     34890.38139807
  Solvation  Ediel_sol  =         0.00000000
  ---------------------------------------------------
  free energy    TOTEN  =      5295.73949698 eV

  energy without entropy =     5295.74789201  energy(sigma->0) =     5295.74369449


--------------------------------------------------------------------------------------------------------




--------------------------------------- Iteration      1(   2)  ---------------------------------------


     EDDAV:  cpu time   37.1173: real time   37.2185
    --------------------------------------------
      LOOP:  cpu time   37.1173: real time   37.2185

 eigenvalue-minimisations  : 12944
 total energy-change (2. order) :-0.4599615E+04  (-0.4278672E+04)
 number of electron     396.0000000 magnetization 
 augmentation part      396.0000000 magnetization 

 Free energy of the ion-electron system (eV)
  ---------------------------------------------------
  alpha Z        PSCENC =      1237.65017714
  Ewald energy   TEWEN  =    -22399.36747492
  -Hartree energ DENC   =    -13489.45406320
  -exchange      EXHF   =         0.00000000
  -V(xc)+E(xc)   XCENC  =      1589.13453583
  PAW double counting   =     29784.60368500   -31040.73694357
  entropy T*S    EENTRO =        -0.02747990
  eigenvalues    EBANDS =       123.94068353
  atomic energy  EATOM  =     34890.38139807
  Solvation  Ediel_sol  =         0.00000000
  ---------------------------------------------------
  free energy    TOTEN  =       696.12451797 eV

  energy without entropy =      696.15199787  energy(sigma->0) =      696.13825792


--------------------------------------------------------------------------------------------------------




--------------------------------------- Iteration      1(   3)  ---------------------------------------


     EDDAV:  cpu time   37.9042: real time   37.9940
    --------------------------------------------
      LOOP:  cpu time   37.9034: real time   37.9931

 eigenvalue-minimisations  : 13296
 total energy-change (2. order) :-0.1057658E+04  (-0.9247177E+03)
 number of electron     396.0000000 magnetization 
 augmentation part      396.0000000 magnetization 

 Free energy of the ion-electron system (eV)
  ---------------------------------------------------
  alpha Z        PSCENC =      1237.65017714
  Ewald energy   TEWEN  =    -22399.36747492
  -Hartree energ DENC   =    -13489.45406320
  -exchange      EXHF   =         0.00000000
  -V(xc)+E(xc)   XCENC  =      1589.13453583
  PAW double counting   =     29784.60368500   -31040.73694357
  entropy T*S    EENTRO =        -0.00000000
  eigenvalues    EBANDS =      -933.74504108
  atomic energy  EATOM  =     34890.38139807
  Solvation  Ediel_sol  =         0.00000000
  ---------------------------------------------------
  free energy    TOTEN  =      -361.53372674 eV

  energy without entropy =     -361.53372674  energy(sigma->0) =     -361.53372674


--------------------------------------------------------------------------------------------------------




--------------------------------------- Iteration      1(   4)  ---------------------------------------


     EDDAV:  cpu time   38.0929: real time   38.1833
    --------------------------------------------
      LOOP:  cpu time   38.0929: real time   38.1833

 eigenvalue-minimisations  : 13312
 total energy-change (2. order) :-0.1077884E+03  (-0.1057507E+03)
 number of electron     396.0000000 magnetization 
 augmentation part      396.0000000 magnetization 

 Free energy of the ion-electron system (eV)
  ---------------------------------------------------
  alpha Z        PSCENC =      1237.65017714
  Ewald energy   TEWEN  =    -22399.36747492
  -Hartree energ DENC   =    -13489.45406320
  -exchange      EXHF   =         0.00000000
  -V(xc)+E(xc)   XCENC  =      1589.13453583
  PAW double counting   =     29784.60368500   -31040.73694357
  entropy T*S    EENTRO =        -0.00000000
  eigenvalues    EBANDS =     -1041.53346748
  atomic energy  EATOM  =     34890.38139807
  Solvation  Ediel_sol  =         0.00000000
  ---------------------------------------------------
  free energy    TOTEN  =      -469.32215314 eV

  energy without entropy =     -469.32215314  energy(sigma->0) =     -469.32215314


--------------------------------------------------------------------------------------------------------




--------------------------------------- Iteration      1(   5)  ---------------------------------------


     EDDAV:  cpu time   40.3465: real time   40.4421
    CHARGE:  cpu time    1.8589: real time    1.8633
    MIXING:  cpu time    0.0025: real time    0.0026
    --------------------------------------------
      LOOP:  cpu time   42.2071: real time   42.3071

 eigenvalue-minimisations  : 14224
 total energy-change (2. order) :-0.3304326E+01  (-0.3299012E+01)
 number of electron     396.0000020 magnetization 
 augmentation part      113.1067986 magnetization 

 Broyden mixing:
  rms(total) = 0.12083E+02    rms(broyden)= 0.12081E+02
  rms(prec ) = 0.14903E+02
  weight for this iteration     100.00

 Free energy of the ion-electron system (eV)
  ---------------------------------------------------
  alpha Z        PSCENC =      1237.65017714
  Ewald energy   TEWEN  =    -22399.36747492
  -Hartree energ DENC   =    -13489.45406320
  -exchange      EXHF   =         0.00000000
  -V(xc)+E(xc)   XCENC  =      1589.13453583
  PAW double counting   =     29784.60368500   -31040.73694357
  entropy T*S    EENTRO =        -0.00000000
  eigenvalues    EBANDS =     -1044.83779334
  atomic energy  EATOM  =     34890.38139807
  Solvation  Ediel_sol  =         0.00000000
  ---------------------------------------------------
  free energy    TOTEN  =      -472.62647900 eV

  energy without entropy =     -472.62647900  energy(sigma->0) =     -472.62647900


--------------------------------------------------------------------------------------------------------




--------------------------------------- Iteration      1(   6)  ---------------------------------------


    POTLOK:  cpu time    0.0757: real time    0.0759
    SETDIJ:  cpu time    0.0092: real time    0.0092
     EDDAV:  cpu time   50.9440: real time   51.0648
    CHARGE:  cpu time    1.9662: real time    1.9709
    MIXING:  cpu time    0.0028: real time    0.0028
    --------------------------------------------
      LOOP:  cpu time   52.9980: real time   53.1236

 eigenvalue-minimisations  : 18960
 total energy-change (2. order) :-0.9728998E+02  (-0.1143167E+03)
 number of electron     396.0000022 magnetization 
 augmentation part      154.9839760 magnetization 

 Broyden mixing:
  rms(total) = 0.20111E+02    rms(broyden)= 0.20109E+02
  rms(prec ) = 0.22562E+02
  weight for this iteration     100.00

 eigenvalues of (default mixing * dielectric matrix)
  average eigenvalue GAMMA=   0.2172
  0.2172

 Free energy of the ion-electron system (eV)
  ---------------------------------------------------
  alpha Z        PSCENC =      1237.65017714
  Ewald energy   TEWEN  =    -22399.36747492
  -Hartree energ DENC   =    -12784.47499620
  -exchange      EXHF   =         0.00000000
  -V(xc)+E(xc)   XCENC  =      1584.89283463
  PAW double counting   =     33066.48548446   -34113.26256242
  entropy T*S    EENTRO =        -0.03181795
  eigenvalues    EBANDS =     -2052.18949737
  atomic energy  EATOM  =     34890.38139807
  Solvation  Ediel_sol  =         0.00000000
  ---------------------------------------------------
  free energy    TOTEN  =      -569.91645457 eV

  energy without entropy =     -569.88463662  energy(sigma->0) =     -569.90054559


--------------------------------------------------------------------------------------------------------




--------------------------------------- Iteration      1(   7)  ---------------------------------------


    POTLOK:  cpu time    0.0763: real time    0.0765
    SETDIJ:  cpu time    0.0092: real time    0.0092
     EDDAV:  cpu time   48.2677: real time   48.3821
    CHARGE:  cpu time    1.8810: real time    1.8854
    MIXING:  cpu time    0.0040: real time    0.0040
    --------------------------------------------
      LOOP:  cpu time   50.2381: real time   50.3572

 eigenvalue-minimisations  : 17696
 total energy-change (2. order) : 0.2175373E+03  (-0.2805683E+02)
 number of electron     396.0000017 magnetization 
 augmentation part      137.7617840 magnetization 

 Broyden mixing:
  rms(total) = 0.55063E+01    rms(broyden)= 0.55054E+01
  rms(prec ) = 0.67886E+01
  weight for this iteration     100.00

 eigenvalues of (default mixing * dielectric matrix)
  average eigenvalue GAMMA=   0.6030
  0.6030  0.6030

 Free energy of the ion-electron system (eV)
  ---------------------------------------------------
  alpha Z        PSCENC =      1237.65017714
  Ewald energy   TEWEN  =    -22399.36747492
  -Hartree energ DENC   =    -13087.26720835
  -exchange      EXHF   =         0.00000000
  -V(xc)+E(xc)   XCENC  =      1589.31135575
  PAW double counting   =     34610.25868403   -35813.34312433
  entropy T*S    EENTRO =        -0.00000375
  eigenvalues    EBANDS =     -1380.00297766
  atomic energy  EATOM  =     34890.38139807
  Solvation  Ediel_sol  =         0.00000000
  ---------------------------------------------------
  free energy    TOTEN  =      -352.37917402 eV

  energy without entropy =     -352.37917026  energy(sigma->0) =     -352.37917214


--------------------------------------------------------------------------------------------------------




--------------------------------------- Iteration      1(   8)  ---------------------------------------


    POTLOK:  cpu time    0.0758: real time    0.0759
    SETDIJ:  cpu time    0.0091: real time    0.0091
     EDDAV:  cpu time   53.6430: real time   53.7700
    CHARGE:  cpu time    1.9609: real time    1.9655
    MIXING:  cpu time    0.0025: real time    0.0025
    --------------------------------------------
      LOOP:  cpu time   55.6912: real time   55.8231

 eigenvalue-minimisations  : 20080
 total energy-change (2. order) : 0.7174791E+01  (-0.1259264E+02)
 number of electron     396.0000021 magnetization 
 augmentation part      127.6554211 magnetization 

 Broyden mixing:
  rms(total) = 0.46729E+01    rms(broyden)= 0.46714E+01
  rms(prec ) = 0.62396E+01
  weight for this iteration     100.00

 eigenvalues of (default mixing * dielectric matrix)
  average eigenvalue GAMMA=   0.5714
  0.9283  0.4287  0.3573

 Free energy of the ion-electron system (eV)
  ---------------------------------------------------
  alpha Z        PSCENC =      1237.65017714
  Ewald energy   TEWEN  =    -22399.36747492
  -Hartree energ DENC   =    -13121.33597947
  -exchange      EXHF   =         0.00000000
  -V(xc)+E(xc)   XCENC  =      1584.10167917
  PAW double counting   =     36166.20884952   -37449.70766484
  entropy T*S    EENTRO =        -0.03347058
  eigenvalues    EBANDS =     -1253.10189738
  atomic energy  EATOM  =     34890.38139807
  Solvation  Ediel_sol  =         0.00000000
  ---------------------------------------------------
  free energy    TOTEN  =      -345.20438327 eV

  energy without entropy =     -345.17091270  energy(sigma->0) =     -345.18764799


--------------------------------------------------------------------------------------------------------




--------------------------------------- Iteration      1(   9)  ---------------------------------------


    POTLOK:  cpu time    0.0757: real time    0.0759
    SETDIJ:  cpu time    0.0093: real time    0.0093
     EDDAV:  cpu time   46.2839: real time   46.3936
    CHARGE:  cpu time    2.0571: real time    2.0620
    MIXING:  cpu time    0.0027: real time    0.0027
    --------------------------------------------
      LOOP:  cpu time   48.4287: real time   48.5435

 eigenvalue-minimisations  : 16704
 total energy-change (2. order) :-0.1371116E+01  (-0.1385694E+02)
 number of electron     396.0000018 magnetization 
 augmentation part      126.2699160 magnetization 

 Broyden mixing:
  rms(total) = 0.67834E+01    rms(broyden)= 0.67829E+01
  rms(prec ) = 0.95268E+01
  weight for this iteration     100.00

 eigenvalues of (default mixing * dielectric matrix)
  average eigenvalue GAMMA=   0.4986
  1.0776  0.4016  0.4016  0.1135

 Free energy of the ion-electron system (eV)
  ---------------------------------------------------
  alpha Z        PSCENC =      1237.65017714
  Ewald energy   TEWEN  =    -22399.36747492
  -Hartree energ DENC   =    -13084.82811717
  -exchange      EXHF   =         0.00000000
  -V(xc)+E(xc)   XCENC  =      1581.86527716
  PAW double counting   =     37101.91133295   -38396.13712797
  entropy T*S    EENTRO =        -0.03973576
  eigenvalues    EBANDS =     -1278.01122847
  atomic energy  EATOM  =     34890.38139807
  Solvation  Ediel_sol  =         0.00000000
  ---------------------------------------------------
  free energy    TOTEN  =      -346.57549896 eV

  energy without entropy =     -346.53576320  energy(sigma->0) =     -346.55563108


--------------------------------------------------------------------------------------------------------




--------------------------------------- Iteration      1(  10)  ---------------------------------------


    POTLOK:  cpu time    0.0758: real time    0.0760
    SETDIJ:  cpu time    0.0091: real time    0.0091
     EDDAV:  cpu time   46.7958: real time   46.9067
    CHARGE:  cpu time    1.8906: real time    1.8951
    MIXING:  cpu time    0.0029: real time    0.0029
    --------------------------------------------
      LOOP:  cpu time   48.7742: real time   48.8898

 eigenvalue-minimisations  : 16992
 total energy-change (2. order) : 0.8696744E+01  (-0.1054125E+02)
 number of electron     396.0000019 magnetization 
 augmentation part      127.8225081 magnetization 

 Broyden mixing:
  rms(total) = 0.22316E+01    rms(broyden)= 0.22308E+01
  rms(prec ) = 0.28841E+01
  weight for this iteration     100.00

 eigenvalues of (default mixing * dielectric matrix)
  average eigenvalue GAMMA=   0.5291
  1.3160  0.4299  0.4299  0.3642  0.1056

 Free energy of the ion-electron system (eV)
  ---------------------------------------------------
  alpha Z        PSCENC =      1237.65017714
  Ewald energy   TEWEN  =    -22399.36747492
  -Hartree energ DENC   =    -13070.62034177
  -exchange      EXHF   =         0.00000000
  -V(xc)+E(xc)   XCENC  =      1581.46946591
  PAW double counting   =     37510.56335275   -38808.77884440
  entropy T*S    EENTRO =        -0.00000000
  eigenvalues    EBANDS =     -1279.17648793
  atomic energy  EATOM  =     34890.38139807
  Solvation  Ediel_sol  =         0.00000000
  ---------------------------------------------------
  free energy    TOTEN  =      -337.87875514 eV

  energy without entropy =     -337.87875514  energy(sigma->0) =     -337.87875514


--------------------------------------------------------------------------------------------------------




--------------------------------------- Iteration      1(  11)  ---------------------------------------


    POTLOK:  cpu time    0.0782: real time    0.0784
    SETDIJ:  cpu time    0.0088: real time    0.0088
     EDDAV:  cpu time   46.3649: real time   46.4748
    CHARGE:  cpu time    1.8622: real time    1.8666
    MIXING:  cpu time    0.0028: real time    0.0028
    --------------------------------------------
      LOOP:  cpu time   48.3169: real time   48.4314

 eigenvalue-minimisations  : 17312
 total energy-change (2. order) : 0.3218126E+01  (-0.6812120E+00)
 number of electron     396.0000020 magnetization 
 augmentation part      128.6609130 magnetization 

 Broyden mixing:
  rms(total) = 0.14541E+01    rms(broyden)= 0.14537E+01
  rms(prec ) = 0.18361E+01
  weight for this iteration     100.00

 eigenvalues of (default mixing * dielectric matrix)
  average eigenvalue GAMMA=   0.5657
  1.6199  0.5093  0.5093  0.3891  0.2605  0.1062

 Free energy of the ion-electron system (eV)
  ---------------------------------------------------
  alpha Z        PSCENC =      1237.65017714
  Ewald energy   TEWEN  =    -22399.36747492
  -Hartree energ DENC   =    -13065.98256957
  -exchange      EXHF   =         0.00000000
  -V(xc)+E(xc)   XCENC  =      1581.97112557
  PAW double counting   =     38104.91602654   -39409.18637296
  entropy T*S    EENTRO =        -0.00000000
  eigenvalues    EBANDS =     -1275.04293935
  atomic energy  EATOM  =     34890.38139807
  Solvation  Ediel_sol  =         0.00000000
  ---------------------------------------------------
  free energy    TOTEN  =      -334.66062948 eV

  energy without entropy =     -334.66062948  energy(sigma->0) =     -334.66062948


--------------------------------------------------------------------------------------------------------




--------------------------------------- Iteration      1(  12)  ---------------------------------------


    POTLOK:  cpu time    0.0736: real time    0.0738
    SETDIJ:  cpu time    0.0092: real time    0.0092
     EDDAV:  cpu time   50.1708: real time   50.2897
    CHARGE:  cpu time    1.9150: real time    1.9195
    MIXING:  cpu time    0.0033: real time    0.0033
    --------------------------------------------
      LOOP:  cpu time   52.1718: real time   52.2956

 eigenvalue-minimisations  : 18912
 total energy-change (2. order) : 0.1060125E+01  (-0.4545731E+00)
 number of electron     396.0000019 magnetization 
 augmentation part      129.5333526 magnetization 

 Broyden mixing:
  rms(total) = 0.65913E+00    rms(broyden)= 0.65889E+00
  rms(prec ) = 0.78571E+00
  weight for this iteration     100.00

 eigenvalues of (default mixing * dielectric matrix)
  average eigenvalue GAMMA=   0.6061
  1.8328  0.5697  0.5697  0.4561  0.4561  0.2519  0.1060

 Free energy of the ion-electron system (eV)
  ---------------------------------------------------
  alpha Z        PSCENC =      1237.65017714
  Ewald energy   TEWEN  =    -22399.36747492
  -Hartree energ DENC   =    -13070.51939644
  -exchange      EXHF   =         0.00000000
  -V(xc)+E(xc)   XCENC  =      1583.06139282
  PAW double counting   =     38841.56277775   -40152.93785111
  entropy T*S    EENTRO =        -0.00000000
  eigenvalues    EBANDS =     -1263.43152821
  atomic energy  EATOM  =     34890.38139807
  Solvation  Ediel_sol  =         0.00000000
  ---------------------------------------------------
  free energy    TOTEN  =      -333.60050490 eV

  energy without entropy =     -333.60050490  energy(sigma->0) =     -333.60050490


--------------------------------------------------------------------------------------------------------




--------------------------------------- Iteration      1(  13)  ---------------------------------------


    POTLOK:  cpu time    0.0760: real time    0.0762
    SETDIJ:  cpu time    0.0093: real time    0.0093
     EDDAV:  cpu time   49.6897: real time   49.8074
    CHARGE:  cpu time    1.8750: real time    1.8795
    MIXING:  cpu time    0.0044: real time    0.0044
    --------------------------------------------
      LOOP:  cpu time   51.6544: real time   51.7768

 eigenvalue-minimisations  : 18304
 total energy-change (2. order) : 0.3545647E-01  (-0.1400120E+00)
 number of electron     396.0000019 magnetization 
 augmentation part      129.6497237 magnetization 

 Broyden mixing:
  rms(total) = 0.50833E+00    rms(broyden)= 0.50825E+00
  rms(prec ) = 0.59912E+00
  weight for this iteration     100.00

 eigenvalues of (default mixing * dielectric matrix)
  average eigenvalue GAMMA=   0.6384
  2.1288  0.6445  0.6445  0.5110  0.5110  0.1060  0.3154  0.2461

 Free energy of the ion-electron system (eV)
  ---------------------------------------------------
  alpha Z        PSCENC =      1237.65017714
  Ewald energy   TEWEN  =    -22399.36747492
  -Hartree energ DENC   =    -13076.86452563
  -exchange      EXHF   =         0.00000000
  -V(xc)+E(xc)   XCENC  =      1583.61560410
  PAW double counting   =     39289.99966930   -40606.45009967
  entropy T*S    EENTRO =        -0.00000000
  eigenvalues    EBANDS =     -1252.52979681
  atomic energy  EATOM  =     34890.38139807
  Solvation  Ediel_sol  =         0.00000000
  ---------------------------------------------------
  free energy    TOTEN  =      -333.56504843 eV

  energy without entropy =     -333.56504843  energy(sigma->0) =     -333.56504843


--------------------------------------------------------------------------------------------------------




--------------------------------------- Iteration      1(  14)  ---------------------------------------


    POTLOK:  cpu time    0.0773: real time    0.0775
    SETDIJ:  cpu time    0.0094: real time    0.0094
     EDDAV:  cpu time   50.9699: real time   51.0907
    CHARGE:  cpu time    1.8879: real time    1.8924
    MIXING:  cpu time    0.0032: real time    0.0032
    --------------------------------------------
      LOOP:  cpu time   52.9476: real time   53.0731

 eigenvalue-minimisations  : 17552
 total energy-change (2. order) : 0.2826610E-01  (-0.6050748E-01)
 number of electron     396.0000019 magnetization 
 augmentation part      129.7273712 magnetization 

 Broyden mixing:
  rms(total) = 0.34297E+00    rms(broyden)= 0.34292E+00
  rms(prec ) = 0.41689E+00
  weight for this iteration     100.00

 eigenvalues of (default mixing * dielectric matrix)
  average eigenvalue GAMMA=   0.6549
  2.3376  0.7612  0.7612  0.5147  0.5147  0.3787  0.1060  0.2780  0.2421

 Free energy of the ion-electron system (eV)
  ---------------------------------------------------
  alpha Z        PSCENC =      1237.65017714
  Ewald energy   TEWEN  =    -22399.36747492
  -Hartree energ DENC   =    -13080.37817909
  -exchange      EXHF   =         0.00000000
  -V(xc)+E(xc)   XCENC  =      1583.88542155
  PAW double counting   =     39713.56221457   -41034.56752617
  entropy T*S    EENTRO =        -0.00000000
  eigenvalues    EBANDS =     -1244.70281347
  atomic energy  EATOM  =     34890.38139807
  Solvation  Ediel_sol  =         0.00000000
  ---------------------------------------------------
  free energy    TOTEN  =      -333.53678233 eV

  energy without entropy =     -333.53678233  energy(sigma->0) =     -333.53678233


--------------------------------------------------------------------------------------------------------




--------------------------------------- Iteration      1(  15)  ---------------------------------------


    POTLOK:  cpu time    0.0766: real time    0.0768
    SETDIJ:  cpu time    0.0110: real time    0.0111
     EDDAV:  cpu time   47.9866: real time   48.1003
    CHARGE:  cpu time    1.8369: real time    1.8413
    MIXING:  cpu time    0.0040: real time    0.0040
    --------------------------------------------
      LOOP:  cpu time   49.9152: real time   50.0334

 eigenvalue-minimisations  : 17504
 total energy-change (2. order) : 0.3968976E-01  (-0.1744693E-01)
 number of electron     396.0000019 magnetization 
 augmentation part      129.7628362 magnetization 

 Broyden mixing:
  rms(total) = 0.17370E+00    rms(broyden)= 0.17367E+00
  rms(prec ) = 0.21074E+00
  weight for this iteration     100.00

 eigenvalues of (default mixing * dielectric matrix)
  average eigenvalue GAMMA=   0.6868
  2.4892  0.9187  0.9187  0.5273  0.5273  0.4372  0.4372  0.1060  0.2661  0.2408

 Free energy of the ion-electron system (eV)
  ---------------------------------------------------
  alpha Z        PSCENC =      1237.65017714
  Ewald energy   TEWEN  =    -22399.36747492
  -Hartree energ DENC   =    -13082.28384068
  -exchange      EXHF   =         0.00000000
  -V(xc)+E(xc)   XCENC  =      1583.97588472
  PAW double counting   =     39981.51510188   -41304.98019648
  entropy T*S    EENTRO =        -0.00000000
  eigenvalues    EBANDS =     -1240.38814230
  atomic energy  EATOM  =     34890.38139807
  Solvation  Ediel_sol  =         0.00000000
  ---------------------------------------------------
  free energy    TOTEN  =      -333.49709258 eV

  energy without entropy =     -333.49709258  energy(sigma->0) =     -333.49709258


--------------------------------------------------------------------------------------------------------




--------------------------------------- Iteration      1(  16)  ---------------------------------------


    POTLOK:  cpu time    0.0815: real time    0.0817
    SETDIJ:  cpu time    0.0101: real time    0.0102
     EDDAV:  cpu time   46.0090: real time   46.1179
    CHARGE:  cpu time    1.8989: real time    1.9035
    MIXING:  cpu time    0.0034: real time    0.0034
    --------------------------------------------
      LOOP:  cpu time   48.0029: real time   48.1166

 eigenvalue-minimisations  : 17056
 total energy-change (2. order) : 0.1002920E-02  (-0.6089323E-02)
 number of electron     396.0000019 magnetization 
 augmentation part      129.7411820 magnetization 

 Broyden mixing:
  rms(total) = 0.12615E+00    rms(broyden)= 0.12614E+00
  rms(prec ) = 0.16353E+00
  weight for this iteration     100.00

 eigenvalues of (default mixing * dielectric matrix)
  average eigenvalue GAMMA=   0.7001
  2.6013  1.1296  0.9490  0.5557  0.5557  0.4765  0.4765  0.1060  0.3493  0.2618
  0.2400

 Free energy of the ion-electron system (eV)
  ---------------------------------------------------
  alpha Z        PSCENC =      1237.65017714
  Ewald energy   TEWEN  =    -22399.36747492
  -Hartree energ DENC   =    -13084.52259421
  -exchange      EXHF   =         0.00000000
  -V(xc)+E(xc)   XCENC  =      1584.02741620
  PAW double counting   =     40119.90655544   -41444.16647579
  entropy T*S    EENTRO =        -0.00000000
  eigenvalues    EBANDS =     -1237.40509158
  atomic energy  EATOM  =     34890.38139807
  Solvation  Ediel_sol  =         0.00000000
  ---------------------------------------------------
  free energy    TOTEN  =      -333.49608966 eV

  energy without entropy =     -333.49608966  energy(sigma->0) =     -333.49608966


--------------------------------------------------------------------------------------------------------




--------------------------------------- Iteration      1(  17)  ---------------------------------------


    POTLOK:  cpu time    0.0760: real time    0.0966
    SETDIJ:  cpu time    0.0090: real time    0.0090
     EDDAV:  cpu time   41.7522: real time   41.8512
    CHARGE:  cpu time    1.8585: real time    1.8629
    MIXING:  cpu time    0.0034: real time    0.0034
    --------------------------------------------
      LOOP:  cpu time   43.6990: real time   43.8231

 eigenvalue-minimisations  : 15168
 total energy-change (2. order) : 0.2309838E-02  (-0.3332302E-02)
 number of electron     396.0000019 magnetization 
 augmentation part      129.7409300 magnetization 

 Broyden mixing:
  rms(total) = 0.10283E+00    rms(broyden)= 0.10282E+00
  rms(prec ) = 0.13467E+00
  weight for this iteration     100.00

 eigenvalues of (default mixing * dielectric matrix)
  average eigenvalue GAMMA=   0.7181
  2.6717  1.5445  0.8913  0.6087  0.6087  0.5083  0.5083  0.1060  0.3839  0.2844
  0.2633  0.2384

 Free energy of the ion-electron system (eV)
  ---------------------------------------------------
  alpha Z        PSCENC =      1237.65017714
  Ewald energy   TEWEN  =    -22399.36747492
  -Hartree energ DENC   =    -13085.71704038
  -exchange      EXHF   =         0.00000000
  -V(xc)+E(xc)   XCENC  =      1584.04675572
  PAW double counting   =     40165.84777952   -41489.95190530
  entropy T*S    EENTRO =        -0.00000000
  eigenvalues    EBANDS =     -1236.38346967
  atomic energy  EATOM  =     34890.38139807
  Solvation  Ediel_sol  =         0.00000000
  ---------------------------------------------------
  free energy    TOTEN  =      -333.49377982 eV

  energy without entropy =     -333.49377982  energy(sigma->0) =     -333.49377982


--------------------------------------------------------------------------------------------------------




--------------------------------------- Iteration      1(  18)  ---------------------------------------


    POTLOK:  cpu time    0.0731: real time    0.0733
    SETDIJ:  cpu time    0.0091: real time    0.0091
     EDDAV:  cpu time   39.3022: real time   39.3953
    CHARGE:  cpu time    1.8915: real time    1.8960
    MIXING:  cpu time    0.0035: real time    0.0035
    --------------------------------------------
      LOOP:  cpu time   41.2794: real time   41.3773

 eigenvalue-minimisations  : 14048
 total energy-change (2. order) : 0.3025010E-02  (-0.9805846E-03)
 number of electron     396.0000019 magnetization 
 augmentation part      129.7561420 magnetization 

 Broyden mixing:
  rms(total) = 0.69214E-01    rms(broyden)= 0.69210E-01
  rms(prec ) = 0.94138E-01
  weight for this iteration     100.00

 eigenvalues of (default mixing * dielectric matrix)
  average eigenvalue GAMMA=   0.7433
  2.6732  1.8440  0.9414  0.7141  0.7141  0.5206  0.5206  0.4257  0.4257  0.1060
  0.2813  0.2571  0.2394

 Free energy of the ion-electron system (eV)
  ---------------------------------------------------
  alpha Z        PSCENC =      1237.65017714
  Ewald energy   TEWEN  =    -22399.36747492
  -Hartree energ DENC   =    -13086.42857275
  -exchange      EXHF   =         0.00000000
  -V(xc)+E(xc)   XCENC  =      1584.05534713
  PAW double counting   =     40175.17658394   -41498.73121150
  entropy T*S    EENTRO =        -0.00000000
  eigenvalues    EBANDS =     -1236.22700191
  atomic energy  EATOM  =     34890.38139807
  Solvation  Ediel_sol  =         0.00000000
  ---------------------------------------------------
  free energy    TOTEN  =      -333.49075481 eV

  energy without entropy =     -333.49075481  energy(sigma->0) =     -333.49075481


--------------------------------------------------------------------------------------------------------




--------------------------------------- Iteration      1(  19)  ---------------------------------------


    POTLOK:  cpu time    0.0749: real time    0.0750
    SETDIJ:  cpu time    0.0092: real time    0.0092
     EDDAV:  cpu time   45.7234: real time   45.8317
    CHARGE:  cpu time    1.9127: real time    1.9172
    MIXING:  cpu time    0.0038: real time    0.0038
    --------------------------------------------
      LOOP:  cpu time   47.7240: real time   47.8370

 eigenvalue-minimisations  : 16944
 total energy-change (2. order) : 0.1121048E-02  (-0.3386800E-03)
 number of electron     396.0000019 magnetization 
 augmentation part      129.7679020 magnetization 

 Broyden mixing:
  rms(total) = 0.58365E-01    rms(broyden)= 0.58362E-01
  rms(prec ) = 0.80047E-01
  weight for this iteration     100.00

 eigenvalues of (default mixing * dielectric matrix)
  average eigenvalue GAMMA=   0.7647
  2.6504  2.2400  1.0151  0.7910  0.7910  0.5343  0.5343  0.5191  0.1060  0.4142
  0.3475  0.2384  0.2659  0.2592

 Free energy of the ion-electron system (eV)
  ---------------------------------------------------
  alpha Z        PSCENC =      1237.65017714
  Ewald energy   TEWEN  =    -22399.36747492
  -Hartree energ DENC   =    -13086.91841559
  -exchange      EXHF   =         0.00000000
  -V(xc)+E(xc)   XCENC  =      1584.07270061
  PAW double counting   =     40165.61226460   -41488.66605187
  entropy T*S    EENTRO =        -0.00000000
  eigenvalues    EBANDS =     -1236.25423181
  atomic energy  EATOM  =     34890.38139807
  Solvation  Ediel_sol  =         0.00000000
  ---------------------------------------------------
  free energy    TOTEN  =      -333.48963376 eV

  energy without entropy =     -333.48963376  energy(sigma->0) =     -333.48963376


--------------------------------------------------------------------------------------------------------




--------------------------------------- Iteration      1(  20)  ---------------------------------------


    POTLOK:  cpu time    0.0754: real time    0.0756
    SETDIJ:  cpu time    0.0092: real time    0.0092
     EDDAV:  cpu time   46.3510: real time   46.4608
    CHARGE:  cpu time    1.9157: real time    1.9203
    MIXING:  cpu time    0.0043: real time    0.0043
    --------------------------------------------
      LOOP:  cpu time   48.3556: real time   48.4702

 eigenvalue-minimisations  : 17216
 total energy-change (2. order) : 0.1286797E-02  (-0.2351241E-03)
 number of electron     396.0000019 magnetization 
 augmentation part      129.7734687 magnetization 

 Broyden mixing:
  rms(total) = 0.44396E-01    rms(broyden)= 0.44394E-01
  rms(prec ) = 0.62699E-01
  weight for this iteration     100.00

 eigenvalues of (default mixing * dielectric matrix)
  average eigenvalue GAMMA=   0.7747
  2.6766  2.5001  1.0389  1.0389  0.5443  0.5443  0.5874  0.5874  0.5312  0.1060
  0.3978  0.3061  0.2706  0.2388  0.2517

 Free energy of the ion-electron system (eV)
  ---------------------------------------------------
  alpha Z        PSCENC =      1237.65017714
  Ewald energy   TEWEN  =    -22399.36747492
  -Hartree energ DENC   =    -13087.43856683
  -exchange      EXHF   =         0.00000000
  -V(xc)+E(xc)   XCENC  =      1584.09772140
  PAW double counting   =     40154.92259515   -41477.59220216
  entropy T*S    EENTRO =        -0.00000000
  eigenvalues    EBANDS =     -1236.14199482
  atomic energy  EATOM  =     34890.38139807
  Solvation  Ediel_sol  =         0.00000000
  ---------------------------------------------------
  free energy    TOTEN  =      -333.48834696 eV

  energy without entropy =     -333.48834696  energy(sigma->0) =     -333.48834696


--------------------------------------------------------------------------------------------------------




--------------------------------------- Iteration      1(  21)  ---------------------------------------


    POTLOK:  cpu time    0.0749: real time    0.0751
    SETDIJ:  cpu time    0.0092: real time    0.0092
     EDDAV:  cpu time   49.3845: real time   49.5015
    CHARGE:  cpu time    1.9009: real time    1.9055
    MIXING:  cpu time    0.0041: real time    0.0041
    --------------------------------------------
      LOOP:  cpu time   51.3737: real time   51.4954

 eigenvalue-minimisations  : 18560
 total energy-change (2. order) : 0.7970168E-03  (-0.8010825E-04)
 number of electron     396.0000019 magnetization 
 augmentation part      129.7746416 magnetization 

 Broyden mixing:
  rms(total) = 0.35405E-01    rms(broyden)= 0.35405E-01
  rms(prec ) = 0.51152E-01
  weight for this iteration     100.00

 eigenvalues of (default mixing * dielectric matrix)
  average eigenvalue GAMMA=   0.7790
  2.8455  2.4686  1.1549  1.1549  0.6179  0.6179  0.5494  0.5494  0.5623  0.1060
  0.3848  0.3848  0.3097  0.2385  0.2638  0.2554

 Free energy of the ion-electron system (eV)
  ---------------------------------------------------
  alpha Z        PSCENC =      1237.65017714
  Ewald energy   TEWEN  =    -22399.36747492
  -Hartree energ DENC   =    -13087.83862966
  -exchange      EXHF   =         0.00000000
  -V(xc)+E(xc)   XCENC  =      1584.12014039
  PAW double counting   =     40150.77676576   -41473.28022297
  entropy T*S    EENTRO =        -0.00000000
  eigenvalues    EBANDS =     -1235.92970375
  atomic energy  EATOM  =     34890.38139807
  Solvation  Ediel_sol  =         0.00000000
  ---------------------------------------------------
  free energy    TOTEN  =      -333.48754995 eV

  energy without entropy =     -333.48754995  energy(sigma->0) =     -333.48754995


--------------------------------------------------------------------------------------------------------




--------------------------------------- Iteration      1(  22)  ---------------------------------------


    POTLOK:  cpu time    0.0758: real time    0.0759
    SETDIJ:  cpu time    0.0093: real time    0.0093
     EDDAV:  cpu time   49.0745: real time   49.1908
    CHARGE:  cpu time    1.8875: real time    1.8920
    MIXING:  cpu time    0.0041: real time    0.0042
    --------------------------------------------
      LOOP:  cpu time   51.0512: real time   51.1722

 eigenvalue-minimisations  : 18688
 total energy-change (2. order) : 0.4610099E-03  (-0.6180549E-04)
 number of electron     396.0000019 magnetization 
 augmentation part      129.7741005 magnetization 

 Broyden mixing:
  rms(total) = 0.30166E-01    rms(broyden)= 0.30166E-01
  rms(prec ) = 0.43900E-01
  weight for this iteration     100.00

 eigenvalues of (default mixing * dielectric matrix)
  average eigenvalue GAMMA=   0.8141
  3.2786  2.4477  1.5762  1.1094  0.7073  0.7073  0.5415  0.5415  0.5941  0.1060
  0.4526  0.4233  0.3337  0.2388  0.2686  0.2639  0.2487

 Free energy of the ion-electron system (eV)
  ---------------------------------------------------
  alpha Z        PSCENC =      1237.65017714
  Ewald energy   TEWEN  =    -22399.36747492
  -Hartree energ DENC   =    -13088.04603058
  -exchange      EXHF   =         0.00000000
  -V(xc)+E(xc)   XCENC  =      1584.13398498
  PAW double counting   =     40150.32737769   -41472.79316891
  entropy T*S    EENTRO =        -0.00000000
  eigenvalues    EBANDS =     -1235.77335241
  atomic energy  EATOM  =     34890.38139807
  Solvation  Ediel_sol  =         0.00000000
  ---------------------------------------------------
  free energy    TOTEN  =      -333.48708894 eV

  energy without entropy =     -333.48708894  energy(sigma->0) =     -333.48708894


--------------------------------------------------------------------------------------------------------




--------------------------------------- Iteration      1(  23)  ---------------------------------------


    POTLOK:  cpu time    0.0754: real time    0.0756
    SETDIJ:  cpu time    0.0091: real time    0.0091
     EDDAV:  cpu time   52.0452: real time   52.1685
    CHARGE:  cpu time    1.8820: real time    1.8864
    MIXING:  cpu time    0.0043: real time    0.0043
    --------------------------------------------
      LOOP:  cpu time   54.0160: real time   54.1440

 eigenvalue-minimisations  : 19952
 total energy-change (2. order) : 0.6062493E-03  (-0.2329765E-04)
 number of electron     396.0000019 magnetization 
 augmentation part      129.7742275 magnetization 

 Broyden mixing:
  rms(total) = 0.23272E-01    rms(broyden)= 0.23272E-01
  rms(prec ) = 0.34146E-01
  weight for this iteration     100.00

 eigenvalues of (default mixing * dielectric matrix)
  average eigenvalue GAMMA=   0.8348
  3.5475  2.4678  1.8119  1.0560  0.7473  0.7473  0.5434  0.5434  0.6126  0.6126
  0.1060  0.4903  0.3982  0.3232  0.2732  0.2385  0.2585  0.2496

 Free energy of the ion-electron system (eV)
  ---------------------------------------------------
  alpha Z        PSCENC =      1237.65017714
  Ewald energy   TEWEN  =    -22399.36747492
  -Hartree energ DENC   =    -13088.25123201
  -exchange      EXHF   =         0.00000000
  -V(xc)+E(xc)   XCENC  =      1584.14851832
  PAW double counting   =     40149.93860586   -41472.36205927
  entropy T*S    EENTRO =        -0.00000000
  eigenvalues    EBANDS =     -1235.62441588
  atomic energy  EATOM  =     34890.38139807
  Solvation  Ediel_sol  =         0.00000000
  ---------------------------------------------------
  free energy    TOTEN  =      -333.48648269 eV

  energy without entropy =     -333.48648269  energy(sigma->0) =     -333.48648269


--------------------------------------------------------------------------------------------------------




--------------------------------------- Iteration      1(  24)  ---------------------------------------


    POTLOK:  cpu time    0.0754: real time    0.0756
    SETDIJ:  cpu time    0.0092: real time    0.0093
     EDDAV:  cpu time   51.6919: real time   51.8145
    CHARGE:  cpu time    1.8929: real time    1.8974
    MIXING:  cpu time    0.0043: real time    0.0043
    --------------------------------------------
      LOOP:  cpu time   53.6738: real time   53.8010

 eigenvalue-minimisations  : 19408
 total energy-change (2. order) : 0.3809941E-03  (-0.2499616E-04)
 number of electron     396.0000019 magnetization 
 augmentation part      129.7748077 magnetization 

 Broyden mixing:
  rms(total) = 0.18071E-01    rms(broyden)= 0.18070E-01
  rms(prec ) = 0.26756E-01
  weight for this iteration     100.00

 eigenvalues of (default mixing * dielectric matrix)
  average eigenvalue GAMMA=   0.8721
  3.9656  2.5287  1.9397  1.1509  0.9607  0.8638  0.6576  0.6576  0.5380  0.5380
  0.1060  0.4668  0.4462  0.4111  0.3234  0.2709  0.2386  0.2589  0.2478

 Free energy of the ion-electron system (eV)
  ---------------------------------------------------
  alpha Z        PSCENC =      1237.65017714
  Ewald energy   TEWEN  =    -22399.36747492
  -Hartree energ DENC   =    -13088.29805030
  -exchange      EXHF   =         0.00000000
  -V(xc)+E(xc)   XCENC  =      1584.15362850
  PAW double counting   =     40149.09144974   -41471.49242917
  entropy T*S    EENTRO =        -0.00000000
  eigenvalues    EBANDS =     -1235.60480075
  atomic energy  EATOM  =     34890.38139807
  Solvation  Ediel_sol  =         0.00000000
  ---------------------------------------------------
  free energy    TOTEN  =      -333.48610169 eV

  energy without entropy =     -333.48610169  energy(sigma->0) =     -333.48610169


--------------------------------------------------------------------------------------------------------




--------------------------------------- Iteration      1(  25)  ---------------------------------------


    POTLOK:  cpu time    0.0769: real time    0.0771
    SETDIJ:  cpu time    0.0094: real time    0.0095
     EDDAV:  cpu time   42.7184: real time   42.8196
    CHARGE:  cpu time    1.8891: real time    1.8936
    MIXING:  cpu time    0.0044: real time    0.0044
    --------------------------------------------
      LOOP:  cpu time   44.6982: real time   44.8041

 eigenvalue-minimisations  : 15152
 total energy-change (2. order) : 0.3668620E-03  (-0.1072291E-04)
 number of electron     396.0000019 magnetization 
 augmentation part      129.7749480 magnetization 

 Broyden mixing:
  rms(total) = 0.12532E-01    rms(broyden)= 0.12531E-01
  rms(prec ) = 0.18794E-01
  weight for this iteration     100.00

 eigenvalues of (default mixing * dielectric matrix)
  average eigenvalue GAMMA=   0.8945
  4.2678  2.5478  2.0652  1.4238  0.9522  0.9522  0.6780  0.6780  0.5391  0.5391
  0.1060  0.5046  0.4875  0.4255  0.3813  0.3248  0.2713  0.2385  0.2584  0.2483

 Free energy of the ion-electron system (eV)
  ---------------------------------------------------
  alpha Z        PSCENC =      1237.65017714
  Ewald energy   TEWEN  =    -22399.36747492
  -Hartree energ DENC   =    -13088.27784897
  -exchange      EXHF   =         0.00000000
  -V(xc)+E(xc)   XCENC  =      1584.15264578
  PAW double counting   =     40147.81461489   -41470.18954956
  entropy T*S    EENTRO =        -0.00000000
  eigenvalues    EBANDS =     -1235.64969726
  atomic energy  EATOM  =     34890.38139807
  Solvation  Ediel_sol  =         0.00000000
  ---------------------------------------------------
  free energy    TOTEN  =      -333.48573483 eV

  energy without entropy =     -333.48573483  energy(sigma->0) =     -333.48573483


--------------------------------------------------------------------------------------------------------




--------------------------------------- Iteration      1(  26)  ---------------------------------------


    POTLOK:  cpu time    0.0751: real time    0.0753
    SETDIJ:  cpu time    0.0091: real time    0.0091
     EDDAV:  cpu time   51.2320: real time   51.3533
    CHARGE:  cpu time    1.8958: real time    1.9003
    MIXING:  cpu time    0.0045: real time    0.0046
    --------------------------------------------
      LOOP:  cpu time   53.2165: real time   53.3426

 eigenvalue-minimisations  : 19088
 total energy-change (2. order) : 0.1458192E-03  (-0.3432847E-04)
 number of electron     396.0000019 magnetization 
 augmentation part      129.7740467 magnetization 

 Broyden mixing:
  rms(total) = 0.87259E-02    rms(broyden)= 0.87253E-02
  rms(prec ) = 0.13081E-01
[...]
 -0.029  -0.135   0.016  -0.015   0.057   0.031   0.143  -0.015   0.012  -0.065   0.118  -0.031   0.658  -0.015   0.007  -0.113
 -0.020  -0.177  -0.042  -0.013   0.112   0.015   0.201   0.039   0.017  -0.135  -0.004  -0.002  -0.015   0.524   0.012   0.003
 -0.128  -0.016   0.048   0.123  -0.062   0.145   0.012  -0.047  -0.151   0.064   0.032  -0.008   0.007   0.012   0.704  -0.002
  0.008   0.022  -0.011   0.000  -0.022  -0.008  -0.025   0.007  -0.001   0.018  -0.026   0.009  -0.113   0.003  -0.002   0.027
  0.001   0.039   0.007   0.003  -0.023  -0.001  -0.040  -0.006  -0.003   0.027  -0.000   0.000   0.003  -0.084  -0.002  -0.001
  0.035   0.000  -0.007  -0.022   0.007  -0.033  -0.001   0.008   0.028  -0.009  -0.008   0.002  -0.002  -0.002  -0.122   0.001


------------------------ aborting loop because EDIFF is reached ----------------------------------------


    CHARGE:  cpu time    1.8997: real time    1.9043
    FORLOC:  cpu time    0.0351: real time    0.0366
    FORNL :  cpu time   11.3903: real time   11.4173
    STRESS:  cpu time   34.2005: real time   34.2823
    FORCOR:  cpu time    0.1020: real time    0.1023
    FORHAR:  cpu time    0.0488: real time    0.0489
    MIXING:  cpu time    0.0051: real time    0.0051
    OFIELD:  cpu time    0.0001: real time    0.0001

  FORCE on cell =-STRESS in cart. coord.  units (eV):
  Direction    XX          YY          ZZ          XY          YZ          ZX
  --------------------------------------------------------------------------------------
  Alpha Z  1237.65018  1237.65018  1237.65018
  Ewald   -1273.04918 -1345.44691-19781.01799    36.65654   -11.77829   -10.01363
  Hartree  8760.85482  8738.37635 -4410.96075    18.90578    -1.11683    -8.56664
  E(xc)   -2022.28526 -2022.20856 -2025.73174     0.00627     0.05263     0.00749
  Local  -15165.20681-15079.49715 16189.98249   -54.33288    11.36522    21.26581
  n-local  -844.14045  -846.34801  -882.46388     0.24263    -1.13418     0.08365
  augment  3332.55154  3337.25057  3433.35320    -0.81889     0.53076    -1.18007
  Kinetic  5987.81480  5991.03391  6246.31835    -1.06908    -0.09924    -1.96507
  Fock        0.00000     0.00000     0.00000     0.00000     0.00000     0.00000
  -------------------------------------------------------------------------------------
  Total       14.1896293     10.8103744      7.1298654     -0.4096434     -2.1799306     -0.3684737
  in kB       40.5621223     30.9022681     20.3812562     -1.1709963     -6.2314955     -1.0533098
  external PRESSURE =      30.6152155 kB  Pullay stress =       0.0000000 kB


 VOLUME and BASIS-vectors are now :
 -----------------------------------------------------------------------------
  energy-cutoff  :      500.00
  volume of cell :      560.48
      direct lattice vectors                 reciprocal lattice vectors
     8.362870000  0.000000000  0.000000000     0.119576174  0.069037336  0.000000000
    -4.181435000  7.242457870  0.000000000     0.000000000  0.138074673  0.000000000
     0.000000000  0.000000000  9.253790000     0.000000000  0.000000000  0.108063831

  length of vectors
     8.362870000  8.362870001  9.253790000     0.138074673  0.138074673  0.108063831


 FORCES acting on ions
    electron-ion (+dipol)            ewald-force                    non-local-force                 convergence-correction
 -----------------------------------------------------------------------------------------------
   0.221E+02 0.457E+02 0.247E+02   -.222E+02 -.477E+02 -.249E+02   0.195E+00 0.110E+00 0.627E+00   0.264E-03 0.223E-02 0.505E-02
   0.166E+02 -.131E+02 0.175E+02   -.168E+02 0.138E+02 -.181E+02   0.647E+00 0.253E+00 -.455E+00   -.640E-03 0.189E-02 -.482E-02
   -.726E+01 0.699E+02 0.314E+02   0.813E+01 -.736E+02 -.305E+02   0.699E-01 0.185E+00 0.149E+01   0.311E-02 0.245E-03 0.241E-02
   0.357E+02 -.572E+02 -.259E+02   -.371E+02 0.593E+02 0.253E+02   -.844E-01 -.175E+00 -.277E-01   0.240E-02 -.709E-02 0.236E-03
   0.620E+02 -.476E+02 0.833E+01   -.653E+02 0.508E+02 -.795E+01   -.235E-01 -.382E+00 0.403E+00   0.378E-03 0.253E-02 0.381E-02
   -.757E+02 0.481E+02 -.189E+02   0.791E+02 -.501E+02 0.194E+02   -.653E+00 -.299E-01 0.933E+00   -.316E-02 0.466E-02 0.624E-03
   0.492E+01 0.190E+01 -.219E+02   -.678E+01 -.198E+01 0.206E+02   -.267E+00 0.200E+00 -.159E+01   0.605E-03 -.102E-02 0.655E-02
   -.851E+02 0.946E+02 -.350E+02   0.884E+02 -.996E+02 0.352E+02   0.194E+00 0.102E-01 0.391E-01   -.254E-02 0.415E-02 -.691E-02
   -.456E+02 -.810E+02 0.542E+02   0.483E+02 0.841E+02 -.559E+02   -.692E-01 -.183E+00 -.837E+00   0.316E-03 0.268E-03 0.554E-02
   0.239E+02 -.632E+02 -.177E+02   -.239E+02 0.658E+02 0.159E+02   0.305E+00 -.787E+00 -.128E+01   0.840E-03 -.561E-02 -.496E-02
   -.388E+02 -.268E+02 0.530E+01   0.401E+02 0.286E+02 -.580E+01   -.645E+00 0.636E+00 -.879E+00   0.216E-02 0.141E-02 0.429E-02
   0.186E+02 0.195E+02 -.549E+01   -.195E+02 -.199E+02 0.495E+01   0.297E+00 0.124E-01 -.481E+00   0.218E-02 0.193E-02 -.250E-02
   -.111E+02 -.568E+02 0.603E+00   0.112E+02 0.597E+02 -.322E+00   -.114E+00 -.543E+00 0.731E-01   -.878E-03 -.279E-02 0.471E-02
   -.352E+02 0.142E+02 0.148E+01   0.376E+02 -.152E+02 -.736E+00   0.553E+00 0.140E+00 0.815E+00   0.312E-02 0.668E-03 -.552E-02
   0.500E+02 -.235E+02 0.126E+02   -.522E+02 0.245E+02 -.124E+02   0.552E+00 -.677E-01 -.304E+00   -.411E-02 0.287E-03 0.404E-02
   -.173E+02 0.920E+01 0.158E+01   0.181E+02 -.876E+01 -.228E+01   -.437E+00 -.248E+00 0.460E+00   -.411E-02 -.406E-02 -.204E-02
   -.726E+01 0.848E+02 -.213E+02   0.827E+01 -.885E+02 0.211E+02   -.384E+00 0.189E+00 0.181E+00   -.170E-02 -.190E-02 0.474E-02
   0.475E+02 -.172E+02 -.212E+02   -.498E+02 0.176E+02 0.200E+02   0.418E-01 0.483E-01 -.146E+01   0.724E-03 0.324E-02 -.442E-02
   0.593E+02 -.638E+01 -.384E+03   -.657E+02 0.643E+01 0.413E+03   0.424E+01 -.387E-01 -.291E+02   0.450E-02 0.160E-03 0.562E-02
   0.251E+02 -.149E+02 0.399E+03   -.293E+02 0.175E+02 -.429E+03   0.269E+01 -.161E+01 0.294E+02   0.173E-02 0.228E-02 0.616E-02
   0.338E+02 -.117E+01 -.381E+03   -.361E+02 -.124E+01 0.411E+03   0.112E+01 0.172E+01 -.277E+02   0.211E-02 0.123E-02 -.928E-02
   -.294E+02 0.275E+01 0.394E+03   0.339E+02 -.424E+01 -.422E+03   -.412E+01 0.174E+01 0.277E+02   0.330E-04 0.306E-02 -.216E-02
   0.148E+01 0.140E+02 -.396E+03   -.191E+01 -.163E+02 0.427E+03   0.492E+00 0.141E+01 -.306E+02   -.399E-03 0.308E-02 0.335E-02
   -.668E+01 -.186E+02 0.354E+03   0.849E+01 0.194E+02 -.380E+03   -.123E+01 -.702E+00 0.274E+02   0.257E-02 -.519E-02 0.676E-02
   0.194E+02 0.126E+02 -.352E+03   -.222E+02 -.133E+02 0.378E+03   0.215E+01 0.111E+00 -.260E+02   -.237E-02 -.145E-02 -.502E-02
   -.348E+02 -.103E+02 0.395E+03   0.388E+02 0.111E+02 -.424E+03   -.316E+01 -.893E+00 0.288E+02   0.430E-02 -.385E-03 -.214E-02
   0.236E+02 0.377E+02 -.358E+03   -.266E+02 -.407E+02 0.385E+03   0.286E+01 0.152E+01 -.260E+02   0.311E-03 -.576E-04 0.709E-02
   -.287E+02 -.364E+01 0.339E+03   0.313E+02 0.540E+01 -.364E+03   -.232E+01 -.112E+01 0.259E+02   -.298E-02 0.375E-02 0.451E-02
   -.250E+02 0.195E+02 -.390E+03   0.261E+02 -.206E+02 0.418E+03   -.926E+00 0.141E+01 -.287E+02   0.326E-03 0.118E-03 -.857E-02
   -.183E+02 0.190E+00 0.385E+03   0.208E+02 0.153E+01 -.411E+03   -.144E+01 -.242E+01 0.277E+02   -.238E-03 -.664E-03 -.201E-02
   -.282E+02 -.335E+02 -.359E+03   0.300E+02 0.360E+02 0.388E+03   -.460E+00 -.233E+01 -.269E+02   -.323E-02 0.778E-03 0.596E-02
   0.280E+02 -.365E+01 0.373E+03   -.321E+02 0.440E+01 -.402E+03   0.205E+01 0.399E+00 0.282E+02   0.883E-03 -.372E-02 0.541E-02
   -.401E+02 -.165E+02 -.403E+03   0.439E+02 0.191E+02 0.433E+03   -.307E+01 -.165E+01 -.296E+02   -.474E-02 -.111E-02 -.107E-01
   -.512E+01 -.188E+02 0.390E+03   0.432E+01 0.191E+02 -.418E+03   0.114E+01 0.403E+00 0.280E+02   -.126E-03 -.103E-02 -.248E-02
   -.321E+02 -.596E+01 -.348E+03   0.351E+02 0.532E+01 0.374E+03   -.317E+01 0.125E+01 -.269E+02   0.186E-02 -.850E-03 0.336E-02
   0.195E+02 -.373E+01 0.379E+03   -.223E+02 0.442E+01 -.406E+03   0.271E+01 -.921E+00 0.277E+02   -.357E-02 0.222E-03 0.533E-02
   0.256E+02 -.160E+02 -.369E+03   -.275E+02 0.173E+02 0.397E+03   0.103E+01 -.116E+01 -.268E+02   0.389E-02 -.260E-02 -.742E-02
   0.809E+01 -.110E+02 0.341E+03   -.938E+01 0.117E+02 -.364E+03   0.107E+01 -.863E+00 0.250E+02   -.274E-02 0.100E-02 -.214E-02
   -.237E+02 0.183E+02 -.371E+03   0.269E+02 -.203E+02 0.400E+03   -.197E+01 0.127E+01 -.269E+02   0.736E-03 0.238E-03 0.603E-02
   -.150E+02 0.256E+02 0.361E+03   0.180E+02 -.288E+02 -.388E+03   -.262E+01 0.258E+01 0.266E+02   0.393E-02 0.435E-02 0.447E-02
   0.237E+02 -.717E+01 -.373E+03   -.260E+02 0.899E+01 0.400E+03   0.131E+01 -.113E+01 -.272E+02   0.224E-02 0.441E-02 -.887E-02
   0.179E+02 0.449E+02 0.386E+03   -.206E+02 -.488E+02 -.416E+03   0.223E+01 0.177E+01 0.282E+02   0.178E-02 -.109E-02 -.910E-04
   -.228E+02 0.638E+01 -.363E+03   0.259E+02 -.674E+01 0.390E+03   -.238E+01 0.134E+00 -.273E+02   -.141E-02 -.280E-02 0.686E-02
   0.770E+01 0.247E+01 0.368E+03   -.795E+01 -.305E+01 -.396E+03   0.135E+00 0.284E+00 0.272E+02   -.174E-02 -.140E-02 0.609E-02
   -.159E+02 -.766E+01 -.380E+03   0.168E+02 0.729E+01 0.407E+03   -.542E+00 0.380E+00 -.270E+02   0.265E-02 -.437E-02 -.761E-02
   0.305E+02 -.132E+02 0.375E+03   -.329E+02 0.135E+02 -.402E+03   0.134E+01 0.557E+00 0.269E+02   0.894E-04 -.233E-02 -.521E-02
   0.210E+02 -.432E+01 -.341E+03   -.216E+02 0.460E+01 0.366E+03   0.467E+00 -.246E+00 -.263E+02   -.192E-02 0.235E-02 0.496E-02
   -.302E+02 0.729E+01 0.345E+03   0.323E+02 -.790E+01 -.371E+03   -.152E+01 0.382E+00 0.264E+02   0.773E-03 0.808E-03 0.544E-02
   -.349E+02 0.205E+02 -.395E+03   0.385E+02 -.225E+02 0.425E+03   -.290E+01 0.175E+01 -.287E+02   -.164E-02 0.419E-02 -.673E-02
   0.383E+02 0.113E+01 0.396E+03   -.429E+02 -.542E+00 -.426E+03   0.418E+01 -.318E+00 0.288E+02   -.114E-02 0.279E-02 -.265E-02
   -.147E+02 -.775E+01 -.382E+03   0.168E+02 0.997E+01 0.411E+03   -.163E+01 -.181E+01 -.284E+02   -.975E-03 -.226E-02 0.539E-02
   0.291E+02 -.104E+02 0.396E+03   -.329E+02 0.115E+02 -.425E+03   0.252E+01 -.321E+00 0.297E+02   -.112E-02 -.240E-03 0.610E-02
   0.493E+02 -.171E+02 -.374E+03   -.546E+02 0.196E+02 0.402E+03   0.403E+01 -.229E+01 -.266E+02   -.192E-02 -.732E-03 -.795E-02
   -.167E+02 0.172E+02 0.358E+03   0.189E+02 -.178E+02 -.384E+03   -.152E+01 0.111E+01 0.265E+02   -.151E-02 -.158E-02 -.223E-02
 -----------------------------------------------------------------------------------------------
   -.299E+01 0.247E+00 0.288E+01   -.217E-12 -.199E-12 0.171E-12   0.298E+01 -.266E+00 -.289E+01   -.911E-04 0.203E-02 0.165E-01
 
 
 POSITION                                       TOTAL-FORCE (eV/Angst)
 -----------------------------------------------------------------------------------
      0.00913      0.04108      9.22021         0.178054     -1.900809      0.420674
      4.15779      7.20418      4.61800         0.494369      0.944317     -1.063435
     -1.41859      2.48764      9.17166         0.948397     -3.484503      2.348386
     -1.35905      2.37730      4.61760        -1.477888      1.927036     -0.696463
     -2.70152      4.77494      0.00306        -3.369998      2.869724      0.788272
      5.52539      4.87642      4.58490         2.671202     -2.049448      1.400800
     -1.35158      7.22567      0.09179        -2.121627      0.119180     -2.887752
      2.68382      0.11291      4.65413         3.509595     -4.998416      0.226821
      1.33069      2.33508      0.02133         2.619810      2.915427     -2.523509
      1.38216      2.39359      4.70620         0.285311      1.724078     -3.027325
      0.00900      4.75473      0.06431         0.595534      2.369633     -1.370707
      0.01549      4.84432      4.64311        -0.568805     -0.333348     -1.025179
      1.40252      7.21712      0.00986        -0.041460      2.366832      0.358615
      5.49769      0.00456      4.55148         2.913885     -0.946779      1.556961
      4.19120      2.38591      0.01459        -1.694258      0.941224     -0.158249
      4.16136      2.40510      4.60427         0.353347      0.193289     -0.242065
      2.79177      4.90907      0.04377         0.623491     -3.526850      0.007518
      2.85413      4.80323      4.69174        -2.200337      0.479417     -2.609788
      0.04713      1.59442      0.91314        -2.180669      0.008656      0.615100
      1.40531      0.79648      3.73958        -1.516121      0.944459     -1.210770
      0.02916      1.60054      5.49690        -1.153668     -0.685300      1.713457
      1.40630      0.75829      8.33142         0.385805      0.260841     -0.415533
     -1.37496      4.04673      0.95513         0.061619     -0.952961      0.360805
     -0.02506      3.20498      3.60935         0.591947      0.108838      1.571667
     -1.36308      4.06877      5.56848        -0.633648     -0.590340     -0.555727
     -0.03869      3.23852      8.29685         0.790623     -0.111519     -0.037027
     -2.79103      6.51645      0.93240        -0.111729     -1.437713      0.407173
     -1.42788      5.65010      3.68088         0.256165      0.643986      0.566863
     -2.84276      6.43394      5.59515         0.199225      0.284636     -0.261813
     -1.42523      5.67488      8.29305         1.061560     -0.704085      0.784391
      2.71193      1.60553      0.88055         1.358216      0.220498      1.461541
      4.20141      0.75882      3.67052        -2.046308      1.143715     -0.560783
      2.75094      1.60093      5.56952         0.681797      0.959358      1.215893
      4.16857      0.73560      8.34944         0.333239      0.664458     -0.182588
      1.41157      3.93820      0.97572        -0.256726      0.614660     -0.181184
      2.76418      3.22076      3.71439        -0.008938     -0.233752      0.301519
      1.45072      4.02349      5.54989        -0.790264      0.088920      0.867980
      2.79699      3.24572      8.26503        -0.222102     -0.100819      1.490924
     -0.02411      6.43098      0.90858         1.240412     -0.771586      1.810784
      1.38600      5.64014      3.69328         0.419629     -0.657401     -0.070019
      0.05209      6.41617      5.58300        -1.006219      0.693649     -0.315960
      1.40915      5.70506      8.41942        -0.428991     -2.171969     -1.410271
      5.56547      1.61777      0.92288         0.733722     -0.221425     -0.066364
      6.97519      0.80595      3.67899        -0.108927     -0.288687     -0.521462
      5.54418      1.59592      5.48099         0.339378      0.005107      0.730486
      7.02586      0.77503      8.25648        -1.116485      0.829556      0.286942
      4.22009      4.01633      1.01601        -0.172918      0.032522     -1.142710
      5.53166      3.23604      3.66275         0.612592     -0.223222      0.365032
      4.18800      3.99669      5.55506         0.677621     -0.183421      0.534119
      5.55360      3.20474      8.38643        -0.376528      0.274035     -1.788300
      2.79133      6.48259      0.91686         0.466845      0.410422      0.927712
      4.21632      5.58735      3.65760        -1.281924      0.767359     -0.179874
      2.82486      6.43063      5.47547        -1.222338      0.292974      1.326342
      4.16986      5.59685      8.33838         0.705488      0.475549      0.058080
 -----------------------------------------------------------------------------------
    total drift:                               -0.009079     -0.016966      0.004436


--------------------------------------------------------------------------------------------------------



  FREE ENERGIE OF THE ION-ELECTRON SYSTEM (eV)
  ---------------------------------------------------
  free  energy   TOTEN  =      -333.4854559885 eV

  energy  without entropy=     -333.4854559885  energy(sigma->0) =     -333.48545599
 


--------------------------------------------------------------------------------------------------------


    POTLOK:  cpu time    0.0859: real time    0.0861


--------------------------------------------------------------------------------------------------------


     LOOP+:  cpu time 1475.8330: real time 1479.7377
    4ORBIT:  cpu time    0.0000: real time    0.0000

volume of typ            1:    20.5 %

volume of typ            2:    10.5 %
 
total charge     
 
# of ion       s       p       d       tot
------------------------------------------
    1        0.317   0.452   7.827   8.596
    2        0.316   0.446   7.835   8.597
    3        0.307   0.418   7.833   8.558
    4        0.299   0.407   7.813   8.519
    5        0.305   0.418   7.825   8.548
    6        0.311   0.436   7.823   8.570
    7        0.326   0.471   7.835   8.632
    8        0.314   0.428   7.840   8.583
    9        0.318   0.448   7.833   8.600
   10        0.317   0.446   7.833   8.595
   11        0.303   0.412   7.826   8.541
   12        0.300   0.412   7.808   8.521
   13        0.319   0.455   7.834   8.608
   14        0.319   0.450   7.828   8.598
   15        0.301   0.412   7.815   8.528
   16        0.306   0.426   7.825   8.557
   17        0.302   0.413   7.815   8.530
   18        0.315   0.443   7.829   8.586
   19        1.286   2.741   0.010   4.037
   20        1.285   2.754   0.011   4.050
   21        1.280   2.760   0.010   4.051
   22        1.287   2.731   0.009   4.027
   23        1.286   2.743   0.010   4.040
   24        1.291   2.691   0.007   3.988
   25        1.285   2.709   0.007   4.000
   26        1.284   2.738   0.009   4.031
   27        1.284   2.726   0.008   4.018
   28        1.287   2.704   0.007   3.998
   29        1.287   2.722   0.008   4.017
   30        1.290   2.704   0.007   4.001
   31        1.281   2.753   0.010   4.043
   32        1.285   2.734   0.009   4.029
   33        1.283   2.755   0.011   4.049
   34        1.285   2.730   0.008   4.024
   35        1.285   2.713   0.008   4.006
   36        1.286   2.726   0.008   4.020
   37        1.282   2.737   0.009   4.027
   38        1.289   2.681   0.005   3.976
   39        1.281   2.752   0.010   4.043
   40        1.285   2.722   0.008   4.015
   41        1.288   2.710   0.008   4.005
   42        1.283   2.753   0.010   4.046
   43        1.284   2.728   0.008   4.020
   44        1.284   2.729   0.008   4.021
   45        1.281   2.742   0.009   4.032
   46        1.286   2.712   0.007   4.005
   47        1.290   2.688   0.006   3.984
   48        1.288   2.705   0.007   4.000
   49        1.285   2.738   0.009   4.032
   50        1.282   2.765   0.012   4.058
   51        1.283   2.747   0.010   4.039
   52        1.287   2.736   0.010   4.033
   53        1.281   2.752   0.009   4.043
   54        1.286   2.716   0.008   4.009
--------------------------------------------------
tot          51.86  106.04  141.19  299.08
 

 total amount of memory used by VASP MPI-rank0   181715. kBytes
=======================================================================

   base      :      30000. kBytes
   nonlr-proj:      32323. kBytes
   fftplans  :       6058. kBytes
   grid      :      19644. kBytes
   one-center:        839. kBytes
   wavefun   :      92851. kBytes
 
  
  
 General timing and accounting informations for this job:
 ========================================================
  
                  Total CPU time used (sec):     1502.917
                            User time (sec):     1499.125
                          System time (sec):        3.792
                         Elapsed time (sec):     1510.538
  
                   Maximum memory used (kb):      244916.
                   Average memory used (kb):           0.
  
                          Minor page faults:        37887
                          Major page faults:           22
                 Voluntary context switches:         1178
