 vasp.5.4.4.18Apr17-6-g9f103f2a35 (build May 12 2020 04:58:55) complex          
  
 MD_VERSION_INFO: Compiled 2020-05-12T11:58:55-UTC in devlin.sd.materialsdesign.
 com:/home/medea2/data/build/wwolf/vasp-gpu5.4.4/13047/x86_64/src/src/build/std 
 from svn 13047
 
 This VASP executable licensed from Materials Design, Inc.
 
 executed on                        Lin64 date 2023.04.27  10:43:57
 running on   16 total cores
 distrk:  each k-point on   16 cores,    1 groups
 distr:  one band on NCORES_PER_BAND=   1 cores,   16 groups


--------------------------------------------------------------------------------------------------------


 INCAR:
 POTCAR:    PAW_PBE Ni 02Aug2007                  
 POTCAR:    PAW_PBE O 08Apr2002                   

 ----------------------------------------------------------------------------- 
|                                                                             |
|           W    W    AA    RRRRR   N    N  II  N    N   GGGG   !!!           |
|           W    W   A  A   R    R  NN   N  II  NN   N  G    G  !!!           |
|           W    W  A    A  R    R  N N  N  II  N N  N  G       !!!           |
|           W WW W  AAAAAA  RRRRR   N  N N  II  N  N N  G  GGG   !            |
|           WW  WW  A    A  R   R   N   NN  II  N   NN  G    G                |
|           W    W  A    A  R    R  N    N  II  N    N   GGGG   !!!           |
|                                                                             |
|      For optimal performance we recommend to set                            |
|        NCORE= 4 - approx SQRT( number of cores)                             |
|      NCORE specifies how many cores store one orbital (NPAR=cpu/NCORE).     |
|      This setting can  greatly improve the performance of VASP for DFT.     |
|      The default,   NCORE=1            might be grossly inefficient         |
|      on modern multi-core architectures or massively parallel machines.     |
|      Do your own testing !!!!                                               |
|      Unfortunately you need to use the default for GW and RPA calculations. |
|      (for HF NCORE is supported but not extensively tested yet)             |
|                                                                             |
 ----------------------------------------------------------------------------- 

 POTCAR:    PAW_PBE Ni 02Aug2007                  
  local pseudopotential read in
  partial core-charges read in
  partial kinetic energy density read in
  atomic valenz-charges read in
  non local Contribution for L=           2  read in
    real space projection operators read in
  non local Contribution for L=           2  read in
    real space projection operators read in
  non local Contribution for L=           0  read in
    real space projection operators read in
  non local Contribution for L=           0  read in
    real space projection operators read in
  non local Contribution for L=           1  read in
    real space projection operators read in
  non local Contribution for L=           1  read in
    real space projection operators read in
    PAW grid and wavefunctions read in
 
   number of l-projection  operators is LMAX  =           6
   number of lm-projection operators is LMMAX =          18
 
 POTCAR:    PAW_PBE O 08Apr2002                   
  local pseudopotential read in
  partial core-charges read in
  partial kinetic energy density read in
  kinetic energy density of atom read in
  atomic valenz-charges read in
  non local Contribution for L=           0  read in
    real space projection operators read in
  non local Contribution for L=           0  read in
    real space projection operators read in
  non local Contribution for L=           1  read in
    real space projection operators read in
  non local Contribution for L=           1  read in
    real space projection operators read in
    PAW grid and wavefunctions read in
 
   number of l-projection  operators is LMAX  =           4
   number of lm-projection operators is LMMAX =           8
 
 Optimization of the real space projectors (new method)

 maximal supplied QI-value         = 16.25
 optimisation between [QCUT,QGAM] = [ 11.38, 22.75] = [ 36.24,144.96] Ry 
 Optimized for a Real-space Cutoff    1.47 Angstroem

   l    n(q)    QCUT    max X(q) W(low)/X(q) W(high)/X(q)  e(spline) 
   2      9    11.376    60.317    0.17E-03    0.16E-04    0.16E-06
   2      9    11.376    55.921    0.17E-03    0.16E-04    0.17E-06
   0     10    11.376    51.690    0.45E-04    0.60E-04    0.21E-06
   0     10    11.376    30.015    0.37E-04    0.55E-04    0.19E-06
   1     10    11.376    18.849    0.83E-04    0.11E-03    0.92E-07
   1     10    11.376    14.624    0.69E-04    0.92E-04    0.82E-07
 Optimization of the real space projectors (new method)

 maximal supplied QI-value         = 24.76
 optimisation between [QCUT,QGAM] = [ 11.39, 22.77] = [ 36.31,145.25] Ry 
 Optimized for a Real-space Cutoff    1.10 Angstroem

   l    n(q)    QCUT    max X(q) W(low)/X(q) W(high)/X(q)  e(spline) 
   0      7    11.387    20.381    0.22E-03    0.48E-03    0.18E-06
   0      7    11.387    15.268    0.22E-03    0.52E-03    0.19E-06
   1      7    11.387     5.964    0.22E-03    0.73E-03    0.24E-06
   1      7    11.387     5.382    0.19E-03    0.60E-03    0.21E-06

 ----------------------------------------------------------------------------- 
|                                                                             |
|  ADVICE TO THIS USER RUNNING 'VASP/VAMP'   (HEAR YOUR MASTER'S VOICE ...):  |
|                                                                             |
|      You enforced a specific xc-type in the INCAR file,                     |
|      a different type was found on the POTCAR file                          |
|          I HOPE YOU KNOW, WHAT YOU ARE  DOING                               |
|                                                                             |
 ----------------------------------------------------------------------------- 

  PAW_PBE Ni 02Aug2007                  :
 energy of atom  1       EATOM=-1077.6739
 kinetic energy error for atom=    0.0030 (will be added to EATOM!!)
  PAW_PBE O 08Apr2002                   :
 energy of atom  2       EATOM= -432.3788
 kinetic energy error for atom=    0.0224 (will be added to EATOM!!)
 
 
 POSCAR: NiO2_C2_m_scale_0_975_disp_0_02_round_2 
  positions in direct lattice
  No initial velocities read in
 exchange correlation table for  LEXCH =       14
   RHO(1)=    0.500       N(1)  =     2000
   RHO(2)=  100.500       N(2)  =     4000
 


--------------------------------------------------------------------------------------------------------


 ion  position               nearest neighbor table
   1  0.003  0.006  1.000-  46 1.54  54 1.63  51 1.72  22 1.77  27 1.78  19 1.81  13 2.57  17 2.61
                             5 2.64   3 2.75   9 2.75   7 2.83
   2  0.001  0.001  0.514-  29 1.70  53 1.71  52 1.72  44 1.76  20 1.85  21 1.85  14 2.58   6 2.59
                            18 2.59   8 2.77  10 2.80   4 2.80
   3  0.003  0.343  0.999-  50 1.64  43 1.72  46 1.78  26 1.79  19 1.82  23 1.83  15 2.59  13 2.68
                             1 2.75   5 2.77   9 2.79  11 2.81
   4  1.000  0.344  0.514-  45 1.70  48 1.71  24 1.85  25 1.86  44 1.87  21 1.89  16 2.57  14 2.68
                             6 2.76  12 2.80   2 2.80  10 2.81
   5  1.000  0.681  0.998-  54 1.58  47 1.71  50 1.75  30 1.78  23 1.84  27 1.87  17 2.59   1 2.64
                            15 2.67   7 2.72   3 2.77  11 2.83
   6  0.004  0.685  0.514-  49 1.72  52 1.74  29 1.81  25 1.83  28 1.85  48 1.90   2 2.59  18 2.60
                             8 2.64  16 2.74  12 2.76   4 2.76
   7  0.347  0.999  0.001-  30 1.56  39 1.69  34 1.71  22 1.79  27 1.85  31 1.86  11 2.56   5 2.72
                            13 2.76  15 2.78   9 2.80   1 2.83
   8  0.339  0.997  0.511-  28 1.64  41 1.71  29 1.84  32 1.85  20 1.88  33 1.92  12 2.55   6 2.64
                             2 2.77  16 2.79  14 2.80  10 2.82
   9  0.343  0.340  0.997-  38 1.75  26 1.76  22 1.76  31 1.88  19 1.89  35 1.91   1 2.75  15 2.78
                             3 2.79   7 2.80  17 2.80  11 2.80
  10  0.344  0.344  0.516-  33 1.83  37 1.84  21 1.85  36 1.86  24 1.89  20 1.89  18 2.77  16 2.78
                            12 2.79   2 2.80   4 2.81   8 2.82
  11  0.350  0.687  0.998-  42 1.68  26 1.73  30 1.80  39 1.86  35 1.87  23 1.95   7 2.56  13 2.67
                            17 2.74   9 2.80   3 2.81   5 2.83
  12  0.344  0.687  0.512-  28 1.83  40 1.85  24 1.86  37 1.88  41 1.88  25 1.89   8 2.55  14 2.69
                             6 2.76  18 2.79  10 2.79   4 2.80
  13  0.687  0.003  0.996-  42 1.60  51 1.74  34 1.74  46 1.75  43 1.87  39 1.91   1 2.57  17 2.59
                            11 2.67   3 2.68   7 2.76  15 2.77
  14  0.686  0.003  0.514-  53 1.72  40 1.74  44 1.84  45 1.84  41 1.89  32 1.91   2 2.58  18 2.60
                             4 2.68  12 2.69  16 2.74   8 2.80
  15  0.684  0.342  0.005-  50 1.74  38 1.75  34 1.79  43 1.85  31 1.86  47 1.88   3 2.59   5 2.67
                            13 2.77   7 2.78   9 2.78  17 2.80
  16  0.681  0.337  0.512-  33 1.80  32 1.80  48 1.84  45 1.86  36 1.86  49 1.89   4 2.57   6 2.74
                            14 2.74  10 2.78   8 2.79  18 2.81
  17  0.685  0.685  0.999-  42 1.77  54 1.78  38 1.80  51 1.85  35 1.86  47 1.87  13 2.59   5 2.59
                             1 2.61  11 2.74   9 2.80  15 2.80
  18  0.684  0.683  0.515-  37 1.84  53 1.85  49 1.86  52 1.87  36 1.89  40 1.89   2 2.59  14 2.60
                             6 2.60  10 2.77  12 2.79  16 2.81
  19  0.111  0.228  0.100-   1 1.81   3 1.82   9 1.89
  20  0.226  0.115  0.408-   2 1.85   8 1.88  10 1.89
  21  0.116  0.228  0.618-  10 1.85   2 1.85   4 1.89
  22  0.230  0.112  0.917-   9 1.76   1 1.77   7 1.79
  23  0.109  0.566  0.103-   3 1.83   5 1.84  11 1.95
  24  0.226  0.457  0.411-   4 1.85  12 1.86  10 1.89
  25  0.113  0.571  0.617-   6 1.83   4 1.86  12 1.89
  26  0.236  0.462  0.921-  11 1.73   9 1.76   3 1.79
  27  0.120  0.909  0.103-   1 1.78   7 1.85   5 1.87
  28  0.232  0.801  0.413-   8 1.64  12 1.83   6 1.85
  29  0.115  0.909  0.612-   2 1.70   6 1.81   8 1.84
  30  0.233  0.805  0.921-   7 1.56   5 1.78  11 1.80
  31  0.455  0.225  0.106-   7 1.86  15 1.86   9 1.88
  32  0.567  0.119  0.409-  16 1.80   8 1.85  14 1.91
  33  0.462  0.235  0.613-  16 1.80  10 1.83   8 1.92
  34  0.567  0.111  0.924-   7 1.71  13 1.74  15 1.79
  35  0.460  0.572  0.106-  17 1.86  11 1.87   9 1.91
  36  0.569  0.453  0.408-  10 1.86  16 1.86  18 1.89
  37  0.457  0.571  0.616-  10 1.84  18 1.84  12 1.88
  38  0.570  0.451  0.920-   9 1.75  15 1.75  17 1.80
  39  0.457  0.912  0.106-   7 1.69  11 1.86  13 1.91
  40  0.569  0.799  0.408-  14 1.74  12 1.85  18 1.89
  41  0.456  0.916  0.619-   8 1.71  12 1.88  14 1.89
  42  0.567  0.798  0.923-  13 1.60  11 1.68  17 1.77
  43  0.800  0.229  0.104-   3 1.72  15 1.85  13 1.87
  44  0.908  0.117  0.409-   2 1.76  14 1.84   4 1.87
  45  0.799  0.228  0.618-   4 1.70  14 1.84  16 1.86
  46  0.915  0.113  0.922-   1 1.54  13 1.75   3 1.78
  47  0.800  0.574  0.106-   5 1.71  17 1.87  15 1.88
  48  0.906  0.453  0.409-   4 1.71  16 1.84   6 1.90
  49  0.799  0.569  0.616-   6 1.72  18 1.86  16 1.89
  50  0.906  0.454  0.920-   3 1.64  15 1.74   5 1.75
  51  0.799  0.911  0.103-   1 1.72  13 1.74  17 1.85
  52  0.912  0.799  0.409-   2 1.72   6 1.74  18 1.87
  53  0.798  0.910  0.617-   2 1.71  14 1.72  18 1.85
  54  0.916  0.798  0.922-   5 1.58   1 1.63  17 1.78
 
  LATTYP: Found a hexagonal cell.
 ALAT       =     8.1537982509
 C/A-ratio  =     1.1065328050
  
  Lattice vectors:
  
 A1 = (   8.1537982500,   0.0000000000,   0.0000000000)
 A2 = (  -4.0768991200,   7.0613964200,   0.0000000000)
 A3 = (   0.0000000000,   0.0000000000,   9.0224452500)


Analysis of symmetry for initial positions (statically):
=====================================================================
 Subroutine PRICEL returns:
 Original cell was already a primitive cell.
 

 Routine SETGRP: Setting up the symmetry group for a 
 hexagonal supercell.


 Subroutine GETGRP returns: Found  1 space group operations
 (whereof  1 operations were pure point group operations)
 out of a pool of 24 trial point group operations.


The static configuration has the point symmetry C_1 .


Analysis of symmetry for dynamics (positions and initial velocities):
=====================================================================
 Subroutine PRICEL returns:
 Original cell was already a primitive cell.
 

 Routine SETGRP: Setting up the symmetry group for a 
 hexagonal supercell.


 Subroutine GETGRP returns: Found  1 space group operations
 (whereof  1 operations were pure point group operations)
 out of a pool of 24 trial point group operations.


The dynamic configuration has the point symmetry C_1 .


 Subroutine INISYM returns: Found  1 space group operations
 (whereof  1 operations are pure point group operations),
 and found     1 'primitive' translations

 
 
 KPOINTS: Automatic mesh                          

Automatic generation of k-mesh.
Space group operators:
 irot       det(A)        alpha          n_x          n_y          n_z        tau_x        tau_y        tau_z
    1     1.000000     0.000001     1.000000     0.000000     0.000000     0.000000     0.000000     0.000000
 
 Subroutine IBZKPT returns following result:
 ===========================================
 
 Found     26 irreducible k-points:
 
 Following reciprocal coordinates:
            Coordinates               Weight
  0.000000  0.000000  0.000000      1.000000
  0.250000 -0.000000  0.000000      2.000000
  0.500000 -0.000000  0.000000      1.000000
  0.000000  0.250000  0.000000      2.000000
  0.250000  0.250000  0.000000      2.000000
  0.500000  0.250000  0.000000      2.000000
 -0.250000  0.250000  0.000000      2.000000
  0.000000  0.500000  0.000000      1.000000
  0.250000  0.500000  0.000000      2.000000
  0.500000  0.500000  0.000000      1.000000
  0.000000  0.000000  0.333333      2.000000
  0.250000 -0.000000  0.333333      2.000000
  0.500000 -0.000000  0.333333      2.000000
 -0.250000  0.000000  0.333333      2.000000
  0.000000  0.250000  0.333333      2.000000
  0.250000  0.250000  0.333333      2.000000
  0.500000  0.250000  0.333333      2.000000
 -0.250000  0.250000  0.333333      2.000000
  0.000000  0.500000  0.333333      2.000000
  0.250000  0.500000  0.333333      2.000000
  0.500000  0.500000  0.333333      2.000000
 -0.250000  0.500000  0.333333      2.000000
  0.000000 -0.250000  0.333333      2.000000
  0.250000 -0.250000  0.333333      2.000000
  0.500000 -0.250000  0.333333      2.000000
 -0.250000 -0.250000  0.333333      2.000000
 
 Following cartesian coordinates:
            Coordinates               Weight
  0.000000  0.000000  0.000000      1.000000
  0.030661  0.017702  0.000000      2.000000
  0.061321  0.035404  0.000000      1.000000
  0.000000  0.035404  0.000000      2.000000
  0.030661  0.053106  0.000000      2.000000
  0.061321  0.070808  0.000000      2.000000
 -0.030661  0.017702  0.000000      2.000000
  0.000000  0.070808  0.000000      1.000000
  0.030661  0.088509  0.000000      2.000000
  0.061321  0.106211  0.000000      1.000000
  0.000000  0.000000  0.036945      2.000000
  0.030661  0.017702  0.036945      2.000000
  0.061321  0.035404  0.036945      2.000000
 -0.030661 -0.017702  0.036945      2.000000
  0.000000  0.035404  0.036945      2.000000
  0.030661  0.053106  0.036945      2.000000
  0.061321  0.070808  0.036945      2.000000
 -0.030661  0.017702  0.036945      2.000000
  0.000000  0.070808  0.036945      2.000000
  0.030661  0.088509  0.036945      2.000000
  0.061321  0.106211  0.036945      2.000000
 -0.030661  0.053106  0.036945      2.000000
  0.000000 -0.035404  0.036945      2.000000
  0.030661 -0.017702  0.036945      2.000000
  0.061321 -0.000000  0.036945      2.000000
 -0.030661 -0.053106  0.036945      2.000000
 


--------------------------------------------------------------------------------------------------------




 Dimension of arrays:
   k-points           NKPTS =     26   k-points in BZ     NKDIM =     26   number of bands    NBANDS=    240
   number of dos      NEDOS =    301   number of ions     NIONS =     54
   non local maximal  LDIM  =      6   non local SUM 2l+1 LMDIM =     18
   total plane-waves  NPLWV = 252000
   max r-space proj   IRMAX =   6562   max aug-charges    IRDMAX=  15922
   dimension x,y,z NGX =    60 NGY =   60 NGZ =   70
   dimension x,y,z NGXF=   120 NGYF=  120 NGZF=  140
   support grid    NGXF=   120 NGYF=  120 NGZF=  140
   ions per type =              18  36
   NGX,Y,Z   is equivalent  to a cutoff of  12.23, 12.23, 12.90 a.u.
   NGXF,Y,Z  is equivalent  to a cutoff of  24.47, 24.47, 25.80 a.u.

 SYSTEM =  unknown system                          
 POSCAR =  NiO2_C2_m_scale_0_975_disp_0_02_round_2 

 Startparameter for this run:
   NWRITE =      1    write-flag & timer
   PREC   = accura    normal or accurate (medium, high low for compatibility)
   ISTART =      0    job   : 0-new  1-cont  2-samecut
   ICHARG =      2    charge: 1-file 2-atom 10-const
   ISPIN  =      1    spin polarized calculation?
   LNONCOLLINEAR =      F non collinear calculations
   LSORBIT =      F    spin-orbit coupling
   INIWAV =      1    electr: 0-lowe 1-rand  2-diag
   LASPH  =      F    aspherical Exc in radial PAW
   METAGGA=      F    non-selfconsistent MetaGGA calc.

 Electronic Relaxation 1
   ENCUT  =  500.0 eV  36.75 Ry    6.06 a.u.  14.87 14.87 16.45*2*pi/ulx,y,z
   ENINI  =  500.0     initial cutoff
   ENAUG  =  605.4 eV  augmentation charge cutoff
   NELM   =    120;   NELMIN=  2; NELMDL= -5     # of ELM steps 
   EDIFF  = 0.1E-04   stopping-criterion for ELM
   LREAL  =      T    real-space projection
   NLSPLINE    = F    spline interpolate recip. space projectors
   LCOMPAT=      F    compatible to vasp.4.4
   GGA_COMPAT  = T    GGA compatible to vasp.4.4-vasp.4.6
   LMAXPAW     = -100 max onsite density
   LMAXMIX     =    2 max onsite mixed and CHGCAR
   VOSKOWN=      1    Vosko Wilk Nusair interpolation
   ROPT   =   -0.00025  -0.00025
 Ionic relaxation
   EDIFFG = 0.1E-03   stopping-criterion for IOM
   NSW    =      0    number of steps for IOM
   NBLOCK =      1;   KBLOCK =      1    inner block; outer block 
   IBRION =     -1    ionic relax: 0-MD 1-quasi-New 2-CG
   NFREE  =      0    steps in history (QN), initial steepest desc. (CG)
   ISIF   =      2    stress and relaxation
   IWAVPR =     10    prediction:  0-non 1-charg 2-wave 3-comb
   ISYM   =      2    0-nonsym 1-usesym 2-fastsym
   LCORR  =      T    Harris-Foulkes like correction to forces

   POTIM  = 0.5000    time-step for ionic-motion
   TEIN   =    0.0    initial temperature
   TEBEG  =    0.0;   TEEND  =   0.0 temperature during run
   SMASS  =  -3.00    Nose mass-parameter (am)
   estimated Nose-frequenzy (Omega)   =  0.10E-29 period in steps =****** mass=  -0.152E-26a.u.
   SCALEE = 1.0000    scale energy and forces
   NPACO  =    256;   APACO  = 16.0  distance and # of slots for P.C.
   PSTRESS=    0.0 pullay stress

  Mass of Ions in am
   POMASS =  58.69 16.00
  Ionic Valenz
   ZVAL   =  10.00  6.00
  Atomic Wigner-Seitz radii
   RWIGS  =   1.15  0.73
  virtual crystal weights 
   VCA    =   1.00  1.00
   NELECT =     396.0000    total number of electrons
   NUPDOWN=      -1.0000    fix difference up-down

 DOS related values:
   EMIN   =  10.00;   EMAX   =-10.00  energy-range for DOS
   EFERMI =   0.00
   ISMEAR =     0;   SIGMA  =   0.05  broadening in eV -4-tet -1-fermi 0-gaus

 Electronic relaxation 2 (details)
   IALGO  =     38    algorithm
   LDIAG  =      T    sub-space diagonalisation (order eigenvalues)
   LSUBROT=      F    optimize rotation matrix (better conditioning)
   TURBO    =      0    0=normal 1=particle mesh
   IRESTART =      0    0=no restart 2=restart with 2 vectors
   NREBOOT  =      0    no. of reboots
   NMIN     =      0    reboot dimension
   EREF     =   0.00    reference energy to select bands
   IMIX   =      4    mixing-type and parameters
     AMIX     =   0.40;   BMIX     =  1.00
     AMIX_MAG =   1.60;   BMIX_MAG =  1.00
     AMIN     =   0.10
     WC   =   100.;   INIMIX=   1;  MIXPRE=   1;  MAXMIX= -45

 Intra band minimization:
   WEIMIN = 0.0000     energy-eigenvalue tresh-hold
   EBREAK =  0.10E-07  absolut break condition
   DEPER  =   0.30     relativ break condition  

   TIME   =   0.40     timestep for ELM

  volume/ion in A,a.u.               =       9.62        64.92
  Fermi-wavevector in a.u.,A,eV,Ry     =   1.495483  2.826054 30.429034  2.236471
  Thomas-Fermi vector in A             =   2.607622
 
 Write flags
   LWAVE        =      F    write WAVECAR
   LDOWNSAMPLE  =      F    k-point downsampling of WAVECAR
   LCHARG       =      T    write CHGCAR
   LVTOT        =      F    write LOCPOT, total local potential
   LVHAR        =      F    write LOCPOT, Hartree potential only
   LELF         =      F    write electronic localiz. function (ELF)
   LORBIT       =      0    0 simple, 1 ext, 2 COOP (PROOUT), +10 PAW based schemes


 Dipole corrections
   LMONO  =      F    monopole corrections only (constant potential shift)
   LDIPOL =      F    correct potential (dipole corrections)
   IDIPOL =      0    1-x, 2-y, 3-z, 4-all directions 
   EPSILON=  1.0000000 bulk dielectric constant

 Exchange correlation treatment:
   GGA     =    PS    GGA type
   LEXCH   =    14    internal setting for exchange type
   VOSKOWN=      1    Vosko Wilk Nusair interpolation
   LHFCALC =     F    Hartree Fock is set to
   LHFONE  =     F    Hartree Fock one center treatment
   AEXX    =    0.0000 exact exchange contribution

 Linear response parameters
   LEPSILON=     F    determine dielectric tensor
   LRPA    =     F    only Hartree local field effects (RPA)
   LNABLA  =     F    use nabla operator in PAW spheres
   LVEL    =     F    velocity operator in full k-point grid
   LINTERFAST=   F  fast interpolation
   KINTER  =     0    interpolate to denser k-point grid
   CSHIFT  =0.1000    complex shift for real part using Kramers Kronig
   OMEGAMAX=  -1.0    maximum frequency
   DEG_THRESHOLD= 0.2000000E-02 threshold for treating states as degnerate
   RTIME   =   -0.100 relaxation time in fs
  (WPLASMAI=    0.000 imaginary part of plasma frequency in eV, 0.658/RTIME)
   DFIELD  = 0.0000000 0.0000000 0.0000000 field for delta impulse in time
 
 Orbital magnetization related:
   ORBITALMAG=     F  switch on orbital magnetization
   LCHIMAG   =     F  perturbation theory with respect to B field
   DQ        =  0.001000  dq finite difference perturbation B field
   LLRAUG    =     F  two centre corrections for induced B field



--------------------------------------------------------------------------------------------------------


 Static calculation
 charge density and potential will be updated during run
 non-spin polarized calculation
 Variant of blocked Davidson
 Davidson routine will perform the subspace rotation
 perform sub-space diagonalisation
    after iterative eigenvector-optimisation
 modified Broyden-mixing scheme, WC =      100.0
 initial mixing is a Kerker type mixing with AMIX =  0.4000 and BMIX =      1.0000
 Hartree-type preconditioning will be used
 using additional bands           42
 real space projection scheme for non local part
 use partial core corrections
 calculate Harris-corrections to forces 
   (improved forces if not selfconsistent)
 use gradient corrections 
 use of overlap-Matrix (Vanderbilt PP)
 Gauss-broadening in eV      SIGMA  =   0.05


--------------------------------------------------------------------------------------------------------


  energy-cutoff  :      500.00
  volume of cell :      519.49
      direct lattice vectors                 reciprocal lattice vectors
     8.153798250  0.000000000  0.000000000     0.122642230  0.070807524  0.000000000
    -4.076899120  7.061396420  0.000000000     0.000000000  0.141615049  0.000000000
     0.000000000  0.000000000  9.022445250     0.000000000  0.000000000  0.110834699

  length of vectors
     8.153798250  8.153798246  9.022445250     0.141615049  0.141615049  0.110834699


 
 k-points in units of 2pi/SCALE and weight: Automatic mesh                          
   0.00000000  0.00000000  0.00000000       0.021
   0.03066056  0.01770188  0.00000000       0.042
   0.06132111  0.03540376  0.00000000       0.021
   0.00000000  0.03540376  0.00000000       0.042
   0.03066056  0.05310564  0.00000000       0.042
   0.06132111  0.07080752  0.00000000       0.042
  -0.03066056  0.01770188  0.00000000       0.042
   0.00000000  0.07080752  0.00000000       0.021
   0.03066056  0.08850941  0.00000000       0.042
   0.06132111  0.10621129  0.00000000       0.021
   0.00000000  0.00000000  0.03694490       0.042
   0.03066056  0.01770188  0.03694490       0.042
   0.06132111  0.03540376  0.03694490       0.042
  -0.03066056 -0.01770188  0.03694490       0.042
   0.00000000  0.03540376  0.03694490       0.042
   0.03066056  0.05310564  0.03694490       0.042
   0.06132111  0.07080752  0.03694490       0.042
  -0.03066056  0.01770188  0.03694490       0.042
   0.00000000  0.07080752  0.03694490       0.042
   0.03066056  0.08850941  0.03694490       0.042
   0.06132111  0.10621129  0.03694490       0.042
  -0.03066056  0.05310564  0.03694490       0.042
   0.00000000 -0.03540376  0.03694490       0.042
   0.03066056 -0.01770188  0.03694490       0.042
   0.06132111 -0.00000000  0.03694490       0.042
  -0.03066056 -0.05310564  0.03694490       0.042
 
 k-points in reciprocal lattice and weights: Automatic mesh                          
   0.00000000  0.00000000  0.00000000       0.021
   0.25000000 -0.00000000  0.00000000       0.042
   0.50000000 -0.00000000  0.00000000       0.021
   0.00000000  0.25000000  0.00000000       0.042
   0.25000000  0.25000000  0.00000000       0.042
   0.50000000  0.25000000  0.00000000       0.042
  -0.25000000  0.25000000  0.00000000       0.042
   0.00000000  0.50000000  0.00000000       0.021
   0.25000000  0.50000000  0.00000000       0.042
   0.50000000  0.50000000  0.00000000       0.021
   0.00000000  0.00000000  0.33333333       0.042
   0.25000000 -0.00000000  0.33333333       0.042
   0.50000000 -0.00000000  0.33333333       0.042
  -0.25000000  0.00000000  0.33333333       0.042
   0.00000000  0.25000000  0.33333333       0.042
   0.25000000  0.25000000  0.33333333       0.042
   0.50000000  0.25000000  0.33333333       0.042
  -0.25000000  0.25000000  0.33333333       0.042
   0.00000000  0.50000000  0.33333333       0.042
   0.25000000  0.50000000  0.33333333       0.042
   0.50000000  0.50000000  0.33333333       0.042
  -0.25000000  0.50000000  0.33333333       0.042
   0.00000000 -0.25000000  0.33333333       0.042
   0.25000000 -0.25000000  0.33333333       0.042
   0.50000000 -0.25000000  0.33333333       0.042
  -0.25000000 -0.25000000  0.33333333       0.042
 
 position of ions in fractional coordinates (direct lattice) 
   0.00329648  0.00620331  0.99970099
   0.00102065  0.00125385  0.51420238
   0.00303300  0.34299355  0.99925433
   0.99955634  0.34415822  0.51374364
   0.99984932  0.68064384  0.99779493
   0.00412436  0.68541213  0.51401141
   0.34653593  0.99917771  0.00133304
   0.33883823  0.99669201  0.51055505
   0.34328820  0.34036520  0.99700651
   0.34370856  0.34441142  0.51585907
   0.34951728  0.68695866  0.99818405
   0.34356790  0.68681510  0.51159347
   0.68690110  0.00294982  0.99611763
   0.68566775  0.00322514  0.51432140
   0.68449338  0.34183367  0.00458410
   0.68138280  0.33733639  0.51178365
   0.68462845  0.68476354  0.99944438
   0.68373438  0.68328214  0.51470618
   0.11111021  0.22770874  0.10048788
   0.22569848  0.11501389  0.40821784
   0.11641942  0.22807996  0.61762577
   0.23011449  0.11238442  0.91694174
   0.10850723  0.56628532  0.10259776
   0.22557855  0.45720799  0.41050370
   0.11338508  0.57131441  0.61749234
   0.23605485  0.46198224  0.92123808
   0.12011208  0.90912296  0.10342726
   0.23170159  0.80125722  0.41285934
   0.11491260  0.90941816  0.61241810
   0.23250459  0.80514249  0.92100139
   0.45536727  0.22543398  0.10587830
   0.56678688  0.11867448  0.40878762
   0.46210683  0.23460840  0.61297897
   0.56672544  0.11054617  0.92367605
   0.45968208  0.57181325  0.10628816
   0.56880544  0.45332828  0.40823011
   0.45709702  0.57056210  0.61643449
   0.57046020  0.45057763  0.92040499
   0.45709526  0.91177375  0.10595932
   0.56896484  0.79869292  0.40767197
   0.45630717  0.91581706  0.61854860
   0.56674802  0.79830062  0.92270547
   0.80026083  0.22919576  0.10407269
   0.90790965  0.11665946  0.40852357
   0.79907530  0.22842559  0.61768049
   0.91540977  0.11269806  0.92227652
   0.80016865  0.57382302  0.10578144
   0.90640903  0.45285652  0.40886493
   0.79925092  0.56921078  0.61610235
   0.90587848  0.45413818  0.92007711
   0.79915330  0.91145243  0.10330793
   0.91178673  0.79894408  0.40934271
   0.79766074  0.90984367  0.61657824
   0.91599468  0.79837294  0.92230319
 
 position of ions in cartesian coordinates  (Angst):
   0.00158856  0.04380403  9.01974745
   0.00321035  0.00885393  4.63936282
  -1.37361963  2.42201343  9.01571748
   6.74708239  2.43023762  4.63522386
   5.37765336  4.80629598  9.00255013
  -2.76072691  4.83996676  4.63763980
  -1.24796267  7.05558990  0.01202728
  -1.30059421  7.03803739  4.60645499
   1.41146814  2.40345360  8.99543665
   1.39839964  2.43202557  4.65431022
   0.04923223  4.85088742  9.00606094
   0.00130746  4.84987369  4.61582407
   5.58882687  0.02082985  8.98741678
   5.57764793  0.02277399  4.64043667
   4.18759954  2.41382305  0.04135979
   4.18057145  2.38206598  4.61753996
   2.79061038  4.83538681  9.01743220
   2.78935984  4.82492606  4.64390833
  -0.02237533  1.60794168  0.90664640
   1.37139984  0.81215867  3.68312311
   0.01940147  1.61056301  5.57249469
   1.41812718  0.79359094  8.27305665
  -1.42394206  3.99876513  0.92568267
  -0.02466887  3.22852686  3.70374716
  -1.40467215  4.03427753  5.57129083
   0.04128864  3.26223974  8.31182014
  -2.72703293  6.41967762  0.93316679
  -1.37739684  5.65799486  3.72500079
  -2.77063194  6.42176214  5.52550878
  -1.38668919  5.68543030  8.30968462
   2.79390125  1.59187870  0.95528116
   4.13764199  0.83800755  3.68826392
   2.81145108  1.65666292  5.53056920
   4.17027932  0.78061033  8.33381659
   1.41693000  4.03780004  0.95897910
   2.78975114  3.20113069  3.68323382
   1.40095276  4.02896517  5.56174644
   2.81445784  3.18170726  8.30430363
   0.00985293  6.43839589  0.95601216
   1.38303405  5.63988733  3.67819803
  -0.01305716  6.46694731  5.58082088
   1.36655792  5.63711714  8.32505958
   5.59075736  1.61844212  0.93899015
   6.92730327  0.82377869  3.68588154
   5.58423070  1.61300364  5.57298840
   7.00460796  0.79580568  8.32118941
   4.18499517  4.05199182  0.95440725
   5.54442601  3.19779941  3.68896145
   4.19631582  4.01942296  5.55874972
   5.53487482  3.20684972  8.30134535
   2.80023517  6.43612693  0.93209014
   4.17731063  5.64166087  3.69327219
   2.79462389  6.42476683  5.56304341
   4.21394988  5.63762782  8.32143004
 


--------------------------------------------------------------------------------------------------------


 k-point  1 :   0.0000 0.0000 0.0000  plane waves:   13143
 k-point  2 :   0.2500-0.0000 0.0000  plane waves:   13176
 k-point  3 :   0.5000-0.0000 0.0000  plane waves:   13192
 k-point  4 :   0.0000 0.2500 0.0000  plane waves:   13176
 k-point  5 :   0.2500 0.2500 0.0000  plane waves:   13219
 k-point  6 :   0.5000 0.2500 0.0000  plane waves:   13219
 k-point  7 :  -0.2500 0.2500 0.0000  plane waves:   13176
 k-point  8 :   0.0000 0.5000 0.0000  plane waves:   13192
 k-point  9 :   0.2500 0.5000 0.0000  plane waves:   13219
 k-point 10 :   0.5000 0.5000 0.0000  plane waves:   13192
 k-point 11 :   0.0000 0.0000 0.3333  plane waves:   13173
 k-point 12 :   0.2500-0.0000 0.3333  plane waves:   13192
 k-point 13 :   0.5000-0.0000 0.3333  plane waves:   13188
 k-point 14 :  -0.2500 0.0000 0.3333  plane waves:   13192
 k-point 15 :   0.0000 0.2500 0.3333  plane waves:   13192
 k-point 16 :   0.2500 0.2500 0.3333  plane waves:   13183
 k-point 17 :   0.5000 0.2500 0.3333  plane waves:   13183
 k-point 18 :  -0.2500 0.2500 0.3333  plane waves:   13192
 k-point 19 :   0.0000 0.5000 0.3333  plane waves:   13188
 k-point 20 :   0.2500 0.5000 0.3333  plane waves:   13183
 k-point 21 :   0.5000 0.5000 0.3333  plane waves:   13188
 k-point 22 :  -0.2500 0.5000 0.3333  plane waves:   13183
 k-point 23 :   0.0000-0.2500 0.3333  plane waves:   13192
 k-point 24 :   0.2500-0.2500 0.3333  plane waves:   13192
 k-point 25 :   0.5000-0.2500 0.3333  plane waves:   13183
 k-point 26 :  -0.2500-0.2500 0.3333  plane waves:   13183

 maximum and minimum number of plane-waves per node :     13219    13143

 maximum number of plane-waves:     13219
 maximum index in each direction: 
   IXMAX=   15   IYMAX=   15   IZMAX=   16
   IXMIN=  -15   IYMIN=  -15   IZMIN=  -16

 The following grids will avoid any aliasing or wrap around errors in the Hartre
 e energy
  - symmetry arguments have not been applied
  - exchange correlation energies might require even more grid points
  - we recommend to set PREC=Normal or Accurate and rely on VASP defaults
 WARNING: aliasing errors must be expected set NGX to    64 to avoid them
 WARNING: aliasing errors must be expected set NGY to    64 to avoid them
 NGZ is ok and might be reduce to    70

 serial   3D FFT for wavefunctions
 parallel 3D FFT for charge:
    minimum data exchange during FFTs selected (reduces bandwidth)


 total amount of memory used by VASP MPI-rank0   171208. kBytes
=======================================================================

   base      :      30000. kBytes
   nonlr-proj:      30639. kBytes
   fftplans  :       5529. kBytes
   grid      :      17740. kBytes
   one-center:        839. kBytes
   wavefun   :      86461. kBytes
 
     INWAV:  cpu time    0.0000: real time    0.0000
 Broyden mixing: mesh for mixing (old mesh)
   NGX = 29   NGY = 29   NGZ = 33
  (NGX  =120   NGY  =120   NGZ  =140)
  gives a total of  27753 points

 initial charge density was supplied:
 charge density of overlapping atoms calculated
 number of electron     396.0000000 magnetization 
 keeping initial charge density in first step


--------------------------------------------------------------------------------------------------------


 Maximum index for non-local projection operator         6336
 Maximum index for augmentation-charges         1285 (set IRDMAX)


--------------------------------------------------------------------------------------------------------


 First call to EWALD:  gamma=   0.220
 Maximum number of real-space cells 3x 3x 3
 Maximum number of reciprocal cells 3x 3x 3

    FEWALD:  cpu time    0.0026: real time    0.0026


--------------------------------------- Iteration      1(   1)  ---------------------------------------


    POTLOK:  cpu time    0.0787: real time    0.0812
    SETDIJ:  cpu time    0.0089: real time    0.0089
     EDDAV:  cpu time   32.2902: real time   32.3756
    --------------------------------------------
      LOOP:  cpu time   32.3794: real time   32.4675

 eigenvalue-minimisations  : 12480
 total energy-change (2. order) : 0.5484551E+04  (-0.1775319E+05)
 number of electron     396.0000000 magnetization 
 augmentation part      396.0000000 magnetization 

 Free energy of the ion-electron system (eV)
  ---------------------------------------------------
  alpha Z        PSCENC =      1335.31602646
  Ewald energy   TEWEN  =    -22422.28677697
  -Hartree energ DENC   =    -13716.58222481
  -exchange      EXHF   =         0.00000000
  -V(xc)+E(xc)   XCENC  =      1602.02249108
  PAW double counting   =     29784.60368500   -31040.73694357
  entropy T*S    EENTRO =        -0.01197597
  eigenvalues    EBANDS =      5051.84548463
  atomic energy  EATOM  =     34890.38139807
  Solvation  Ediel_sol  =         0.00000000
  ---------------------------------------------------
  free energy    TOTEN  =      5484.55116390 eV

  energy without entropy =     5484.56313988  energy(sigma->0) =     5484.55715189


--------------------------------------------------------------------------------------------------------




--------------------------------------- Iteration      1(   2)  ---------------------------------------


     EDDAV:  cpu time   33.3378: real time   33.4414
    --------------------------------------------
      LOOP:  cpu time   33.3377: real time   33.4413

 eigenvalue-minimisations  : 12912
 total energy-change (2. order) :-0.4725562E+04  (-0.4388743E+04)
 number of electron     396.0000000 magnetization 
 augmentation part      396.0000000 magnetization 

 Free energy of the ion-electron system (eV)
  ---------------------------------------------------
  alpha Z        PSCENC =      1335.31602646
  Ewald energy   TEWEN  =    -22422.28677697
  -Hartree energ DENC   =    -13716.58222481
  -exchange      EXHF   =         0.00000000
  -V(xc)+E(xc)   XCENC  =      1602.02249108
  PAW double counting   =     29784.60368500   -31040.73694357
  entropy T*S    EENTRO =        -0.02469450
  eigenvalues    EBANDS =       326.29646225
  atomic energy  EATOM  =     34890.38139807
  Solvation  Ediel_sol  =         0.00000000
  ---------------------------------------------------
  free energy    TOTEN  =       758.98942300 eV

  energy without entropy =      759.01411750  energy(sigma->0) =      759.00177025


--------------------------------------------------------------------------------------------------------




--------------------------------------- Iteration      1(   3)  ---------------------------------------


     EDDAV:  cpu time   35.6694: real time   35.7538
    --------------------------------------------
      LOOP:  cpu time   35.6690: real time   35.7534

 eigenvalue-minimisations  : 13280
 total energy-change (2. order) :-0.1102462E+04  (-0.9654825E+03)
 number of electron     396.0000000 magnetization 
 augmentation part      396.0000000 magnetization 

 Free energy of the ion-electron system (eV)
  ---------------------------------------------------
  alpha Z        PSCENC =      1335.31602646
  Ewald energy   TEWEN  =    -22422.28677697
  -Hartree energ DENC   =    -13716.58222481
  -exchange      EXHF   =         0.00000000
  -V(xc)+E(xc)   XCENC  =      1602.02249108
  PAW double counting   =     29784.60368500   -31040.73694357
  entropy T*S    EENTRO =        -0.00000000
  eigenvalues    EBANDS =      -776.19012283
  atomic energy  EATOM  =     34890.38139807
  Solvation  Ediel_sol  =         0.00000000
  ---------------------------------------------------
  free energy    TOTEN  =      -343.47246758 eV

  energy without entropy =     -343.47246758  energy(sigma->0) =     -343.47246758


--------------------------------------------------------------------------------------------------------




--------------------------------------- Iteration      1(   4)  ---------------------------------------


     EDDAV:  cpu time   34.7802: real time   34.8625
    --------------------------------------------
      LOOP:  cpu time   34.7799: real time   34.8622

 eigenvalue-minimisations  : 13296
 total energy-change (2. order) :-0.1126136E+03  (-0.1104706E+03)
 number of electron     396.0000000 magnetization 
 augmentation part      396.0000000 magnetization 

 Free energy of the ion-electron system (eV)
  ---------------------------------------------------
  alpha Z        PSCENC =      1335.31602646
  Ewald energy   TEWEN  =    -22422.28677697
  -Hartree energ DENC   =    -13716.58222481
  -exchange      EXHF   =         0.00000000
  -V(xc)+E(xc)   XCENC  =      1602.02249108
  PAW double counting   =     29784.60368500   -31040.73694357
  entropy T*S    EENTRO =        -0.00000000
  eigenvalues    EBANDS =      -888.80373000
  atomic energy  EATOM  =     34890.38139807
  Solvation  Ediel_sol  =         0.00000000
  ---------------------------------------------------
  free energy    TOTEN  =      -456.08607475 eV

  energy without entropy =     -456.08607475  energy(sigma->0) =     -456.08607475


--------------------------------------------------------------------------------------------------------




--------------------------------------- Iteration      1(   5)  ---------------------------------------


     EDDAV:  cpu time   36.0800: real time   36.1703
    CHARGE:  cpu time    1.3823: real time    1.3856
    MIXING:  cpu time    0.0022: real time    0.0022
    --------------------------------------------
      LOOP:  cpu time   37.4637: real time   37.5573

 eigenvalue-minimisations  : 13904
 total energy-change (2. order) :-0.3287944E+01  (-0.3282130E+01)
 number of electron     396.0000021 magnetization 
 augmentation part      114.2667029 magnetization 

 Broyden mixing:
  rms(total) = 0.14013E+02    rms(broyden)= 0.14009E+02
  rms(prec ) = 0.16472E+02
  weight for this iteration     100.00

 Free energy of the ion-electron system (eV)
  ---------------------------------------------------
  alpha Z        PSCENC =      1335.31602646
  Ewald energy   TEWEN  =    -22422.28677697
  -Hartree energ DENC   =    -13716.58222481
  -exchange      EXHF   =         0.00000000
  -V(xc)+E(xc)   XCENC  =      1602.02249108
  PAW double counting   =     29784.60368500   -31040.73694357
  entropy T*S    EENTRO =        -0.00000000
  eigenvalues    EBANDS =      -892.09167387
  atomic energy  EATOM  =     34890.38139807
  Solvation  Ediel_sol  =         0.00000000
  ---------------------------------------------------
  free energy    TOTEN  =      -459.37401862 eV

  energy without entropy =     -459.37401862  energy(sigma->0) =     -459.37401862


--------------------------------------------------------------------------------------------------------




--------------------------------------- Iteration      1(   6)  ---------------------------------------


    POTLOK:  cpu time    0.0670: real time    0.0672
    SETDIJ:  cpu time    0.0093: real time    0.0093
     EDDAV:  cpu time   46.4265: real time   46.5397
    CHARGE:  cpu time    1.4008: real time    1.4042
    MIXING:  cpu time    0.0024: real time    0.0024
    --------------------------------------------
      LOOP:  cpu time   47.9060: real time   48.0227

 eigenvalue-minimisations  : 19200
 total energy-change (2. order) :-0.5965962E+02  (-0.1024802E+03)
 number of electron     396.0000010 magnetization 
 augmentation part      153.8510089 magnetization 

 Broyden mixing:
  rms(total) = 0.19973E+02    rms(broyden)= 0.19971E+02
  rms(prec ) = 0.22419E+02
  weight for this iteration     100.00

 eigenvalues of (default mixing * dielectric matrix)
  average eigenvalue GAMMA=   0.2506
  0.2506

 Free energy of the ion-electron system (eV)
  ---------------------------------------------------
  alpha Z        PSCENC =      1335.31602646
  Ewald energy   TEWEN  =    -22422.28677697
  -Hartree energ DENC   =    -13063.83769497
  -exchange      EXHF   =         0.00000000
  -V(xc)+E(xc)   XCENC  =      1599.77324831
  PAW double counting   =     34437.10189556   -35502.46099323
  entropy T*S    EENTRO =        -0.03250050
  eigenvalues    EBANDS =     -1792.98823770
  atomic energy  EATOM  =     34890.38139807
  Solvation  Ediel_sol  =         0.00000000
  ---------------------------------------------------
  free energy    TOTEN  =      -519.03363497 eV

  energy without entropy =     -519.00113447  energy(sigma->0) =     -519.01738472


--------------------------------------------------------------------------------------------------------




--------------------------------------- Iteration      1(   7)  ---------------------------------------


    POTLOK:  cpu time    0.0697: real time    0.0698
    SETDIJ:  cpu time    0.0117: real time    0.0117
     EDDAV:  cpu time   42.5886: real time   42.6984
    CHARGE:  cpu time    1.4806: real time    1.4841
    MIXING:  cpu time    0.0025: real time    0.0026
    --------------------------------------------
      LOOP:  cpu time   44.1531: real time   44.2666

 eigenvalue-minimisations  : 17600
 total energy-change (2. order) : 0.1860904E+03  (-0.2818338E+02)
 number of electron     396.0000016 magnetization 
 augmentation part      135.1086456 magnetization 

 Broyden mixing:
  rms(total) = 0.50797E+01    rms(broyden)= 0.50781E+01
  rms(prec ) = 0.60761E+01
  weight for this iteration     100.00

 eigenvalues of (default mixing * dielectric matrix)
  average eigenvalue GAMMA=   0.6826
  0.9104  0.4548

 Free energy of the ion-electron system (eV)
  ---------------------------------------------------
  alpha Z        PSCENC =      1335.31602646
  Ewald energy   TEWEN  =    -22422.28677697
  -Hartree energ DENC   =    -13377.89771386
  -exchange      EXHF   =         0.00000000
  -V(xc)+E(xc)   XCENC  =      1604.66444633
  PAW double counting   =     36294.28643085   -37521.06789803
  entropy T*S    EENTRO =        -0.00000000
  eigenvalues    EBANDS =     -1136.33913010
  atomic energy  EATOM  =     34890.38139807
  Solvation  Ediel_sol  =         0.00000000
  ---------------------------------------------------
  free energy    TOTEN  =      -332.94321725 eV

  energy without entropy =     -332.94321725  energy(sigma->0) =     -332.94321725


--------------------------------------------------------------------------------------------------------




--------------------------------------- Iteration      1(   8)  ---------------------------------------


    POTLOK:  cpu time    0.0717: real time    0.0718
    SETDIJ:  cpu time    0.0117: real time    0.0117
     EDDAV:  cpu time   44.9264: real time   45.0326
    CHARGE:  cpu time    1.4732: real time    1.4767
    MIXING:  cpu time    0.0024: real time    0.0024
    --------------------------------------------
      LOOP:  cpu time   46.4854: real time   46.5953

 eigenvalue-minimisations  : 20448
 total energy-change (2. order) :-0.5412338E+01  (-0.1280229E+02)
 number of electron     396.0000013 magnetization 
 augmentation part      128.5982120 magnetization 

 Broyden mixing:
  rms(total) = 0.55752E+01    rms(broyden)= 0.55740E+01
  rms(prec ) = 0.74191E+01
  weight for this iteration     100.00

 eigenvalues of (default mixing * dielectric matrix)
  average eigenvalue GAMMA=   0.6615
  1.2019  0.3913  0.3913

 Free energy of the ion-electron system (eV)
  ---------------------------------------------------
  alpha Z        PSCENC =      1335.31602646
  Ewald energy   TEWEN  =    -22422.28677697
  -Hartree energ DENC   =    -13369.93389947
  -exchange      EXHF   =         0.00000000
  -V(xc)+E(xc)   XCENC  =      1599.57510838
  PAW double counting   =     38692.94317233   -40004.43818573
  entropy T*S    EENTRO =        -0.04854331
  eigenvalues    EBANDS =     -1059.86385458
  atomic energy  EATOM  =     34890.38139807
  Solvation  Ediel_sol  =         0.00000000
  ---------------------------------------------------
  free energy    TOTEN  =      -338.35555484 eV

  energy without entropy =     -338.30701152  energy(sigma->0) =     -338.33128318


--------------------------------------------------------------------------------------------------------




--------------------------------------- Iteration      1(   9)  ---------------------------------------


    POTLOK:  cpu time    0.0731: real time    0.0733
    SETDIJ:  cpu time    0.0098: real time    0.0098
     EDDAV:  cpu time   30.7509: real time   30.8236
    CHARGE:  cpu time    1.0500: real time    1.0525
    MIXING:  cpu time    0.0024: real time    0.0024
    --------------------------------------------
      LOOP:  cpu time   31.8862: real time   31.9616

 eigenvalue-minimisations  : 16240
 total energy-change (2. order) :-0.4134016E+00  (-0.1718785E+02)
 number of electron     396.0000018 magnetization 
 augmentation part      126.6024550 magnetization 

 Broyden mixing:
  rms(total) = 0.61361E+01    rms(broyden)= 0.61355E+01
  rms(prec ) = 0.79509E+01
  weight for this iteration     100.00

 eigenvalues of (default mixing * dielectric matrix)
  average eigenvalue GAMMA=   0.6099
  1.4280  0.4148  0.4148  0.1819

 Free energy of the ion-electron system (eV)
  ---------------------------------------------------
  alpha Z        PSCENC =      1335.31602646
  Ewald energy   TEWEN  =    -22422.28677697
  -Hartree energ DENC   =    -13336.92873097
  -exchange      EXHF   =         0.00000000
  -V(xc)+E(xc)   XCENC  =      1597.10832990
  PAW double counting   =     40285.21389116   -41612.45862467
  entropy T*S    EENTRO =        -0.02203357
  eigenvalues    EBANDS =     -1075.09243581
  atomic energy  EATOM  =     34890.38139807
  Solvation  Ediel_sol  =         0.00000000
  ---------------------------------------------------
  free energy    TOTEN  =      -338.76895641 eV

  energy without entropy =     -338.74692284  energy(sigma->0) =     -338.75793962


--------------------------------------------------------------------------------------------------------




--------------------------------------- Iteration      1(  10)  ---------------------------------------


    POTLOK:  cpu time    0.0572: real time    0.0573
    SETDIJ:  cpu time    0.0085: real time    0.0086
     EDDAV:  cpu time   30.2804: real time   30.3520
    CHARGE:  cpu time    0.9629: real time    0.9652
    MIXING:  cpu time    0.0021: real time    0.0021
    --------------------------------------------
      LOOP:  cpu time   31.3111: real time   31.3852

 eigenvalue-minimisations  : 16960
 total energy-change (2. order) : 0.1320410E+02  (-0.7429616E+01)
 number of electron     396.0000017 magnetization 
 augmentation part      128.6008718 magnetization 

 Broyden mixing:
  rms(total) = 0.20031E+01    rms(broyden)= 0.20021E+01
  rms(prec ) = 0.26063E+01
  weight for this iteration     100.00

 eigenvalues of (default mixing * dielectric matrix)
  average eigenvalue GAMMA=   0.6324
  1.6165  0.4923  0.4923  0.3808  0.1800

 Free energy of the ion-electron system (eV)
  ---------------------------------------------------
  alpha Z        PSCENC =      1335.31602646
  Ewald energy   TEWEN  =    -22422.28677697
  -Hartree energ DENC   =    -13311.69455358
  -exchange      EXHF   =         0.00000000
  -V(xc)+E(xc)   XCENC  =      1596.56566854
  PAW double counting   =     41161.90375456   -42494.94026357
  entropy T*S    EENTRO =        -0.00000006
  eigenvalues    EBANDS =     -1080.81011292
  atomic energy  EATOM  =     34890.38139807
  Solvation  Ediel_sol  =         0.00000000
  ---------------------------------------------------
  free energy    TOTEN  =      -325.56485947 eV

  energy without entropy =     -325.56485941  energy(sigma->0) =     -325.56485944


--------------------------------------------------------------------------------------------------------




--------------------------------------- Iteration      1(  11)  ---------------------------------------


    POTLOK:  cpu time    0.0529: real time    0.0530
    SETDIJ:  cpu time    0.0076: real time    0.0076
     EDDAV:  cpu time   31.1291: real time   31.2026
    CHARGE:  cpu time    0.9557: real time    0.9580
    MIXING:  cpu time    0.0021: real time    0.0021
    --------------------------------------------
      LOOP:  cpu time   32.1474: real time   32.2233

 eigenvalue-minimisations  : 17952
 total energy-change (2. order) : 0.1916095E+01  (-0.1344559E+01)
 number of electron     396.0000018 magnetization 
 augmentation part      129.1570527 magnetization 

 Broyden mixing:
  rms(total) = 0.15539E+01    rms(broyden)= 0.15534E+01
  rms(prec ) = 0.19755E+01
  weight for this iteration     100.00

 eigenvalues of (default mixing * dielectric matrix)
  average eigenvalue GAMMA=   0.6309
  1.8401  0.5645  0.5645  0.3648  0.2573  0.1941

 Free energy of the ion-electron system (eV)
  ---------------------------------------------------
  alpha Z        PSCENC =      1335.31602646
  Ewald energy   TEWEN  =    -22422.28677697
  -Hartree energ DENC   =    -13314.13359899
  -exchange      EXHF   =         0.00000000
  -V(xc)+E(xc)   XCENC  =      1597.36775324
  PAW double counting   =     41850.31061863   -43188.07239802
  entropy T*S    EENTRO =        -0.00000000
  eigenvalues    EBANDS =     -1072.53178716
  atomic energy  EATOM  =     34890.38139807
  Solvation  Ediel_sol  =         0.00000000
  ---------------------------------------------------
  free energy    TOTEN  =      -323.64876473 eV

  energy without entropy =     -323.64876473  energy(sigma->0) =     -323.64876473


--------------------------------------------------------------------------------------------------------




--------------------------------------- Iteration      1(  12)  ---------------------------------------


    POTLOK:  cpu time    0.0534: real time    0.0535
    SETDIJ:  cpu time    0.0076: real time    0.0076
     EDDAV:  cpu time   31.8974: real time   31.9728
    CHARGE:  cpu time    0.9504: real time    0.9526
    MIXING:  cpu time    0.0022: real time    0.0022
    --------------------------------------------
      LOOP:  cpu time   32.9110: real time   32.9888

 eigenvalue-minimisations  : 18464
 total energy-change (2. order) : 0.1067043E+01  (-0.6387923E+00)
 number of electron     396.0000017 magnetization 
 augmentation part      129.6513794 magnetization 

 Broyden mixing:
  rms(total) = 0.71206E+00    rms(broyden)= 0.71180E+00
  rms(prec ) = 0.86308E+00
  weight for this iteration     100.00

 eigenvalues of (default mixing * dielectric matrix)
  average eigenvalue GAMMA=   0.6751
  2.0982  0.6350  0.6350  0.4560  0.4560  0.2634  0.1825

 Free energy of the ion-electron system (eV)
  ---------------------------------------------------
  alpha Z        PSCENC =      1335.31602646
  Ewald energy   TEWEN  =    -22422.28677697
  -Hartree energ DENC   =    -13322.43313089
  -exchange      EXHF   =         0.00000000
  -V(xc)+E(xc)   XCENC  =      1598.32322914
  PAW double counting   =     42583.12449119   -43926.89774887
  entropy T*S    EENTRO =        -0.00000000
  eigenvalues    EBANDS =     -1058.10920975
  atomic energy  EATOM  =     34890.38139807
  Solvation  Ediel_sol  =         0.00000000
  ---------------------------------------------------
  free energy    TOTEN  =      -322.58172161 eV

  energy without entropy =     -322.58172161  energy(sigma->0) =     -322.58172161


--------------------------------------------------------------------------------------------------------




--------------------------------------- Iteration      1(  13)  ---------------------------------------


    POTLOK:  cpu time    0.0530: real time    0.0531
    SETDIJ:  cpu time    0.0077: real time    0.0077
     EDDAV:  cpu time   31.8076: real time   31.8828
    CHARGE:  cpu time    0.9796: real time    0.9819
    MIXING:  cpu time    0.0021: real time    0.0022
    --------------------------------------------
      LOOP:  cpu time   32.8500: real time   32.9277

 eigenvalue-minimisations  : 18464
 total energy-change (2. order) : 0.6021625E-01  (-0.1643276E+00)
 number of electron     396.0000017 magnetization 
 augmentation part      129.9101228 magnetization 

 Broyden mixing:
  rms(total) = 0.53996E+00    rms(broyden)= 0.53986E+00
  rms(prec ) = 0.64087E+00
  weight for this iteration     100.00

 eigenvalues of (default mixing * dielectric matrix)
  average eigenvalue GAMMA=   0.6707
  2.2281  0.6945  0.6945  0.4950  0.4950  0.1843  0.3241  0.2502

 Free energy of the ion-electron system (eV)
  ---------------------------------------------------
  alpha Z        PSCENC =      1335.31602646
  Ewald energy   TEWEN  =    -22422.28677697
  -Hartree energ DENC   =    -13327.84653807
  -exchange      EXHF   =         0.00000000
  -V(xc)+E(xc)   XCENC  =      1598.84213800
  PAW double counting   =     43151.36359511   -44499.82320859
  entropy T*S    EENTRO =        -0.00000000
  eigenvalues    EBANDS =     -1048.46813936
  atomic energy  EATOM  =     34890.38139807
  Solvation  Ediel_sol  =         0.00000000
  ---------------------------------------------------
  free energy    TOTEN  =      -322.52150537 eV

  energy without entropy =     -322.52150537  energy(sigma->0) =     -322.52150537


--------------------------------------------------------------------------------------------------------




--------------------------------------- Iteration      1(  14)  ---------------------------------------


    POTLOK:  cpu time    0.0530: real time    0.0531
    SETDIJ:  cpu time    0.0077: real time    0.0077
     EDDAV:  cpu time   31.8456: real time   31.9275
    CHARGE:  cpu time    1.3040: real time    1.3071
    MIXING:  cpu time    0.0029: real time    0.0029
    --------------------------------------------
      LOOP:  cpu time   33.2132: real time   33.2984

 eigenvalue-minimisations  : 15808
 total energy-change (2. order) : 0.3941571E-01  (-0.7007115E-01)
 number of electron     396.0000017 magnetization 
 augmentation part      129.8849341 magnetization 

 Broyden mixing:
  rms(total) = 0.39781E+00    rms(broyden)= 0.39778E+00
  rms(prec ) = 0.46294E+00
  weight for this iteration     100.00

 eigenvalues of (default mixing * dielectric matrix)
  average eigenvalue GAMMA=   0.6912
  2.4570  0.7843  0.7843  0.5484  0.5484  0.1834  0.3312  0.3312  0.2525

 Free energy of the ion-electron system (eV)
  ---------------------------------------------------
  alpha Z        PSCENC =      1335.31602646
  Ewald energy   TEWEN  =    -22422.28677697
  -Hartree energ DENC   =    -13330.73242836
  -exchange      EXHF   =         0.00000000
  -V(xc)+E(xc)   XCENC  =      1598.99017552
  PAW double counting   =     43451.42950777   -44802.15008207
  entropy T*S    EENTRO =        -0.00000000
  eigenvalues    EBANDS =     -1043.42991006
  atomic energy  EATOM  =     34890.38139807
  Solvation  Ediel_sol  =         0.00000000
  ---------------------------------------------------
  free energy    TOTEN  =      -322.48208965 eV

  energy without entropy =     -322.48208965  energy(sigma->0) =     -322.48208965


--------------------------------------------------------------------------------------------------------




--------------------------------------- Iteration      1(  15)  ---------------------------------------


    POTLOK:  cpu time    0.0669: real time    0.0671
    SETDIJ:  cpu time    0.0094: real time    0.0094
     EDDAV:  cpu time   40.6839: real time   40.7930
    CHARGE:  cpu time    1.5236: real time    1.5272
    MIXING:  cpu time    0.0031: real time    0.0031
    --------------------------------------------
      LOOP:  cpu time   42.2869: real time   42.3998

 eigenvalue-minimisations  : 16224
 total energy-change (2. order) : 0.3276371E-01  (-0.1756577E-01)
 number of electron     396.0000017 magnetization 
 augmentation part      129.8547814 magnetization 

 Broyden mixing:
  rms(total) = 0.25911E+00    rms(broyden)= 0.25909E+00
  rms(prec ) = 0.30210E+00
  weight for this iteration     100.00

 eigenvalues of (default mixing * dielectric matrix)
  average eigenvalue GAMMA=   0.7516
  2.6884  1.0652  0.9227  0.6218  0.6218  0.4442  0.4442  0.1837  0.2783  0.2460

 Free energy of the ion-electron system (eV)
  ---------------------------------------------------
  alpha Z        PSCENC =      1335.31602646
  Ewald energy   TEWEN  =    -22422.28677697
  -Hartree energ DENC   =    -13334.56608140
  -exchange      EXHF   =         0.00000000
  -V(xc)+E(xc)   XCENC  =      1599.08239577
  PAW double counting   =     43739.84468522   -45092.66956909
  entropy T*S    EENTRO =        -0.00000000
  eigenvalues    EBANDS =     -1037.55140400
  atomic energy  EATOM  =     34890.38139807
  Solvation  Ediel_sol  =         0.00000000
  ---------------------------------------------------
  free energy    TOTEN  =      -322.44932594 eV

  energy without entropy =     -322.44932594  energy(sigma->0) =     -322.44932594


--------------------------------------------------------------------------------------------------------




--------------------------------------- Iteration      1(  16)  ---------------------------------------


    POTLOK:  cpu time    0.0704: real time    0.0705
    SETDIJ:  cpu time    0.0097: real time    0.0097
     EDDAV:  cpu time   38.5034: real time   38.5945
    CHARGE:  cpu time    1.3220: real time    1.3252
    MIXING:  cpu time    0.0075: real time    0.1629
    --------------------------------------------
      LOOP:  cpu time   39.9130: real time   40.1628

 eigenvalue-minimisations  : 15184
 total energy-change (2. order) : 0.7194866E-02  (-0.6868105E-02)
 number of electron     396.0000017 magnetization 
 augmentation part      129.8445936 magnetization 

 Broyden mixing:
  rms(total) = 0.19608E+00    rms(broyden)= 0.19608E+00
  rms(prec ) = 0.23909E+00
  weight for this iteration     100.00

 eigenvalues of (default mixing * dielectric matrix)
  average eigenvalue GAMMA=   0.7677
  2.6397  1.4977  0.9487  0.6545  0.6545  0.4748  0.4748  0.3927  0.1836  0.2772
  0.2464

 Free energy of the ion-electron system (eV)
  ---------------------------------------------------
  alpha Z        PSCENC =      1335.31602646
  Ewald energy   TEWEN  =    -22422.28677697
  -Hartree energ DENC   =    -13337.85014940
  -exchange      EXHF   =         0.00000000
  -V(xc)+E(xc)   XCENC  =      1599.12188816
  PAW double counting   =     43908.19187938   -45261.10113411
  entropy T*S    EENTRO =        -0.00000000
  eigenvalues    EBANDS =     -1034.21526266
  atomic energy  EATOM  =     34890.38139807
  Solvation  Ediel_sol  =         0.00000000
  ---------------------------------------------------
  free energy    TOTEN  =      -322.44213107 eV

  energy without entropy =     -322.44213107  energy(sigma->0) =     -322.44213107


--------------------------------------------------------------------------------------------------------




--------------------------------------- Iteration      1(  17)  ---------------------------------------


    POTLOK:  cpu time    0.0790: real time    0.0792
    SETDIJ:  cpu time    0.0091: real time    0.0091
     EDDAV:  cpu time   33.3445: real time   33.4234
    CHARGE:  cpu time    1.3267: real time    1.3299
    MIXING:  cpu time    0.0031: real time    0.0031
    --------------------------------------------
      LOOP:  cpu time   34.7623: real time   34.8445

 eigenvalue-minimisations  : 14064
 total energy-change (2. order) : 0.5833104E-02  (-0.3799688E-02)
 number of electron     396.0000017 magnetization 
 augmentation part      129.8581461 magnetization 

 Broyden mixing:
  rms(total) = 0.16227E+00    rms(broyden)= 0.16226E+00
  rms(prec ) = 0.20064E+00
  weight for this iteration     100.00

 eigenvalues of (default mixing * dielectric matrix)
  average eigenvalue GAMMA=   0.7742
  2.5813  1.9381  0.9577  0.6927  0.6927  0.5462  0.4318  0.4318  0.1836  0.2454
  0.2783  0.3115

 Free energy of the ion-electron system (eV)
  ---------------------------------------------------
  alpha Z        PSCENC =      1335.31602646
  Ewald energy   TEWEN  =    -22422.28677697
  -Hartree energ DENC   =    -13338.91975501
  -exchange      EXHF   =         0.00000000
  -V(xc)+E(xc)   XCENC  =      1599.12793408
  PAW double counting   =     43882.78078094   -45234.47653484
  entropy T*S    EENTRO =        -0.00000000
  eigenvalues    EBANDS =     -1034.35937070
  atomic energy  EATOM  =     34890.38139807
  Solvation  Ediel_sol  =         0.00000000
  ---------------------------------------------------
  free energy    TOTEN  =      -322.43629797 eV

  energy without entropy =     -322.43629797  energy(sigma->0) =     -322.43629797


--------------------------------------------------------------------------------------------------------




--------------------------------------- Iteration      1(  18)  ---------------------------------------


    POTLOK:  cpu time    0.0659: real time    0.0661
    SETDIJ:  cpu time    0.0091: real time    0.0091
     EDDAV:  cpu time   41.0231: real time   41.1202
    CHARGE:  cpu time    1.3317: real time    1.3349
    MIXING:  cpu time    0.0031: real time    0.0031
    --------------------------------------------
      LOOP:  cpu time   42.4330: real time   42.5334

 eigenvalue-minimisations  : 17808
 total energy-change (2. order) : 0.8168793E-02  (-0.1515146E-02)
 number of electron     396.0000017 magnetization 
 augmentation part      129.8655849 magnetization 

 Broyden mixing:
  rms(total) = 0.11879E+00    rms(broyden)= 0.11879E+00
  rms(prec ) = 0.14700E+00
  weight for this iteration     100.00

 eigenvalues of (default mixing * dielectric matrix)
  average eigenvalue GAMMA=   0.7943
  2.4426  2.4426  0.8798  0.7313  0.7313  0.6762  0.5343  0.4424  0.4424  0.1836
  0.2463  0.2741  0.2992

 Free energy of the ion-electron system (eV)
  ---------------------------------------------------
  alpha Z        PSCENC =      1335.31602646
  Ewald energy   TEWEN  =    -22422.28677697
  -Hartree energ DENC   =    -13339.75132268
  -exchange      EXHF   =         0.00000000
  -V(xc)+E(xc)   XCENC  =      1599.14045701
  PAW double counting   =     43859.44208961   -45210.39622151
  entropy T*S    EENTRO =        -0.00000000
  eigenvalues    EBANDS =     -1034.27377916
  atomic energy  EATOM  =     34890.38139807
  Solvation  Ediel_sol  =         0.00000000
  ---------------------------------------------------
  free energy    TOTEN  =      -322.42812918 eV

  energy without entropy =     -322.42812918  energy(sigma->0) =     -322.42812918


--------------------------------------------------------------------------------------------------------




--------------------------------------- Iteration      1(  19)  ---------------------------------------


    POTLOK:  cpu time    0.0647: real time    0.0649
    SETDIJ:  cpu time    0.0092: real time    0.0093
     EDDAV:  cpu time   41.9235: real time   42.0227
    CHARGE:  cpu time    1.3298: real time    1.3330
    MIXING:  cpu time    0.0033: real time    0.0033
    --------------------------------------------
      LOOP:  cpu time   43.3306: real time   43.4331

 eigenvalue-minimisations  : 18528
 total energy-change (2. order) : 0.4092038E-02  (-0.5228825E-03)
 number of electron     396.0000017 magnetization 
 augmentation part      129.8644719 magnetization 

 Broyden mixing:
  rms(total) = 0.95115E-01    rms(broyden)= 0.95113E-01
  rms(prec ) = 0.11973E+00
  weight for this iteration     100.00

 eigenvalues of (default mixing * dielectric matrix)
  average eigenvalue GAMMA=   0.8202
  2.6262  2.6262  0.9751  0.9751  0.6435  0.6435  0.6707  0.4623  0.4623  0.4062
  0.1836  0.2458  0.2737  0.2879

 Free energy of the ion-electron system (eV)
  ---------------------------------------------------
  alpha Z        PSCENC =      1335.31602646
  Ewald energy   TEWEN  =    -22422.28677697
  -Hartree energ DENC   =    -13340.53015659
  -exchange      EXHF   =         0.00000000
  -V(xc)+E(xc)   XCENC  =      1599.16105134
  PAW double counting   =     43840.91968607   -45191.35821776
  entropy T*S    EENTRO =        -0.00000000
  eigenvalues    EBANDS =     -1034.02704775
  atomic energy  EATOM  =     34890.38139807
  Solvation  Ediel_sol  =         0.00000000
  ---------------------------------------------------
  free energy    TOTEN  =      -322.42403714 eV

  energy without entropy =     -322.42403714  energy(sigma->0) =     -322.42403714


--------------------------------------------------------------------------------------------------------




--------------------------------------- Iteration      1(  20)  ---------------------------------------


    POTLOK:  cpu time    0.0652: real time    0.0653
    SETDIJ:  cpu time    0.0088: real time    0.0088
     EDDAV:  cpu time   43.1363: real time   43.2383
    CHARGE:  cpu time    1.3694: real time    1.3726
    MIXING:  cpu time    0.0042: real time    0.0071
    --------------------------------------------
      LOOP:  cpu time   44.5838: real time   44.6921

 eigenvalue-minimisations  : 19184
 total energy-change (2. order) : 0.3419932E-02  (-0.2956951E-03)
 number of electron     396.0000017 magnetization 
 augmentation part      129.8611473 magnetization 

 Broyden mixing:
  rms(total) = 0.72451E-01    rms(broyden)= 0.72450E-01
  rms(prec ) = 0.94555E-01
  weight for this iteration     100.00

 eigenvalues of (default mixing * dielectric matrix)
  average eigenvalue GAMMA=   0.8359
  2.9934  2.4832  1.1689  1.1689  0.6500  0.6500  0.7051  0.5325  0.4346  0.4346
  0.1836  0.3307  0.2462  0.2865  0.2704

 Free energy of the ion-electron system (eV)
  ---------------------------------------------------
  alpha Z        PSCENC =      1335.31602646
  Ewald energy   TEWEN  =    -22422.28677697
  -Hartree energ DENC   =    -13341.07276709
  -exchange      EXHF   =         0.00000000
  -V(xc)+E(xc)   XCENC  =      1599.18021008
  PAW double counting   =     43829.95008467   -45180.08624975
  entropy T*S    EENTRO =        -0.00000000
  eigenvalues    EBANDS =     -1033.80254268
  atomic energy  EATOM  =     34890.38139807
  Solvation  Ediel_sol  =         0.00000000
  ---------------------------------------------------
  free energy    TOTEN  =      -322.42061721 eV

  energy without entropy =     -322.42061721  energy(sigma->0) =     -322.42061721


--------------------------------------------------------------------------------------------------------




--------------------------------------- Iteration      1(  21)  ---------------------------------------


    POTLOK:  cpu time    0.0715: real time    0.0874
    SETDIJ:  cpu time    0.0091: real time    0.0092
     EDDAV:  cpu time   42.5747: real time   42.6753
    CHARGE:  cpu time    1.3172: real time    1.3203
    MIXING:  cpu time    0.0052: real time    0.0153
    --------------------------------------------
      LOOP:  cpu time   43.9777: real time   44.1075

 eigenvalue-minimisations  : 18976
 total energy-change (2. order) : 0.2617822E-02  (-0.2462578E-03)
 number of electron     396.0000017 magnetization 
 augmentation part      129.8595235 magnetization 

 Broyden mixing:
  rms(total) = 0.55695E-01    rms(broyden)= 0.55694E-01
  rms(prec ) = 0.73278E-01
  weight for this iteration     100.00

 eigenvalues of (default mixing * dielectric matrix)
  average eigenvalue GAMMA=   0.8769
  3.4242  2.2435  1.8206  1.1769  0.6863  0.6863  0.7200  0.6596  0.4563  0.4396
  0.4396  0.1836  0.3029  0.2459  0.2777  0.2676

 Free energy of the ion-electron system (eV)
  ---------------------------------------------------
  alpha Z        PSCENC =      1335.31602646
  Ewald energy   TEWEN  =    -22422.28677697
  -Hartree energ DENC   =    -13341.51087846
  -exchange      EXHF   =         0.00000000
  -V(xc)+E(xc)   XCENC  =      1599.19839511
  PAW double counting   =     43830.05114029   -45180.09698052
  entropy T*S    EENTRO =        -0.00000000
  eigenvalues    EBANDS =     -1033.47032336
  atomic energy  EATOM  =     34890.38139807
  Solvation  Ediel_sol  =         0.00000000
  ---------------------------------------------------
  free energy    TOTEN  =      -322.41799939 eV

  energy without entropy =     -322.41799939  energy(sigma->0) =     -322.41799939


--------------------------------------------------------------------------------------------------------




--------------------------------------- Iteration      1(  22)  ---------------------------------------


    POTLOK:  cpu time    0.0678: real time    0.0680
    SETDIJ:  cpu time    0.0094: real time    0.0095
     EDDAV:  cpu time   48.8021: real time   48.9175
    CHARGE:  cpu time    1.2767: real time    1.2797
    MIXING:  cpu time    0.0039: real time    0.0039
    --------------------------------------------
      LOOP:  cpu time   50.1599: real time   50.2785

 eigenvalue-minimisations  : 21968
 total energy-change (2. order) : 0.2408041E-02  (-0.1621914E-03)
 number of electron     396.0000017 magnetization 
 augmentation part      129.8562272 magnetization 

 Broyden mixing:
  rms(total) = 0.37777E-01    rms(broyden)= 0.37776E-01
  rms(prec ) = 0.50650E-01
  weight for this iteration     100.00

 eigenvalues of (default mixing * dielectric matrix)
  average eigenvalue GAMMA=   0.8956
  3.6754  2.2361  2.2361  1.1334  0.8283  0.6885  0.6885  0.6721  0.5016  0.4478
  0.4478  0.3949  0.1836  0.2460  0.3009  0.2780  0.2661

 Free energy of the ion-electron system (eV)
  ---------------------------------------------------
  alpha Z        PSCENC =      1335.31602646
  Ewald energy   TEWEN  =    -22422.28677697
  -Hartree energ DENC   =    -13341.90569034
  -exchange      EXHF   =         0.00000000
  -V(xc)+E(xc)   XCENC  =      1599.21510025
  PAW double counting   =     43828.72233023   -45178.71768072
  entropy T*S    EENTRO =        -0.00000000
  eigenvalues    EBANDS =     -1033.14029833
  atomic energy  EATOM  =     34890.38139807
  Solvation  Ediel_sol  =         0.00000000
  ---------------------------------------------------
  free energy    TOTEN  =      -322.41559135 eV

  energy without entropy =     -322.41559135  energy(sigma->0) =     -322.41559135


--------------------------------------------------------------------------------------------------------




--------------------------------------- Iteration      1(  23)  ---------------------------------------


    POTLOK:  cpu time    0.0663: real time    0.0664
    SETDIJ:  cpu time    0.0086: real time    0.0086
     EDDAV:  cpu time   43.2852: real time   43.3876
    CHARGE:  cpu time    1.3046: real time    1.3077
    MIXING:  cpu time    0.0041: real time    0.0041
    --------------------------------------------
      LOOP:  cpu time   44.6687: real time   44.7743

 eigenvalue-minimisations  : 19552
 total energy-change (2. order) : 0.1299004E-02  (-0.1883631E-03)
 number of electron     396.0000017 magnetization 
 augmentation part      129.8537630 magnetization 

 Broyden mixing:
  rms(total) = 0.23992E-01    rms(broyden)= 0.23991E-01
  rms(prec ) = 0.33044E-01
  weight for this iteration     100.00

 eigenvalues of (default mixing * dielectric matrix)
  average eigenvalue GAMMA=   0.9066
  4.0057  2.3192  2.3192  1.1467  0.9389  0.6778  0.6778  0.6816  0.5616  0.4659
  0.4659  0.1836  0.3945  0.3945  0.2460  0.2986  0.2761  0.2652

 Free energy of the ion-electron system (eV)
  ---------------------------------------------------
  alpha Z        PSCENC =      1335.31602646
  Ewald energy   TEWEN  =    -22422.28677697
  -Hartree energ DENC   =    -13342.06254642
  -exchange      EXHF   =         0.00000000
  -V(xc)+E(xc)   XCENC  =      1599.22055405
  PAW double counting   =     43824.17802589   -45174.12651979
  entropy T*S    EENTRO =        -0.00000000
  eigenvalues    EBANDS =     -1033.03445362
  atomic energy  EATOM  =     34890.38139807
  Solvation  Ediel_sol  =         0.00000000
  ---------------------------------------------------
  free energy    TOTEN  =      -322.41429234 eV

  energy without entropy =     -322.41429234  energy(sigma->0) =     -322.41429234


--------------------------------------------------------------------------------------------------------




--------------------------------------- Iteration      1(  24)  ---------------------------------------


    POTLOK:  cpu time    0.0672: real time    0.0674
    SETDIJ:  cpu time    0.0092: real time    0.0093
     EDDAV:  cpu time   41.1628: real time   41.2601
    CHARGE:  cpu time    1.2864: real time    1.2894
    MIXING:  cpu time    0.0041: real time    0.0042
    --------------------------------------------
      LOOP:  cpu time   42.5298: real time   42.6302

 eigenvalue-minimisations  : 18320
 total energy-change (2. order) : 0.5188224E-03  (-0.1791206E-03)
 number of electron     396.0000017 magnetization 
 augmentation part      129.8526379 magnetization 

 Broyden mixing:
  rms(total) = 0.15658E-01    rms(broyden)= 0.15656E-01
  rms(prec ) = 0.21722E-01
  weight for this iteration     100.00

 eigenvalues of (default mixing * dielectric matrix)
  average eigenvalue GAMMA=   0.9670
  4.8244  2.4869  2.3225  1.4872  1.0860  0.6875  0.6875  0.7011  0.7011  0.5121
  0.4414  0.4414  0.4412  0.1836  0.3038  0.2460  0.2804  0.2758  0.2623

 Free energy of the ion-electron system (eV)
  ---------------------------------------------------
  alpha Z        PSCENC =      1335.31602646
  Ewald energy   TEWEN  =    -22422.28677697
  -Hartree energ DENC   =    -13342.13902891
  -exchange      EXHF   =         0.00000000
  -V(xc)+E(xc)   XCENC  =      1599.21944976
  PAW double counting   =     43822.03531728   -45171.95661183
  entropy T*S    EENTRO =        -0.00000000
  eigenvalues    EBANDS =     -1032.98354737
  atomic energy  EATOM  =     34890.38139807
  Solvation  Ediel_sol  =         0.00000000
  ---------------------------------------------------
  free energy    TOTEN  =      -322.41377352 eV

  energy without entropy =     -322.41377352  energy(sigma->0) =     -322.41377352


--------------------------------------------------------------------------------------------------------




--------------------------------------- Iteration      1(  25)  ---------------------------------------


    POTLOK:  cpu time    0.0635: real time    0.0637
    SETDIJ:  cpu time    0.0085: real time    0.0086
     EDDAV:  cpu time   49.0576: real time   49.1736
    CHARGE:  cpu time    1.3542: real time    1.3574
    MIXING:  cpu time    0.0043: real time    0.0043
    --------------------------------------------
      LOOP:  cpu time   50.4881: real time   50.6075

 eigenvalue-minimisations  : 22480
 total energy-change (2. order) : 0.4267109E-03  (-0.7362925E-04)
 number of electron     396.0000017 magnetization 
 augmentation part      129.8496350 magnetization 

 Broyden mixing:
  rms(total) = 0.45902E-02    rms(broyden)= 0.45860E-02
  rms(prec ) = 0.67117E-02
  weight for this iteration     100.00

 eigenvalues of (default mixing * dielectric matrix)
  average eigenvalue GAMMA=   1.0137
  5.4639  2.7436  2.2045  1.8651  1.1363  0.7663  0.7663  0.6741  0.6741  0.5528
  0.5528  0.4448  0.4448  0.4255  0.1836  0.3064  0.2460  0.2833  0.2754  0.2636

 Free energy of the ion-electron system (eV)
  ---------------------------------------------------
  alpha Z        PSCENC =      1335.31602646
  Ewald energy   TEWEN  =    -22422.28677697
  -Hartree energ DENC   =    -13342.15058133
  -exchange      EXHF   =         0.00000000
  -V(xc)+E(xc)   XCENC  =      1599.20989334
  PAW double counting   =     43820.65978249   -45170.56026622
  entropy T*S    EENTRO =        -0.00000000
  eigenvalues    EBANDS =     -1032.98282265
  atomic energy  EATOM  =     34890.38139807
  Solvation  Ediel_sol  =         0.00000000
  ---------------------------------------------------
  free energy    TOTEN  =      -322.41334681 eV

  energy without entropy =     -322.41334681  energy(sigma->0) =     -322.41334681


--------------------------------------------------------------------------------------------------------




--------------------------------------- Iteration      1(  26)  ---------------------------------------


    POTLOK:  cpu time    0.0666: real time    0.0667
    SETDIJ:  cpu time    0.0091: real time    0.0091
     EDDAV:  cpu time   40.5877: real time   40.6837
    CHARGE:  cpu time    1.2375: real time    1.2404
    MIXING:  cpu time    0.0042: real time    0.0042
    --------------------------------------------
      LOOP:  cpu time   41.9051: real time   42.0042

 eigenvalue-minimisations  : 18016
 total energy-change (2. order) :-0.5127760E-04  (-0.1157739E-03)
 number of electron     396.0000017 magnetization 
 augmentation part      129.8492314 magnetization 

 Broyden mixing:
[...]
  0.407   0.619  -0.039  -0.447  -0.656  -0.419  -0.678   0.035   0.489   0.703  -0.070   0.024   1.052  -0.022  -0.101  -0.180
 -0.452   0.069  -0.221   0.481  -0.199   0.497  -0.073   0.241  -0.513   0.209  -0.175   0.042  -0.022   0.748   0.045   0.001
 -0.586  -0.417  -0.234   0.254   0.346   0.624   0.463   0.222  -0.292  -0.363  -0.305   0.082  -0.101   0.045   1.069   0.014
 -0.078  -0.120   0.025   0.047   0.115   0.056   0.111  -0.020  -0.053  -0.114   0.020  -0.006  -0.180   0.001   0.014   0.048
  0.044  -0.031  -0.001  -0.098   0.026  -0.051   0.028  -0.020   0.078  -0.033   0.017  -0.010   0.001  -0.115  -0.002  -0.001
  0.041   0.047   0.043  -0.072  -0.102  -0.051  -0.052  -0.027   0.049   0.076   0.047  -0.023   0.014  -0.001  -0.181  -0.006


------------------------ aborting loop because EDIFF is reached ----------------------------------------


    CHARGE:  cpu time    1.3065: real time    1.3096
    FORLOC:  cpu time    0.0288: real time    0.0299
    FORNL :  cpu time    9.6192: real time    9.6420
    STRESS:  cpu time   28.8490: real time   28.9177
    FORCOR:  cpu time    0.0869: real time    0.0871
    FORHAR:  cpu time    0.0407: real time    0.0408
    MIXING:  cpu time    0.0044: real time    0.0044
    OFIELD:  cpu time    0.0001: real time    0.0001

  FORCE on cell =-STRESS in cart. coord.  units (eV):
  Direction    XX          YY          ZZ          XY          YZ          ZX
  --------------------------------------------------------------------------------------
  Alpha Z  1335.31603  1335.31603  1335.31603
  Ewald    -545.82722  -738.78284-21137.83008  -155.83900   -73.32864   113.29050
  Hartree  9283.84887  9172.18862 -5113.87300   -75.35423   -30.40951    38.35448
  E(xc)   -2039.94581 -2039.85112 -2043.00516     0.16607     0.11036    -0.23540
  Local  -16490.24194-16189.97085 18084.73092   220.95295   101.23380  -140.47800
  n-local  -785.86795  -788.78086  -843.95976    -4.45972    -1.95003     6.17212
  augment  3314.07377  3315.13772  3440.66523     4.34060     1.59746    -4.79329
  Kinetic  6044.66187  6050.32475  6348.54830     3.33442    -2.25070    -0.76287
  Fock        0.00000     0.00000     0.00000     0.00000     0.00000     0.00000
  -------------------------------------------------------------------------------------
  Total      116.0176138    115.5814433     70.5924870     -6.8589042     -4.9972665     11.5475392
  in kB      357.8159545    356.4707386    217.7179594    -21.1539030    -15.4123293     35.6143661
  external PRESSURE =     310.6682175 kB  Pullay stress =       0.0000000 kB


 VOLUME and BASIS-vectors are now :
 -----------------------------------------------------------------------------
  energy-cutoff  :      500.00
  volume of cell :      519.49
      direct lattice vectors                 reciprocal lattice vectors
     8.153798250  0.000000000  0.000000000     0.122642230  0.070807524  0.000000000
    -4.076899120  7.061396420  0.000000000     0.000000000  0.141615049  0.000000000
     0.000000000  0.000000000  9.022445250     0.000000000  0.000000000  0.110834699

  length of vectors
     8.153798250  8.153798246  9.022445250     0.141615049  0.141615049  0.110834699


 FORCES acting on ions
    electron-ion (+dipol)            ewald-force                    non-local-force                 convergence-correction
 -----------------------------------------------------------------------------------------------
   -.926E+02 -.516E+02 -.414E+02   0.102E+03 0.538E+02 0.478E+02   -.125E+01 -.231E+00 0.877E+00   -.189E-01 -.158E-01 -.577E-02
   -.303E+02 -.971E+02 0.418E+02   0.328E+02 0.104E+03 -.428E+02   -.759E-01 -.785E+00 0.569E-01   -.941E-02 -.211E-01 0.262E-02
   -.780E+02 -.500E+02 0.119E+02   0.841E+02 0.506E+02 -.849E+01   -.465E+00 -.433E+00 0.301E+00   -.710E-02 -.469E-02 0.134E-02
   -.921E+02 -.373E+02 0.375E+02   0.980E+02 0.379E+02 -.375E+02   -.190E+00 -.380E+00 -.103E-01   -.147E-01 0.551E-04 0.230E-02
   -.893E+02 0.578E+02 -.216E+00   0.974E+02 -.597E+02 0.485E+01   -.424E+00 0.981E+00 0.910E+00   -.999E-02 0.680E-03 -.283E-02
   -.545E+02 0.719E+02 0.533E+02   0.582E+02 -.740E+02 -.535E+02   0.211E+00 0.598E+00 -.579E+00   -.725E-02 0.245E-02 0.566E-02
   0.301E+02 -.106E+03 -.426E+02   -.343E+02 0.115E+03 0.474E+02   0.905E-01 -.108E+01 0.894E+00   0.889E-02 -.484E-03 -.102E-01
   0.306E+01 -.115E+03 0.314E+02   -.488E+01 0.124E+03 -.306E+02   -.272E+00 -.477E+00 0.316E+00   0.689E-02 -.940E-02 0.455E-02
   -.128E+02 -.420E+02 -.202E+02   0.127E+02 0.415E+02 0.232E+02   0.990E-01 0.309E+00 0.173E+01   0.606E-02 0.113E-01 -.181E-02
   -.731E+00 -.330E+02 0.387E+02   0.163E+00 0.322E+02 -.392E+02   0.158E+00 0.124E+00 -.515E+00   0.798E-02 0.100E-01 0.244E-02
   0.223E+02 0.855E+02 -.343E+02   -.253E+02 -.887E+02 0.382E+02   0.254E+00 0.110E+01 0.141E+01   0.154E-01 0.463E-02 -.396E-02
   -.400E+02 0.700E+02 0.340E+02   0.406E+02 -.726E+02 -.336E+02   -.449E+00 0.917E+00 0.345E+00   0.128E-02 0.125E-01 0.665E-02
   0.643E+02 -.543E+02 0.935E+00   -.673E+02 0.609E+02 0.335E+01   0.198E+00 -.869E+00 0.170E+01   0.999E-02 -.133E-01 -.998E-02
   0.847E+02 -.183E+02 0.369E+02   -.886E+02 0.214E+02 -.378E+02   0.254E+00 0.270E+00 0.240E+00   0.816E-03 -.520E-02 0.164E-02
   0.626E+02 0.415E+01 -.478E+02   -.646E+02 -.559E+01 0.510E+02   0.610E+00 0.235E+00 0.464E+00   -.183E-04 -.251E-02 -.707E-02
   0.488E+02 -.222E+02 0.390E+02   -.505E+02 0.227E+02 -.392E+02   0.599E+00 0.460E+00 0.351E+00   0.860E-02 0.496E-02 0.108E-02
   0.521E+02 0.109E+03 -.509E-01   -.531E+02 -.112E+03 0.281E+01   0.361E+00 0.115E+01 0.597E+00   -.886E-02 0.139E-01 -.847E-02
   0.585E+02 0.995E+02 0.439E+02   -.598E+02 -.102E+03 -.444E+02   0.554E+00 0.122E+01 -.210E+00   0.650E-02 0.996E-02 0.363E-02
   -.508E+02 -.669E+02 -.443E+03   0.523E+02 0.684E+02 0.470E+03   -.243E+00 -.522E+00 -.266E+02   -.975E-02 -.377E-02 -.835E-02
   -.212E+02 -.644E+02 0.389E+03   0.212E+02 0.657E+02 -.417E+03   0.259E+00 -.807E+00 0.275E+02   0.337E-03 -.140E-01 -.113E-01
   -.251E+02 -.535E+02 -.336E+03   0.242E+02 0.539E+02 0.363E+03   0.755E+00 0.180E+00 -.268E+02   -.115E-01 -.890E-02 0.149E-01
   -.318E+02 -.510E+02 0.368E+03   0.333E+02 0.497E+02 -.396E+03   -.110E+01 0.209E+01 0.238E+02   0.283E-03 -.102E-01 0.312E-02
   -.533E+02 -.126E+02 -.428E+03   0.553E+02 0.141E+02 0.454E+03   -.837E+00 -.971E+00 -.257E+02   0.120E-02 -.460E-02 -.882E-02
   -.350E+02 -.613E+01 0.380E+03   0.358E+02 0.506E+01 -.407E+03   -.271E+00 0.138E+01 0.276E+02   -.758E-02 0.892E-02 -.122E-01
   -.442E+02 0.643E+01 -.347E+03   0.457E+02 -.668E+01 0.375E+03   -.893E+00 0.389E+00 -.275E+02   -.420E-02 0.422E-02 0.984E-02
   -.163E+02 -.610E+01 0.348E+03   0.149E+02 0.459E+01 -.375E+03   0.111E+01 0.111E+01 0.232E+02   -.432E-02 0.486E-02 0.689E-02
   -.376E+02 -.704E+01 -.463E+03   0.395E+02 0.756E+01 0.491E+03   -.105E+01 -.184E+01 -.263E+02   -.352E-02 -.254E-03 -.103E-01
   -.175E+02 0.664E+02 0.431E+03   0.158E+02 -.734E+02 -.465E+03   0.193E+01 0.324E+01 0.314E+02   -.447E-03 0.241E-03 -.228E-02
   -.511E+02 -.168E+02 -.385E+03   0.551E+02 0.182E+02 0.417E+03   -.206E+01 -.284E+01 -.297E+02   -.349E-02 -.821E-02 0.672E-02
   -.115E+02 0.870E+02 0.390E+03   0.915E+01 -.978E+02 -.423E+03   0.301E+01 0.403E+01 0.261E+02   0.444E-02 0.711E-02 0.535E-02
   0.201E+02 -.393E+02 -.423E+03   -.217E+02 0.391E+02 0.449E+03   0.155E+01 0.878E+00 -.261E+02   0.613E-02 -.147E-02 -.771E-02
   0.569E+01 -.969E+01 0.392E+03   -.509E+01 0.807E+01 -.421E+03   0.803E-01 0.946E+00 0.280E+02   0.242E-02 -.282E-03 -.654E-02
   0.151E+02 -.127E+02 -.338E+03   -.157E+02 0.101E+02 0.366E+03   0.242E+00 0.189E+01 -.271E+02   0.147E-01 -.385E-02 0.131E-01
   0.940E+01 -.533E+02 0.372E+03   -.936E+01 0.566E+02 -.401E+03   0.689E+00 -.149E+01 0.237E+02   0.999E-02 -.924E-02 0.717E-02
   0.692E+01 0.364E+02 -.426E+03   -.724E+01 -.382E+02 0.452E+03   0.318E+00 0.156E+01 -.265E+02   0.156E-01 0.166E-01 -.180E-01
   0.219E+02 -.161E+01 0.383E+03   -.224E+02 0.183E+01 -.411E+03   0.393E+00 0.207E+00 0.279E+02   0.126E-01 0.111E-01 -.879E-02
   0.108E+02 0.134E+02 -.333E+03   -.121E+02 -.130E+02 0.361E+03   0.110E+01 -.762E-01 -.275E+02   0.547E-02 0.190E-01 0.120E-01
   0.163E+02 -.196E+01 0.354E+03   -.157E+02 0.281E+01 -.383E+03   -.564E+00 0.117E+00 0.246E+02   0.422E-02 0.245E-01 0.112E-01
   -.342E+02 0.245E+02 -.474E+03   0.402E+02 -.245E+02 0.505E+03   -.352E+01 -.200E+01 -.290E+02   0.891E-02 0.253E-02 -.186E-01
   0.117E+02 0.653E+02 0.409E+03   -.119E+02 -.688E+02 -.440E+03   0.654E+00 0.172E+01 0.303E+02   0.493E-02 0.965E-05 -.208E-02
   -.320E+02 0.135E+02 -.371E+03   0.358E+02 -.129E+02 0.402E+03   -.163E+01 -.263E+01 -.297E+02   0.227E-02 -.224E-02 0.853E-02
   0.188E+01 0.815E+02 0.390E+03   -.106E+01 -.884E+02 -.424E+03   0.107E+01 0.295E+01 0.263E+02   0.233E-01 0.637E-02 0.202E-01
   0.417E+02 0.607E+01 -.453E+03   -.442E+02 -.104E+02 0.484E+03   0.686E+00 0.347E+01 -.293E+02   0.352E-02 -.733E-02 -.154E-01
   0.800E+01 -.488E+02 0.422E+03   -.799E+01 0.521E+02 -.453E+03   -.163E+01 -.269E+01 0.300E+02   -.398E-02 -.661E-02 -.758E-02
   0.453E+02 0.276E+01 -.375E+03   -.487E+02 -.542E+01 0.406E+03   0.110E+01 0.188E+01 -.303E+02   -.330E-02 -.338E-03 0.962E-02
   0.445E+02 -.779E+02 0.416E+03   -.507E+02 0.869E+02 -.451E+03   -.434E+00 -.515E+01 0.256E+02   -.121E-01 -.126E-01 0.123E-01
   0.519E+02 0.476E+02 -.456E+03   -.552E+02 -.502E+02 0.486E+03   0.129E+01 0.139E+01 -.294E+02   -.175E-01 0.883E-02 -.179E-01
   0.208E+02 -.273E+02 0.417E+03   -.226E+02 0.315E+02 -.449E+03   -.257E+00 -.303E+01 0.301E+02   -.521E-02 0.150E-02 -.424E-02
   0.494E+02 0.557E+02 -.360E+03   -.521E+02 -.600E+02 0.390E+03   0.657E+00 0.343E+01 -.290E+02   -.167E-02 0.507E-02 0.425E-02
   0.190E+02 -.135E+02 0.399E+03   -.217E+02 0.164E+02 -.432E+03   -.208E+00 -.195E+01 0.266E+02   0.116E-02 -.568E-02 0.751E-02
   0.267E+02 0.492E+02 -.494E+03   -.276E+02 -.517E+02 0.529E+03   0.272E+00 -.475E-01 -.317E+02   -.836E-02 -.132E-01 -.298E-01
   0.288E+02 0.503E+02 0.450E+03   -.306E+02 -.520E+02 -.485E+03   -.206E+00 -.207E+00 0.325E+02   -.451E-02 -.311E-02 0.163E-02
   0.300E+02 0.443E+02 -.398E+03   -.304E+02 -.465E+02 0.433E+03   -.166E+00 -.385E+00 -.319E+02   0.737E-03 -.755E-02 0.553E-02
   0.376E+02 0.410E+02 0.416E+03   -.422E+02 -.410E+02 -.452E+03   -.401E+00 -.127E+01 0.272E+02   -.274E-01 -.324E-02 0.120E-01
 -----------------------------------------------------------------------------------------------
   -.195E+01 -.807E+01 0.894E+01   -.398E-12 -.327E-12 -.682E-12   0.197E+01 0.808E+01 -.890E+01   -.103E-01 -.801E-02 -.361E-01
 
 
 POSITION                                       TOTAL-FORCE (eV/Angst)
 -----------------------------------------------------------------------------------
      0.00159      0.04380      9.01975         8.524919      2.018439      7.291039
      0.00321      0.00885      4.63936         2.329217      5.743508     -0.985044
     -1.37362      2.42201      9.01572         5.608643      0.182175      3.687370
      6.74708      2.43024      4.63522         5.747990      0.165076      0.018468
      5.37765      4.80630      9.00255         7.639348     -0.912780      5.546211
     -2.76073      4.83997      4.63764         3.947294     -1.503149     -0.778100
     -1.24796      7.05559      0.01203        -4.181494      8.412842      5.741906
     -1.30059      7.03804      4.60645        -2.084682      7.727562      1.064940
      1.41147      2.40345      8.99544        -0.020536     -0.127906      4.654756
      1.39840      2.43203      4.65431        -0.401243     -0.610977     -1.060522
      0.04923      4.85089      9.00606        -2.679226     -2.052048      5.307216
      0.00131      4.84987      4.61582         0.189204     -1.665086      0.700160
      5.58883      0.02083      8.98742        -2.783393      5.700180      5.979743
      5.57765      0.02277      4.64044        -3.644774      3.382736     -0.630187
      4.18760      2.41382      0.04136        -1.414371     -1.207704      3.586243
      4.18057      2.38207      4.61754        -1.024339      0.969249      0.163126
      2.79061      4.83539      9.01743        -0.653532     -2.130574      3.345600
      2.78936      4.82493      4.64391        -0.758104     -1.668772     -0.760125
     -0.02238      1.60794      0.90665         1.251991      1.012709      1.294331
      1.37140      0.81216      3.68312         0.301623      0.538981     -0.112522
      0.01940      1.61056      5.57249        -0.112986      0.533277      0.433756
      1.41813      0.79359      8.27306         0.305125      0.713654     -4.231145
     -1.42394      3.99877      0.92568         1.104867      0.587405      0.590240
     -0.02467      3.22853      3.70375         0.520098      0.315604     -0.034655
     -1.40467      4.03428      5.57129         0.570710      0.141008      0.388959
      0.04129      3.26224      8.31182        -0.298019     -0.396917     -4.537708
     -2.72703      6.41968      0.93317         0.902697     -1.325039      1.999549
     -1.37740      5.65799      3.72500         0.208586     -3.784724     -2.773785
     -2.77063      6.42176      5.52551         1.942496     -1.486063      2.709030
     -1.38669      5.68543      8.30968         0.624362     -6.779148     -7.271169
      2.79390      1.59188      0.95528        -0.056707      0.662133      0.347290
      4.13764      0.83801      3.68826         0.688027     -0.674202     -0.504085
      2.81145      1.65666      5.53057        -0.396740     -0.692272      0.694305
      4.17028      0.78061      8.33382         0.739842      1.768281     -5.473264
      1.41693      4.03780      0.95898         0.013243     -0.238313     -0.020954
      2.78975      3.20113      3.68323        -0.019974      0.443180      0.175662
      1.40095      4.02897      5.56175        -0.131471      0.347683      0.234548
      2.81446      3.18171      8.30430         0.018427      0.998767     -3.979204
      0.00985      6.43840      0.95601         2.510400     -1.991263      2.203457
      1.38303      5.63989      3.67820         0.511417     -1.734788     -0.646702
     -0.01306      6.46695      5.58082         2.159076     -2.045745      1.321024
      1.36656      5.63712      8.32506         1.902494     -3.877104     -7.298046
      5.59076      1.61844      0.93899        -1.729680     -0.830015      1.409614
      6.92730      0.82378      3.68588        -1.615471      0.545646     -1.175580
      5.58423      1.61300      5.57299        -2.263141     -0.777855      1.377273
      7.00461      0.79581      8.32119        -6.663243      3.788085     -9.312016
      4.18500      4.05199      0.95441        -2.051175     -1.165115      1.362897
      5.54443      3.19780      3.68896        -2.064780      1.140150     -1.351688
      4.19632      4.01942      5.55875        -2.050109     -0.910311      1.110791
      5.53487      3.20685      8.30135        -2.912654      0.990740     -6.373834
      2.80024      6.43613      0.93209        -0.615428     -2.507524      2.875194
      4.17731      5.64166      3.69327        -1.988890     -1.899107     -2.273607
      2.79462      6.42477      5.56304        -0.558443     -2.543373      2.729563
      4.21395      5.63763      8.32143        -5.087491     -1.291197     -8.760318
 -----------------------------------------------------------------------------------
    total drift:                                0.009060     -0.003335      0.001490


--------------------------------------------------------------------------------------------------------



  FREE ENERGIE OF THE ION-ELECTRON SYSTEM (eV)
  ---------------------------------------------------
  free  energy   TOTEN  =      -322.4134496823 eV

  energy  without entropy=     -322.4134496823  energy(sigma->0) =     -322.41344968
 


--------------------------------------------------------------------------------------------------------


    POTLOK:  cpu time    0.0731: real time    0.0733


--------------------------------------------------------------------------------------------------------


     LOOP+:  cpu time 1132.9255: real time 1136.4122
    4ORBIT:  cpu time    0.0000: real time    0.0000

volume of typ            1:    22.1 %

volume of typ            2:    11.3 %
 
total charge     
 
# of ion       s       p       d       tot
------------------------------------------
    1        0.422   0.707   7.976   9.105
    2        0.371   0.589   7.900   8.860
    3        0.368   0.577   7.907   8.851
    4        0.342   0.508   7.862   8.712
    5        0.381   0.603   7.928   8.912
    6        0.343   0.512   7.874   8.730
    7        0.398   0.639   7.937   8.975
    8        0.352   0.526   7.880   8.759
    9        0.331   0.478   7.850   8.660
   10        0.307   0.428   7.818   8.554
   11        0.341   0.499   7.880   8.720
   12        0.306   0.425   7.834   8.565
   13        0.381   0.592   7.929   8.902
   14        0.336   0.495   7.869   8.700
   15        0.337   0.498   7.870   8.705
   16        0.318   0.453   7.839   8.611
   17        0.329   0.476   7.876   8.681
   18        0.306   0.423   7.841   8.571
   19        1.291   2.749   0.009   4.050
   20        1.287   2.726   0.008   4.021
   21        1.284   2.737   0.008   4.029
   22        1.274   2.810   0.012   4.096
   23        1.291   2.732   0.008   4.031
   24        1.285   2.727   0.008   4.020
   25        1.284   2.736   0.008   4.029
   26        1.269   2.820   0.013   4.102
   27        1.292   2.755   0.010   4.057
   28        1.283   2.793   0.014   4.090
   29        1.283   2.784   0.012   4.079
   30        1.273   2.868   0.018   4.159
   31        1.289   2.732   0.008   4.030
   32        1.286   2.733   0.009   4.028
   33        1.283   2.743   0.009   4.035
   34        1.271   2.834   0.014   4.118
   35        1.292   2.716   0.008   4.016
   36        1.287   2.718   0.008   4.013
   37        1.283   2.735   0.009   4.026
   38        1.272   2.809   0.013   4.093
   39        1.293   2.759   0.011   4.063
   40        1.284   2.751   0.010   4.046
   41        1.284   2.757   0.010   4.052
   42        1.270   2.880   0.020   4.169
   43        1.288   2.769   0.011   4.068
   44        1.286   2.753   0.010   4.050
   45        1.282   2.773   0.011   4.067
   46        1.275   2.885   0.021   4.180
   47        1.290   2.758   0.011   4.058
   48        1.285   2.759   0.011   4.055
   49        1.282   2.761   0.010   4.053
   50        1.272   2.854   0.017   4.143
   51        1.289   2.794   0.013   4.096
   52        1.284   2.788   0.013   4.085
   53        1.281   2.801   0.014   4.095
   54        1.271   2.905   0.022   4.197
--------------------------------------------------
tot          52.45  109.43  142.29  304.17
 

 total amount of memory used by VASP MPI-rank0   171208. kBytes
=======================================================================

   base      :      30000. kBytes
   nonlr-proj:      30639. kBytes
   fftplans  :       5529. kBytes
   grid      :      17740. kBytes
   one-center:        839. kBytes
   wavefun   :      86461. kBytes
 
  
  
 General timing and accounting informations for this job:
 ========================================================
  
                  Total CPU time used (sec):     1156.565
                            User time (sec):     1153.301
                          System time (sec):        3.263
                         Elapsed time (sec):     1163.514
  
                   Maximum memory used (kb):      233752.
                   Average memory used (kb):           0.
  
                          Minor page faults:        37262
                          Major page faults:           28
                 Voluntary context switches:         1201
