 vasp.5.4.4.18Apr17-6-g9f103f2a35 (build May 12 2020 04:58:55) complex          
  
 MD_VERSION_INFO: Compiled 2020-05-12T11:58:55-UTC in devlin.sd.materialsdesign.
 com:/home/medea2/data/build/wwolf/vasp-gpu5.4.4/13047/x86_64/src/src/build/std 
 from svn 13047
 
 This VASP executable licensed from Materials Design, Inc.
 
 executed on                        Lin64 date 2022.11.18  00:52:48
 running on   16 total cores
 distrk:  each k-point on   16 cores,    1 groups
 distr:  one band on NCORES_PER_BAND=   1 cores,   16 groups


--------------------------------------------------------------------------------------------------------


 INCAR:
 POTCAR:    PAW_PBE Li_sv 10Sep2004               
 POTCAR:    PAW_PBE Mn_pv 02Aug2007               
 POTCAR:    PAW_PBE O 08Apr2002                   
 POTCAR:    PAW_PBE Co 02Aug2007                  
 POTCAR:    PAW_PBE Ni 02Aug2007                  

 ----------------------------------------------------------------------------- 
|                                                                             |
|           W    W    AA    RRRRR   N    N  II  N    N   GGGG   !!!           |
|           W    W   A  A   R    R  NN   N  II  NN   N  G    G  !!!           |
|           W    W  A    A  R    R  N N  N  II  N N  N  G       !!!           |
|           W WW W  AAAAAA  RRRRR   N  N N  II  N  N N  G  GGG   !            |
|           WW  WW  A    A  R   R   N   NN  II  N   NN  G    G                |
|           W    W  A    A  R    R  N    N  II  N    N   GGGG   !!!           |
|                                                                             |
|      For optimal performance we recommend to set                            |
|        NCORE= 4 - approx SQRT( number of cores)                             |
|      NCORE specifies how many cores store one orbital (NPAR=cpu/NCORE).     |
|      This setting can  greatly improve the performance of VASP for DFT.     |
|      The default,   NCORE=1            might be grossly inefficient         |
|      on modern multi-core architectures or massively parallel machines.     |
|      Do your own testing !!!!                                               |
|      Unfortunately you need to use the default for GW and RPA calculations. |
|      (for HF NCORE is supported but not extensively tested yet)             |
|                                                                             |
 ----------------------------------------------------------------------------- 


 ----------------------------------------------------------------------------- 
|                                                                             |
|  ADVICE TO THIS USER RUNNING 'VASP/VAMP'   (HEAR YOUR MASTER'S VOICE ...):  |
|                                                                             |
|      You have switched on vdW-DFT.                                          |
|      This routine was written and supplied by Jiri Klimes.                  |
|      We recommed that you carefully read and cite the following             |
|      publication                                                            |
|      J. Klimes, D.R. Bowler, A. Michelides                                  |
|        J. Phys.: Cond Matt. 22 022201 (2010)                                |
|      J. Klimes, D.R. Bowler, A. Michelides                                  |
|        Phys. Rev. B. 83, 195131 (2011)                                      |
|      and references therein.                                                |
|                                                                             |
 ----------------------------------------------------------------------------- 

 POTCAR:    PAW_PBE Li_sv 10Sep2004               
  local pseudopotential read in
  atomic valenz-charges read in
  non local Contribution for L=           0  read in
    real space projection operators read in
  non local Contribution for L=           0  read in
    real space projection operators read in
  non local Contribution for L=           1  read in
    real space projection operators read in
    PAW grid and wavefunctions read in
 
   number of l-projection  operators is LMAX  =           3
   number of lm-projection operators is LMMAX =           5
 
 POTCAR:    PAW_PBE Mn_pv 02Aug2007               
  local pseudopotential read in
  partial core-charges read in
  partial kinetic energy density read in
  atomic valenz-charges read in
  non local Contribution for L=           1  read in
    real space projection operators read in
  non local Contribution for L=           1  read in
    real space projection operators read in
  non local Contribution for L=           2  read in
    real space projection operators read in
  non local Contribution for L=           2  read in
    real space projection operators read in
  non local Contribution for L=           0  read in
    real space projection operators read in
  non local Contribution for L=           0  read in
    real space projection operators read in
    PAW grid and wavefunctions read in
 
   number of l-projection  operators is LMAX  =           6
   number of lm-projection operators is LMMAX =          18
 
 POTCAR:    PAW_PBE O 08Apr2002                   
  local pseudopotential read in
  partial core-charges read in
  partial kinetic energy density read in
  kinetic energy density of atom read in
  atomic valenz-charges read in
  non local Contribution for L=           0  read in
    real space projection operators read in
  non local Contribution for L=           0  read in
    real space projection operators read in
  non local Contribution for L=           1  read in
    real space projection operators read in
  non local Contribution for L=           1  read in
    real space projection operators read in
    PAW grid and wavefunctions read in
 
   number of l-projection  operators is LMAX  =           4
   number of lm-projection operators is LMMAX =           8
 
 POTCAR:    PAW_PBE Co 02Aug2007                  
  local pseudopotential read in
  partial core-charges read in
  partial kinetic energy density read in
  atomic valenz-charges read in
  non local Contribution for L=           2  read in
    real space projection operators read in
  non local Contribution for L=           2  read in
    real space projection operators read in
  non local Contribution for L=           0  read in
    real space projection operators read in
  non local Contribution for L=           0  read in
    real space projection operators read in
  non local Contribution for L=           1  read in
    real space projection operators read in
  non local Contribution for L=           1  read in
    real space projection operators read in
    PAW grid and wavefunctions read in
 
   number of l-projection  operators is LMAX  =           6
   number of lm-projection operators is LMMAX =          18
 
 POTCAR:    PAW_PBE Ni 02Aug2007                  
  local pseudopotential read in
  partial core-charges read in
  partial kinetic energy density read in
  atomic valenz-charges read in
  non local Contribution for L=           2  read in
    real space projection operators read in
  non local Contribution for L=           2  read in
    real space projection operators read in
  non local Contribution for L=           0  read in
    real space projection operators read in
  non local Contribution for L=           0  read in
    real space projection operators read in
  non local Contribution for L=           1  read in
    real space projection operators read in
  non local Contribution for L=           1  read in
    real space projection operators read in
    PAW grid and wavefunctions read in
 
   number of l-projection  operators is LMAX  =           6
   number of lm-projection operators is LMMAX =          18
 
 Optimization of the real space projectors (new method)

 maximal supplied QI-value         = 22.11
 optimisation between [QCUT,QGAM] = [ 11.28, 22.77] = [ 35.61,145.23] Ry 
 Optimized for a Real-space Cutoff    1.10 Angstroem

   l    n(q)    QCUT    max X(q) W(low)/X(q) W(high)/X(q)  e(spline) 
   0      7    11.276    10.506    0.54E-04    0.58E-04    0.16E-07
   0      7    11.276     8.367    0.11E-03    0.14E-03    0.35E-07
   1      7    11.276     8.983    0.23E-03    0.43E-03    0.86E-07
 Optimization of the real space projectors (new method)

 maximal supplied QI-value         = 16.25
 optimisation between [QCUT,QGAM] = [ 11.38, 22.75] = [ 36.24,144.96] Ry 
 Optimized for a Real-space Cutoff    1.47 Angstroem

   l    n(q)    QCUT    max X(q) W(low)/X(q) W(high)/X(q)  e(spline) 
   1     10    11.376     3.658    0.62E-04    0.11E-03    0.11E-06
   1     10    11.376     5.612    0.12E-03    0.20E-03    0.19E-06
   2      9    11.376    55.373    0.10E-03    0.85E-04    0.19E-06
   2      9    11.376    50.863    0.11E-03    0.88E-04    0.19E-06
   0     10    11.376    79.536    0.52E-04    0.21E-04    0.79E-07
   0     10    11.376    38.668    0.45E-04    0.19E-04    0.74E-07
 Optimization of the real space projectors (new method)

 maximal supplied QI-value         = 24.76
 optimisation between [QCUT,QGAM] = [ 11.39, 22.77] = [ 36.31,145.25] Ry 
 Optimized for a Real-space Cutoff    1.10 Angstroem

   l    n(q)    QCUT    max X(q) W(low)/X(q) W(high)/X(q)  e(spline) 
   0      7    11.387    20.381    0.22E-03    0.48E-03    0.18E-06
   0      7    11.387    15.268    0.22E-03    0.52E-03    0.19E-06
   1      7    11.387     5.964    0.22E-03    0.73E-03    0.24E-06
   1      7    11.387     5.382    0.19E-03    0.60E-03    0.21E-06
 Optimization of the real space projectors (new method)

 maximal supplied QI-value         = 16.25
 optimisation between [QCUT,QGAM] = [ 11.38, 22.75] = [ 36.24,144.96] Ry 
 Optimized for a Real-space Cutoff    1.43 Angstroem

   l    n(q)    QCUT    max X(q) W(low)/X(q) W(high)/X(q)  e(spline) 
   2      9    11.376    65.824    0.18E-03    0.28E-04    0.14E-06
   2      9    11.376    61.429    0.18E-03    0.29E-04    0.14E-06
   0     10    11.376    56.174    0.51E-04    0.12E-03    0.20E-06
   0     10    11.376    31.263    0.46E-04    0.11E-03    0.18E-06
   1      9    11.376    19.828    0.23E-03    0.17E-03    0.10E-06
   1      9    11.376    15.139    0.20E-03    0.14E-03    0.89E-07
 Optimization of the real space projectors (new method)

 maximal supplied QI-value         = 16.25
 optimisation between [QCUT,QGAM] = [ 11.38, 22.75] = [ 36.24,144.96] Ry 
 Optimized for a Real-space Cutoff    1.47 Angstroem

   l    n(q)    QCUT    max X(q) W(low)/X(q) W(high)/X(q)  e(spline) 
   2      9    11.376    60.317    0.17E-03    0.16E-04    0.16E-06
   2      9    11.376    55.921    0.17E-03    0.16E-04    0.17E-06
   0     10    11.376    51.690    0.45E-04    0.60E-04    0.21E-06
   0     10    11.376    30.015    0.37E-04    0.55E-04    0.19E-06
   1     10    11.376    18.849    0.83E-04    0.11E-03    0.92E-07
   1     10    11.376    14.624    0.69E-04    0.92E-04    0.82E-07

 ----------------------------------------------------------------------------- 
|                                                                             |
|  ADVICE TO THIS USER RUNNING 'VASP/VAMP'   (HEAR YOUR MASTER'S VOICE ...):  |
|                                                                             |
|      You enforced a specific xc-type in the INCAR file,                     |
|      a different type was found on the POTCAR file                          |
|          I HOPE YOU KNOW, WHAT YOU ARE  DOING                               |
|                                                                             |
 ----------------------------------------------------------------------------- 

  PAW_PBE Li_sv 10Sep2004               :
 energy of atom  1       EATOM= -202.7858
 kinetic energy error for atom=    0.0143 (will be added to EATOM!!)
  PAW_PBE Mn_pv 02Aug2007               :
 energy of atom  2       EATOM=-2025.2664
 kinetic energy error for atom=    0.0062 (will be added to EATOM!!)
  PAW_PBE O 08Apr2002                   :
 energy of atom  3       EATOM= -432.3788
 kinetic energy error for atom=    0.0224 (will be added to EATOM!!)
  PAW_PBE Co 02Aug2007                  :
 energy of atom  4       EATOM= -813.3670
 kinetic energy error for atom=    0.0028 (will be added to EATOM!!)
  PAW_PBE Ni 02Aug2007                  :
 energy of atom  5       EATOM=-1077.6739
 kinetic energy error for atom=    0.0030 (will be added to EATOM!!)
 
 
 POSCAR: ce129131_1                              
  positions in direct lattice
  No initial velocities read in

 METAGGA = SCAN     LMAXTAU =  6    LMIXTAU =  T

 exchange correlation table for  LEXCH =       14
   RHO(1)=    0.500       N(1)  =     2000
   RHO(2)=  100.500       N(2)  =     4000
 


--------------------------------------------------------------------------------------------------------


 ion  position               nearest neighbor table
   1  0.254  0.092  0.255-  18 2.02  14 2.03  10 2.09  26 2.12  42 2.18  34 2.22  51 2.79   8 2.86

   2  0.746  0.092  0.745-  15 2.02  19 2.03  11 2.08  27 2.13  43 2.16  35 2.22  51 2.79   8 2.85

   3  0.259  0.591  0.765-  16 2.01  30 2.07  12 2.09  46 2.15  38 2.21  22 2.27  50 2.77
   4  0.745  0.806  0.254-  28 2.02  44 2.02  36 2.05  20 2.09  47 2.14  39 2.23  57 2.80  67 2.83

   5  0.256  0.816  0.747-  29 1.96  21 2.01  45 2.02  37 2.05  46 2.24  57 2.75  55 2.81  67 2.83

   6  0.745  0.314  0.751-  32 1.95  24 2.01  48 2.01  40 2.03  43 2.23  59 2.75  53 2.80  65 2.84

   7  0.254  0.316  0.248-  33 1.98  49 2.02  41 2.04  25 2.04  42 2.25  59 2.76  53 2.81
   8  1.000  1.000  0.001-  19 1.85  18 1.85  11 1.89  10 1.89  20 1.92  21 1.93  60 2.77  61 2.79
                            54 2.80  54 2.80  55 2.81  55 2.82   2 2.85   1 2.86
   9  0.991  0.499  0.494-  13 1.87  23 1.88  24 1.89  22 1.89  25 1.91  12 1.92  62 2.78  63 2.79
                            53 2.80  52 2.80  53 2.82  52 2.82
  10  0.101  1.000  0.367-  54 1.87  55 1.89   8 1.89   1 2.09
  11  0.899  1.000  0.635-  54 1.87   8 1.89  55 1.89   2 2.08
  12  0.098  0.502  0.861-  52 1.86  53 1.90   9 1.92   3 2.09
  13  0.895  0.501  0.127-  52 1.86   9 1.87  53 1.89
  14  0.399  0.002  0.131-  56 1.85  57 1.89  51 1.89   1 2.03
  15  0.602  0.002  0.866-  56 1.85  57 1.89  51 1.89   2 2.02
  16  0.401  0.503  0.635-  58 1.85  59 1.88  50 1.91   3 2.01
  17  0.602  0.501  0.373-  58 1.85  59 1.87  50 1.89
  18  0.110  0.099  0.903-   8 1.85  60 1.86   1 2.02  54 2.07
  19  0.890  0.100  0.099-   8 1.85  60 1.86   2 2.03  54 2.07
  20  0.899  0.897  0.143-  55 1.85  61 1.88   8 1.92   4 2.09
  21  0.101  0.896  0.862-  61 1.86  55 1.87   8 1.93   5 2.01
  22  0.098  0.598  0.368-  62 1.87   9 1.89  52 1.91   3 2.27
  23  0.895  0.601  0.635-  52 1.88  62 1.88   9 1.88
  24  0.897  0.397  0.639-  53 1.86  63 1.88   9 1.89   6 2.01
  25  0.097  0.398  0.359-  53 1.86  63 1.88   9 1.91   7 2.04
  26  0.399  0.100  0.630-  66 1.87  51 1.88  56 1.90   1 2.12
  27  0.602  0.101  0.366-  66 1.87  51 1.88  56 1.90   2 2.13
  28  0.601  0.898  0.358-  57 1.85  67 1.88  51 1.89   4 2.02
  29  0.401  0.898  0.637-  67 1.85  57 1.87  51 1.89   5 1.96
  30  0.401  0.601  0.131-  64 1.86  50 1.88  58 1.91   3 2.07
  31  0.603  0.601  0.865-  64 1.86  58 1.87  50 1.87
  32  0.600  0.397  0.862-  65 1.85  59 1.86  50 1.89   6 1.95
  33  0.402  0.399  0.140-  59 1.86  65 1.86  50 1.91   7 1.98
  34  0.100  0.199  0.358-  60 1.85  63 1.88  54 1.88   1 2.22
  35  0.900  0.199  0.642-  60 1.85  63 1.87  54 1.88   2 2.22
  36  0.894  0.799  0.605-  62 1.83  55 1.84  61 2.04   4 2.05
  37  0.107  0.799  0.399-  55 1.84  62 1.85  61 2.04   5 2.05
  38  0.101  0.696  0.857-  62 1.86  52 1.87  61 1.91   3 2.21
  39  0.901  0.701  0.138-  61 1.85  62 1.86  52 1.87   4 2.23
  40  0.892  0.301  0.100-  53 1.83  60 1.86   6 2.03  63 2.05
  41  0.107  0.301  0.899-  53 1.84  60 1.86   7 2.04  63 2.05
  42  0.398  0.199  0.141-  66 1.86  56 1.89  65 1.90   1 2.18   7 2.25
  43  0.602  0.199  0.856-  66 1.85  56 1.88  65 1.91   2 2.16   6 2.23
  44  0.607  0.801  0.894-  57 1.84  64 1.85   4 2.02  67 2.03
  45  0.394  0.801  0.104-  57 1.84  64 1.87   5 2.02  67 2.03
  46  0.398  0.698  0.645-  64 1.86  58 1.89  67 1.92   3 2.15   5 2.24
  47  0.600  0.702  0.363-  67 1.86  64 1.86  58 1.88   4 2.14
  48  0.607  0.300  0.397-  66 1.85  59 1.85   6 2.01  65 2.04
  49  0.392  0.300  0.604-  66 1.84  59 1.86   7 2.02  65 2.04
  50  0.505  0.500  0.004-  31 1.87  30 1.88  17 1.89  32 1.89  33 1.91  16 1.91   3 2.77  64 2.77
                            65 2.78  58 2.80  59 2.80  58 2.81  59 2.81
  51  0.501  1.000  0.498-  27 1.88  26 1.88  29 1.89  28 1.89  15 1.89  14 1.89  67 2.77  66 2.78
                             2 2.79   1 2.79  57 2.80  57 2.80  56 2.81  56 2.81
  52  0.997  0.600  0.998-  12 1.86  13 1.86  39 1.87  38 1.87  23 1.88  22 1.91  61 2.75  53 2.78
                             9 2.80  62 2.80  62 2.81   9 2.82
  53  0.998  0.399  0.998-  40 1.83  41 1.84  25 1.86  24 1.86  13 1.89  12 1.90  60 2.76  52 2.78
                             9 2.80   6 2.80  63 2.81   7 2.81   9 2.82  63 2.82
  54  0.000  0.099  0.501-  10 1.87  11 1.87  35 1.88  34 1.88  18 2.07  19 2.07  63 2.75  55 2.78
                             8 2.80   8 2.80  60 2.80  60 2.81
  55  1.000  0.899  0.501-  36 1.84  37 1.84  20 1.85  21 1.87  11 1.89  10 1.89  62 2.76  54 2.78
                            61 2.80   5 2.81  61 2.81   8 2.81   8 2.82
  56  0.500  0.100  0.999-  14 1.85  15 1.85  43 1.88  42 1.89  27 1.90  26 1.90  65 2.77  57 2.77
                            66 2.81  51 2.81  66 2.81  51 2.81
  57  0.501  0.900  0.999-  44 1.84  45 1.84  28 1.85  29 1.87  15 1.89  14 1.89   5 2.75  56 2.77
                            64 2.77  51 2.80   4 2.80  51 2.80  67 2.81  67 2.81
  58  0.503  0.600  0.502-  17 1.85  16 1.85  31 1.87  47 1.88  46 1.89  30 1.91  67 2.76  59 2.76
                            50 2.80  64 2.80  64 2.81  50 2.81
  59  0.500  0.401  0.501-  48 1.85  33 1.86  49 1.86  32 1.86  17 1.87  16 1.88   6 2.75   7 2.76
                            58 2.76  66 2.77  50 2.80  65 2.80  50 2.81  65 2.82
  60  0.000  0.200  0.000-  34 1.85  35 1.85  40 1.86  41 1.86  18 1.86  19 1.86  53 2.76   8 2.77
                            63 2.79  63 2.79  54 2.80  54 2.81
  61  0.002  0.799  0.001-  39 1.85  21 1.86  20 1.88  38 1.91  36 2.04  37 2.04  52 2.75   8 2.79
                            62 2.79  62 2.80  55 2.80  55 2.81
  62  0.998  0.700  0.499-  36 1.83  37 1.85  39 1.86  38 1.86  22 1.87  23 1.88  55 2.76   9 2.78
                            61 2.79  52 2.80  61 2.80  52 2.81
  63  0.999  0.298  0.500-  35 1.87  34 1.88  24 1.88  25 1.88  41 2.05  40 2.05  54 2.75   9 2.79
                            60 2.79  60 2.79  53 2.81  53 2.82
  64  0.502  0.700  0.001-  44 1.85  47 1.86  30 1.86  46 1.86  31 1.86  45 1.87  50 2.77  57 2.77
                            67 2.80  58 2.80  67 2.81  58 2.81
  65  0.500  0.300  0.999-  32 1.85  33 1.86  42 1.90  43 1.91  49 2.04  48 2.04  56 2.77  50 2.78
                            66 2.80  66 2.80  59 2.80  59 2.82   6 2.84
  66  0.500  0.201  0.499-  49 1.84  48 1.85  43 1.85  42 1.86  26 1.87  27 1.87  59 2.77  51 2.78
                            65 2.80  65 2.80  56 2.81  56 2.81
  67  0.499  0.800  0.499-  29 1.85  47 1.86  28 1.88  46 1.92  45 2.03  44 2.03  58 2.76  51 2.77
                            64 2.80  64 2.81  57 2.81  57 2.81   5 2.83   4 2.83
 
  LATTYP: Found a triclinic cell.
 ALAT       =    12.5431170734
 B/A-ratio  =     0.3888519527
 C/A-ratio  =     1.1046643946
 COS(alpha) =     0.0000914726
 COS(beta)  =     0.0016000101
 COS(gamma) =     0.6502460413
  
  Lattice vectors:
  
 A1 = (  -8.0484811100,  -0.0040955600,  -9.6203805000)
 A2 = (   0.8069994900,  -0.0020477800,  -4.8101902500)
 A3 = (  -0.0274994300, -13.8559075400,   0.0000000000)


Analysis of symmetry for initial positions (statically):
=====================================================================
 Subroutine PRICEL returns:
 Original cell was already a primitive cell.
 

 Routine SETGRP: Setting up the symmetry group for a 
 triclinic supercell.


 Subroutine GETGRP returns: Found  1 space group operations
 (whereof  1 operations were pure point group operations)
 out of a pool of  2 trial point group operations.


The static configuration has the point symmetry C_1 .


Analysis of symmetry for dynamics (positions and initial velocities):
=====================================================================
 Subroutine PRICEL returns:
 Original cell was already a primitive cell.
 

 Routine SETGRP: Setting up the symmetry group for a 
 triclinic supercell.


 Subroutine GETGRP returns: Found  1 space group operations
 (whereof  1 operations were pure point group operations)
 out of a pool of  2 trial point group operations.


The dynamic configuration has the point symmetry C_1 .


Analysis of structural, dynamic, and magnetic symmetry:
=====================================================================
 Subroutine PRICEL returns:
 Original cell was already a primitive cell.
 

 Routine SETGRP: Setting up the symmetry group for a 
 triclinic supercell.


 Subroutine GETGRP returns: Found  1 space group operations
 (whereof  1 operations were pure point group operations)
 out of a pool of  2 trial point group operations.


The magnetic configuration has the point symmetry C_1 .


 Subroutine INISYM returns: Found  1 space group operations
 (whereof  1 operations are pure point group operations),
 and found     1 'primitive' translations

 
 
 KPOINTS: Automatic mesh                          

Automatic generation of k-mesh.
Space group operators:
 irot       det(A)        alpha          n_x          n_y          n_z        tau_x        tau_y        tau_z
    1     1.000000     0.000001     1.000000     0.000000     0.000000     0.000000     0.000000     0.000000
 
 Subroutine IBZKPT returns following result:
 ===========================================
 
 Found      5 irreducible k-points:
 
 Following reciprocal coordinates:
            Coordinates               Weight
  0.000000  0.000000  0.000000      1.000000
  0.333333  0.000000  0.000000      2.000000
  0.000000  0.000000  0.333333      2.000000
  0.333333  0.000000  0.333333      2.000000
 -0.333333  0.000000  0.333333      2.000000
 
 Following cartesian coordinates:
            Coordinates               Weight
  0.000000  0.000000  0.000000      1.000000
  0.034498 -0.000068  0.005788      2.000000
  0.000000  0.000000  0.069297      2.000000
  0.034498 -0.000068  0.075085      2.000000
 -0.034498  0.000068  0.063510      2.000000
 

 ----------------------------------------------------------------------------- 
|                                                                             |
|           W    W    AA    RRRRR   N    N  II  N    N   GGGG   !!!           |
|           W    W   A  A   R    R  NN   N  II  NN   N  G    G  !!!           |
|           W    W  A    A  R    R  N N  N  II  N N  N  G       !!!           |
|           W WW W  AAAAAA  RRRRR   N  N N  II  N  N N  G  GGG   !            |
|           WW  WW  A    A  R   R   N   NN  II  N   NN  G    G                |
|           W    W  A    A  R    R  N    N  II  N    N   GGGG   !!!           |
|                                                                             |
|      The number of bands has been changed from the values supplied          |
|      in the INCAR file. This is a result of running the parallel version.   |
|      The orbitals not found in the WAVECAR file will be initialized with    |
|      random numbers, which is usually adequate. For correlated              |
|      calculations, however, you should redo the groundstate calculation.    |
|      I found NBANDS    =      462  now  NBANDS  =     464                   |
|                                                                             |
 ----------------------------------------------------------------------------- 



--------------------------------------------------------------------------------------------------------




 Dimension of arrays:
   k-points           NKPTS =      5   k-points in BZ     NKDIM =      5   number of bands    NBANDS=    464
   number of dos      NEDOS =    301   number of ions     NIONS =     67
   non local maximal  LDIM  =      6   non local SUM 2l+1 LMDIM =     18
   total plane-waves  NPLWV = 272160
   max r-space proj   IRMAX =   5723   max aug-charges    IRDMAX=  16865
   dimension x,y,z NGX =    70 NGY =  108 NGZ =   36
   dimension x,y,z NGXF=   140 NGYF=  216 NGZF=   72
   support grid    NGXF=   140 NGYF=  216 NGZF=   72
   ions per type =               7   2  40   2  16
   NGX,Y,Z   is equivalent  to a cutoff of  12.04, 12.96, 12.27 a.u.
   NGXF,Y,Z  is equivalent  to a cutoff of  24.09, 25.92, 24.54 a.u.

 SYSTEM =  unknown system                          
 POSCAR =  ce129131_1                              

 Startparameter for this run:
   NWRITE =      1    write-flag & timer
   PREC   = accura    normal or accurate (medium, high low for compatibility)
   ISTART =      0    job   : 0-new  1-cont  2-samecut
   ICHARG =      2    charge: 1-file 2-atom 10-const
   ISPIN  =      2    spin polarized calculation?
   LNONCOLLINEAR =      F non collinear calculations
   LSORBIT =      F    spin-orbit coupling
   INIWAV =      1    electr: 0-lowe 1-rand  2-diag
   LASPH  =      T    aspherical Exc in radial PAW
   METAGGA=      F    non-selfconsistent MetaGGA calc.

 Electronic Relaxation 1
   ENCUT  =  500.0 eV  36.75 Ry    6.06 a.u.  17.62 25.26  8.89*2*pi/ulx,y,z
   ENINI  =  500.0     initial cutoff
   ENAUG  =  628.9 eV  augmentation charge cutoff
   NELM   =   1000;   NELMIN=  2; NELMDL= -5     # of ELM steps 
   EDIFF  = 0.1E-04   stopping-criterion for ELM
   LREAL  =      T    real-space projection
   NLSPLINE    = F    spline interpolate recip. space projectors
   LCOMPAT=      F    compatible to vasp.4.4
   GGA_COMPAT  = T    GGA compatible to vasp.4.4-vasp.4.6
   LMAXPAW     = -100 max onsite density
   LMAXMIX     =    2 max onsite mixed and CHGCAR
   VOSKOWN=      1    Vosko Wilk Nusair interpolation
   ROPT   =   -0.00025  -0.00025  -0.00025  -0.00025
   ROPT   =   -0.00025
 Ionic relaxation
   EDIFFG = 0.1E-03   stopping-criterion for IOM
   NSW    =      0    number of steps for IOM
   NBLOCK =      1;   KBLOCK =      1    inner block; outer block 
   IBRION =     -1    ionic relax: 0-MD 1-quasi-New 2-CG
   NFREE  =      0    steps in history (QN), initial steepest desc. (CG)
   ISIF   =      2    stress and relaxation
   IWAVPR =     10    prediction:  0-non 1-charg 2-wave 3-comb
   ISYM   =      2    0-nonsym 1-usesym 2-fastsym
   LCORR  =      T    Harris-Foulkes like correction to forces

   POTIM  = 0.5000    time-step for ionic-motion
   TEIN   =    0.0    initial temperature
   TEBEG  =    0.0;   TEEND  =   0.0 temperature during run
   SMASS  =  -3.00    Nose mass-parameter (am)
   estimated Nose-frequenzy (Omega)   =  0.10E-29 period in steps =****** mass=  -0.213E-26a.u.
   SCALEE = 1.0000    scale energy and forces
   NPACO  =    256;   APACO  = 16.0  distance and # of slots for P.C.
   PSTRESS=    0.0 pullay stress

  Mass of Ions in am
   POMASS =   7.01 54.94 16.00 58.93 58.69
  Ionic Valenz
   ZVAL   =   3.00 13.00  6.00  9.00 10.00
  Atomic Wigner-Seitz radii
   RWIGS  =   1.23  1.17  0.73  1.16  1.15
  virtual crystal weights 
   VCA    =   1.00  1.00  1.00  1.00  1.00
   NELECT =     465.0000    total number of electrons
   NUPDOWN=      -1.0000    fix difference up-down

 DOS related values:
   EMIN   =  10.00;   EMAX   =-10.00  energy-range for DOS
   EFERMI =   0.00
   ISMEAR =     0;   SIGMA  =   0.05  broadening in eV -4-tet -1-fermi 0-gaus

 Electronic relaxation 2 (details)
   IALGO  =     58    algorithm
   LDIAG  =      T    sub-space diagonalisation (order eigenvalues)
   LSUBROT=      F    optimize rotation matrix (better conditioning)
   TURBO    =      0    0=normal 1=particle mesh
   IRESTART =      0    0=no restart 2=restart with 2 vectors
   NREBOOT  =      0    no. of reboots
   NMIN     =      0    reboot dimension
   EREF     =   0.00    reference energy to select bands
   IMIX   =      4    mixing-type and parameters
     AMIX     =   0.40;   BMIX     =  1.00
     AMIX_MAG =   1.60;   BMIX_MAG =  1.00
     AMIN     =   0.10
     WC   =   100.;   INIMIX=   1;  MIXPRE=   1;  MAXMIX= -45

 Intra band minimization:
   WEIMIN = 0.0000     energy-eigenvalue tresh-hold
   EBREAK =  0.54E-08  absolut break condition
   DEPER  =   0.30     relativ break condition  

   TIME   =   0.20     timestep for ELM

  volume/ion in A,a.u.               =       9.61        64.86
  Fermi-wavevector in a.u.,A,eV,Ry     =   1.468691  2.775424 29.348505  2.157054
  Thomas-Fermi vector in A             =   2.584159
 
 Write flags
   LWAVE        =      F    write WAVECAR
   LDOWNSAMPLE  =      F    k-point downsampling of WAVECAR
   LCHARG       =      T    write CHGCAR
   LVTOT        =      F    write LOCPOT, total local potential
   LVHAR        =      F    write LOCPOT, Hartree potential only
   LELF         =      F    write electronic localiz. function (ELF)
   LORBIT       =      0    0 simple, 1 ext, 2 COOP (PROOUT), +10 PAW based schemes


 Dipole corrections
   LMONO  =      F    monopole corrections only (constant potential shift)
   LDIPOL =      F    correct potential (dipole corrections)
   IDIPOL =      0    1-x, 2-y, 3-z, 4-all directions 
   EPSILON=  1.0000000 bulk dielectric constant

 Exchange correlation treatment:
   GGA     =    PS    GGA type
   LEXCH   =    14    internal setting for exchange type
   VOSKOWN=      1    Vosko Wilk Nusair interpolation
   LHFCALC =     F    Hartree Fock is set to
   LHFONE  =     F    Hartree Fock one center treatment
   AEXX    =    0.0000 exact exchange contribution

 vdW DFT:
   LUSE_VDW   =     T    switch on vdW DFT
   Zab_VDW    =-.8491    correlation parameter
   PARAM1     =0.1234
   PARAM2     =1.0000
   PARAM3     =0.0000
   -- rVV10 --
   BPARAM     =15.7000
   CPARAM     = 0.0093

 Linear response parameters
   LEPSILON=     F    determine dielectric tensor
   LRPA    =     F    only Hartree local field effects (RPA)
   LNABLA  =     F    use nabla operator in PAW spheres
   LVEL    =     F    velocity operator in full k-point grid
   LINTERFAST=   F  fast interpolation
   KINTER  =     0    interpolate to denser k-point grid
   CSHIFT  =0.1000    complex shift for real part using Kramers Kronig
   OMEGAMAX=  -1.0    maximum frequency
   DEG_THRESHOLD= 0.2000000E-02 threshold for treating states as degnerate
   RTIME   =   -0.100 relaxation time in fs
  (WPLASMAI=    0.000 imaginary part of plasma frequency in eV, 0.658/RTIME)
   DFIELD  = 0.0000000 0.0000000 0.0000000 field for delta impulse in time
 
 Orbital magnetization related:
   ORBITALMAG=     F  switch on orbital magnetization
   LCHIMAG   =     F  perturbation theory with respect to B field
   DQ        =  0.001000  dq finite difference perturbation B field
   LLRAUG    =     F  two centre corrections for induced B field



--------------------------------------------------------------------------------------------------------


 Static calculation
 charge density and potential will be updated during run
 spin polarized calculation
 Conjugate gradient for all bands (Freysoldt, et al. PRB 79, 241103 (2009))
 preconditioned conjugated gradient                                        
 perform sub-space diagonalisation
    before iterative eigenvector-optimisation
 modified Broyden-mixing scheme, WC =      100.0
 initial mixing is a Kerker type mixing with AMIX =  0.4000 and BMIX =      1.0000
 Hartree-type preconditioning will be used
 using additional bands          231
 real space projection scheme for non local part
 use partial core corrections
 no Harris-corrections to forces 
 use gradient corrections 
 use of overlap-Matrix (Vanderbilt PP)
 Gauss-broadening in eV      SIGMA  =   0.05


--------------------------------------------------------------------------------------------------------


  energy-cutoff  :      500.00
  volume of cell :      644.00
      direct lattice vectors                 reciprocal lattice vectors
     9.662480090  0.000000000  0.000000000     0.103493098 -0.000205400  0.017362993
     0.027499430 13.855907540  0.000000000     0.000000000  0.072171382 -0.000030725
    -0.806999490  0.002047780  4.810190250     0.000000000  0.000000000  0.207891985

  length of vectors
     9.662480090 13.855934829  4.877415567     0.104939683  0.072171389  0.207891985


 
 k-points in units of 2pi/SCALE and weight: Automatic mesh                          
   0.00000000  0.00000000  0.00000000       0.111
   0.03449770 -0.00006847  0.00578766       0.222
   0.00000000  0.00000000  0.06929733       0.222
   0.03449770 -0.00006847  0.07508499       0.222
  -0.03449770  0.00006847  0.06350966       0.222
 
 k-points in reciprocal lattice and weights: Automatic mesh                          
   0.00000000  0.00000000  0.00000000       0.111
   0.33333333  0.00000000  0.00000000       0.222
   0.00000000  0.00000000  0.33333333       0.222
   0.33333333  0.00000000  0.33333333       0.222
  -0.33333333  0.00000000  0.33333333       0.222
 
 position of ions in fractional coordinates (direct lattice) 
   0.25396813  0.09157560  0.25451968
   0.74626333  0.09156996  0.74526441
   0.25883501  0.59060460  0.76496021
   0.74515172  0.80595624  0.25381705
   0.25577265  0.81591098  0.74711219
   0.74531869  0.31409290  0.75098545
   0.25376207  0.31568727  0.24813113
   0.99960101  0.99999192  0.00112182
   0.99098749  0.49913420  0.49374680
   0.10145828  0.99968481  0.36688309
   0.89879067  0.99984689  0.63532464
   0.09809772  0.50205966  0.86137995
   0.89501001  0.50058286  0.12688210
   0.39921125  0.00235512  0.13128070
   0.60201819  0.00227294  0.86583885
   0.40103804  0.50270731  0.63504699
   0.60232561  0.50053530  0.37298743
   0.11016858  0.09933647  0.90320844
   0.88983050  0.09979709  0.09853113
   0.89898121  0.89701563  0.14290904
   0.10125307  0.89627389  0.86189180
   0.09836407  0.59846791  0.36770967
   0.89514755  0.60098343  0.63497576
   0.89696922  0.39666598  0.63894186
   0.09697348  0.39848862  0.35893171
   0.39868708  0.10036446  0.63020417
   0.60189432  0.10069206  0.36643695
   0.60076456  0.89826346  0.35808425
   0.40146951  0.89821619  0.63738403
   0.40128559  0.60063770  0.13103121
   0.60264350  0.60112367  0.86481825
   0.60019718  0.39692987  0.86182157
   0.40186705  0.39909826  0.14010485
   0.09961425  0.19917750  0.35797333
   0.90020576  0.19882540  0.64237911
   0.89385168  0.79930090  0.60530796
   0.10706866  0.79894603  0.39883301
   0.10100012  0.69604961  0.85654724
   0.90084769  0.70136031  0.13794144
   0.89171942  0.30055727  0.09979444
   0.10733258  0.30053674  0.89891696
   0.39804129  0.19929172  0.14103453
   0.60216707  0.19862442  0.85590859
   0.60736229  0.80056588  0.89387068
   0.39365724  0.80130373  0.10365147
   0.39762076  0.69796308  0.64496518
   0.60043733  0.70172631  0.36268142
   0.60699779  0.30032657  0.39651042
   0.39207437  0.29975241  0.60351849
   0.50507228  0.50047360  0.00393891
   0.50094219  0.99957036  0.49837226
   0.99653709  0.59991544  0.99791329
   0.99849145  0.39904802  0.99835353
   0.00024237  0.09937418  0.50087345
   0.99998617  0.89857940  0.50100732
   0.50022124  0.10012435  0.99852722
   0.50111870  0.90028571  0.99929762
   0.50270297  0.60011236  0.50177694
   0.50014356  0.40057898  0.50084829
   0.00001415  0.19969599  0.00026104
   0.00163351  0.79853277  0.00095764
   0.99841962  0.69965521  0.49900776
   0.99905777  0.29803485  0.49974616
   0.50210151  0.70007677  0.00124009
   0.49990425  0.29991047  0.99921894
   0.49980133  0.20054048  0.49893201
   0.49940819  0.79958438  0.49945948
 
 position of ions in cartesian coordinates  (Angst):
   2.25108302  1.26938425  1.22428808
   6.61184469  1.27031104  3.58486360
   1.89990692  8.18492920  3.67960414
   7.01734677 11.16777490  1.22090830
   1.89091607 11.30671702  3.59375177
   6.60421950  4.35358003  3.61238289
   2.26041047  4.37464174  1.19355794
   9.68521876 13.85579788  0.00539617
   9.19066938  6.91696841  2.37501604
   0.71175491 13.85229159  1.76477746
   8.19933551 13.85508707  3.05603239
   0.26654044  6.95825615  4.14340144
   8.55938836  6.93628965  0.61032704
   3.75149206  0.03290116  0.63148514
   5.11831977  0.03326669  4.16484959
   3.37636364  6.96676644  3.05469684
   5.53272298  6.93613463  1.79414050
   0.33834466  1.37824652  4.34460443
   8.52119928  1.38298102  0.47395348
   8.59572794 12.42925828  0.68741967
   0.30745655 12.42045312  4.14586353
   0.67015688  8.29306902  1.76875347
   8.15344697  8.32847113  3.05435421
   8.16222956  5.49747556  3.07343191
   0.65830482  5.52215649  1.72652981
   3.34649149  1.39193120  3.03140195
   5.52284643  1.39593026  1.76263144
   5.54060353 12.44698873  1.72245337
   3.38952299 12.44690570  3.06593845
   3.78818910  8.32264876  0.63028505
   5.14165349  8.33088495  4.15994031
   5.11481908  5.50158840  4.14552571
   3.78094280  5.53015549  0.67393098
   0.67911368  2.76051807  1.72191982
   8.18528820  2.75622181  3.08996573
   8.17032117 11.07627890  2.91164645
   0.73466132 11.07093904  1.91846266
   0.30381943  9.64615306  4.12015518
   8.61239121  9.71826608  0.66352457
   8.54395223  4.16469810  0.48003024
   0.31993798  4.16605007  4.32396160
   3.73773165  2.76165645  0.67840292
   5.13317159  2.75387431  4.11708315
   5.16928796 11.09439726  4.29968803
   3.74209396 11.10300265  0.49858329
   3.34070969  9.67223265  3.10240522
   5.52832710  9.72379756  1.74456663
   5.55337916  4.16210915  1.90729056
   3.30961470  4.15457755  2.90303876
   4.89083489  6.93452399  0.01894691
   4.46564539 13.85097504  2.39726539
   8.84020161  8.31441638  4.80015278
   8.85320656  5.53121688  4.80227042
  -0.39912999  1.37794513  2.40929659
   9.28274423 12.45165904  2.40994053
   4.03032018  1.38935850  4.80310590
   4.06037414 12.47632190  4.80681167
   4.46892645  8.31612890  2.41364254
   4.43945857  5.55141094  2.40917556
   0.00541759  2.76696971  0.00125565
   0.03697014 11.06439819  0.00460643
   9.26375081  9.69537976  2.40032226
   9.25827670  4.13056670  2.40387411
   4.86979680  9.70020154  0.00596507
   4.03219305  4.15757792  4.80643320
   4.43219727  2.77969205  2.39995789
   4.44444626 11.07999002  2.40249512
 


--------------------------------------------------------------------------------------------------------


 k-point  1 :   0.0000 0.0000 0.0000  plane waves:   16313
 k-point  2 :   0.3333 0.0000 0.0000  plane waves:   16320
 k-point  3 :   0.0000 0.0000 0.3333  plane waves:   16387
 k-point  4 :   0.3333 0.0000 0.3333  plane waves:   16327
 k-point  5 :  -0.3333 0.0000 0.3333  plane waves:   16372

 maximum and minimum number of plane-waves per node :     16387    16313

 maximum number of plane-waves:     16387
 maximum index in each direction: 
   IXMAX=   17   IYMAX=   25   IZMAX=    8
   IXMIN=  -17   IYMIN=  -25   IZMIN=   -9

 The following grids will avoid any aliasing or wrap around errors in the Hartre
 e energy
  - symmetry arguments have not been applied
  - exchange correlation energies might require even more grid points
  - we recommend to set PREC=Normal or Accurate and rely on VASP defaults
 NGX is ok and might be reduce to    70
 NGY is ok and might be reduce to   108
 NGZ is ok and might be reduce to    36

 serial   3D FFT for wavefunctions
 parallel 3D FFT for charge:
    minimum data exchange during FFTs selected (reduces bandwidth)


 total amount of memory used by VASP MPI-rank0   363835. kBytes
=======================================================================

   base      :      30000. kBytes
   nonlr-proj:      30860. kBytes
   fftplans  :       5952. kBytes
   grid      :      56632. kBytes
   one-center:       2083. kBytes
   wavefun   :     238308. kBytes
 
     INWAV:  cpu time    0.0000: real time    0.0000
 Broyden mixing: mesh for mixing (old mesh)
   NGX = 35   NGY = 51   NGZ = 17
  (NGX  =140   NGY  =216   NGZ  = 72)
  gives a total of  30345 points

 initial charge density was supplied:
 charge density of overlapping atoms calculated
 number of electron     465.0000000 magnetization      58.0000000
 keeping initial charge density in first step


--------------------------------------------------------------------------------------------------------


 Maximum index for non-local projection operator         5512
 Maximum index for augmentation-charges         1137 (set IRDMAX)


--------------------------------------------------------------------------------------------------------


 First call to EWALD:  gamma=   0.205
 Maximum number of real-space cells 3x 2x 5
 Maximum number of reciprocal cells 3x 4x 2

    FEWALD:  cpu time    0.0030: real time    0.0030


--------------------------------------- Iteration      1(   1)  ---------------------------------------


    POTLOK:  cpu time    2.2946: real time    2.3002
    SETDIJ:  cpu time    2.5121: real time    2.5180
    TRIAL :  cpu time   57.4846: real time   57.7688
    CORREC:  cpu time    0.0006: real time    0.0006
    --------------------------------------------
      LOOP:  cpu time   62.3214: real time   63.6745

 eigenvalue-minimisations  :  9520
 total energy-change (2. order) : 0.6595224E+04  (-0.2074288E+05)
 number of electron     465.0000000 magnetization      58.0000000
 augmentation part      465.0000000 magnetization      58.0000000

 Free energy of the ion-electron system (eV)
  ---------------------------------------------------
  alpha Z        PSCENC =      1498.76820990
  Ewald energy   TEWEN  =    -27199.81948510
  -Hartree energ DENC   =    -14994.51558789
  -exchange      EXHF   =         0.00000000
  -V(xc)+E(xc)   XCENC  =      -193.63862535
  PAW double counting   =     35221.97823708   -36787.98842569
  entropy T*S    EENTRO =        -0.01637146
  eigenvalues    EBANDS =      7510.96264959
  atomic energy  EATOM  =     41539.49336600
  ---------------------------------------------------
  free energy    TOTEN  =      6595.22396707 eV

  energy without entropy =     6595.24033853  energy(sigma->0) =     6595.23215280


--------------------------------------------------------------------------------------------------------




--------------------------------------- Iteration      1(   2)  ---------------------------------------


    TRIAL :  cpu time   54.7435: real time   54.8736
    CORREC:  cpu time    0.0010: real time    0.0010
    --------------------------------------------
      LOOP:  cpu time   54.7447: real time   54.8749

 eigenvalue-minimisations  :  9280
 total energy-change (2. order) :-0.4338792E+04  (-0.3850157E+04)
 number of electron     465.0000000 magnetization      58.0000000
 augmentation part      465.0000000 magnetization      58.0000000

 Free energy of the ion-electron system (eV)
  ---------------------------------------------------
  alpha Z        PSCENC =      1498.76820990
  Ewald energy   TEWEN  =    -27199.81948510
  -Hartree energ DENC   =    -14994.51558789
  -exchange      EXHF   =         0.00000000
  -V(xc)+E(xc)   XCENC  =      -193.63862535
  PAW double counting   =     35221.97823708   -36787.98842569
  entropy T*S    EENTRO =        -0.03982358
  eigenvalues    EBANDS =      3172.19433014
  atomic energy  EATOM  =     41539.49336600
  ---------------------------------------------------
  free energy    TOTEN  =      2256.43219551 eV

  energy without entropy =     2256.47201908  energy(sigma->0) =     2256.45210730


--------------------------------------------------------------------------------------------------------




--------------------------------------- Iteration      1(   3)  ---------------------------------------


    TRIAL :  cpu time   57.6298: real time   57.7722
    CORREC:  cpu time    0.0007: real time    0.0007
    --------------------------------------------
      LOOP:  cpu time   57.6306: real time   57.7731

 eigenvalue-minimisations  : 10032
 total energy-change (2. order) :-0.7304819E+03  (-0.6404655E+03)
 number of electron     465.0000000 magnetization      58.0000000
 augmentation part      465.0000000 magnetization      58.0000000

 Free energy of the ion-electron system (eV)
  ---------------------------------------------------
  alpha Z        PSCENC =      1498.76820990
  Ewald energy   TEWEN  =    -27199.81948510
  -Hartree energ DENC   =    -14994.51558789
  -exchange      EXHF   =         0.00000000
  -V(xc)+E(xc)   XCENC  =      -193.63862535
  PAW double counting   =     35221.97823708   -36787.98842569
  entropy T*S    EENTRO =        -0.04334480
  eigenvalues    EBANDS =      2441.71594776
  atomic energy  EATOM  =     41539.49336600
  ---------------------------------------------------
  free energy    TOTEN  =      1525.95029191 eV

  energy without entropy =     1525.99363671  energy(sigma->0) =     1525.97196431


--------------------------------------------------------------------------------------------------------




--------------------------------------- Iteration      1(   4)  ---------------------------------------


    TRIAL :  cpu time   60.4318: real time   60.5854
    CORREC:  cpu time    0.0007: real time    0.0007
    --------------------------------------------
      LOOP:  cpu time   60.4326: real time   60.5863

 eigenvalue-minimisations  : 10720
 total energy-change (2. order) :-0.4047845E+02  (-0.3968007E+02)
 number of electron     465.0000000 magnetization      58.0000000
 augmentation part      465.0000000 magnetization      58.0000000

 Free energy of the ion-electron system (eV)
  ---------------------------------------------------
  alpha Z        PSCENC =      1498.76820990
  Ewald energy   TEWEN  =    -27199.81948510
  -Hartree energ DENC   =    -14994.51558789
  -exchange      EXHF   =         0.00000000
  -V(xc)+E(xc)   XCENC  =      -193.63862535
  PAW double counting   =     35221.97823708   -36787.98842569
  entropy T*S    EENTRO =        -0.04381338
  eigenvalues    EBANDS =      2401.23796143
  atomic energy  EATOM  =     41539.49336600
  ---------------------------------------------------
  free energy    TOTEN  =      1485.47183699 eV

  energy without entropy =     1485.51565037  energy(sigma->0) =     1485.49374368


--------------------------------------------------------------------------------------------------------




--------------------------------------- Iteration      1(   5)  ---------------------------------------


    TRIAL :  cpu time   65.9836: real time   66.1407
    CORREC:  cpu time    0.0007: real time    0.0007
    CHARGE:  cpu time    8.3975: real time    8.4174
    --------------------------------------------
      LOOP:  cpu time   74.3820: real time   74.5590

 eigenvalue-minimisations  : 12448
 total energy-change (2. order) :-0.5648684E+00  (-0.5644490E+00)
 number of electron     464.9999872 magnetization      11.8253550
 augmentation part      180.3364504 magnetization      11.2592034

 Free energy of the ion-electron system (eV)
  ---------------------------------------------------
  alpha Z        PSCENC =      1498.76820990
  Ewald energy   TEWEN  =    -27199.81948510
  -Hartree energ DENC   =    -14994.51558789
  -exchange      EXHF   =         0.00000000
  -V(xc)+E(xc)   XCENC  =      -193.63862535
  PAW double counting   =     35221.97823708   -36787.98842569
  entropy T*S    EENTRO =        -0.04377293
  eigenvalues    EBANDS =      2400.67305261
  atomic energy  EATOM  =     41539.49336600
  ---------------------------------------------------
  free energy    TOTEN  =      1484.90696863 eV

  energy without entropy =     1484.95074156  energy(sigma->0) =     1484.92885509


--------------------------------------------------------------------------------------------------------




--------------------------------------- Iteration      1(   6)  ---------------------------------------


    POTLOK:  cpu time    2.1724: real time    2.1776
    SETDIJ:  cpu time    2.5649: real time    2.5710
    TRIAL :  cpu time   47.1457: real time   47.2573
    CORREC:  cpu time   26.4668: real time   26.5295
    CHARGE:  cpu time    8.8614: real time    8.8824
    --------------------------------------------
      LOOP:  cpu time   87.2116: real time   87.4181

 eigenvalue-minimisations  :     0
 total energy-change (2. order) :-0.2319503E+04  (-0.4490424E+03)
 number of electron     464.9999882 magnetization      11.1377560
 augmentation part      169.4472522 magnetization      12.2055497

 Free energy of the ion-electron system (eV)
  ---------------------------------------------------
  alpha Z        PSCENC =      1498.76820990
  Ewald energy   TEWEN  =    -27199.81948510
  -Hartree energ DENC   =    -15926.41141890
  -exchange      EXHF   =         0.00000000
  -V(xc)+E(xc)   XCENC  =       954.53862434
  PAW double counting   =     56716.45939317   -58834.02547571
  entropy T*S    EENTRO =        -0.02614483
  eigenvalues    EBANDS =       416.44485400
  atomic energy  EATOM  =     41539.49336600
  ---------------------------------------------------
  free energy    TOTEN  =      -834.59570524 eV

  energy without entropy =     -834.56956041  energy(sigma->0) =     -834.58263283


--------------------------------------------------------------------------------------------------------




--------------------------------------- Iteration      1(   7)  ---------------------------------------


    POTLOK:  cpu time    2.4846: real time    2.4905
    SETDIJ:  cpu time    2.5701: real time    2.5762
    TRIAL :  cpu time   52.7449: real time   52.8697
    CORREC:  cpu time   27.0886: real time   27.1527
    CHARGE:  cpu time    8.3804: real time    8.4002
    --------------------------------------------
      LOOP:  cpu time   93.2690: real time   93.4898

 eigenvalue-minimisations  :     0
 total energy-change (2. order) :-0.4599165E+03  (-0.1475992E+03)
 number of electron     464.9999890 magnetization      14.8860497
 augmentation part      162.7332962 magnetization      14.1720330

 Free energy of the ion-electron system (eV)
  ---------------------------------------------------
  alpha Z        PSCENC =      1498.76820990
  Ewald energy   TEWEN  =    -27199.81948510
  -Hartree energ DENC   =    -14737.07208837
  -exchange      EXHF   =         0.00000000
  -V(xc)+E(xc)   XCENC  =      1041.70725323
  PAW double counting   =     52516.64209853   -54253.19715866
  entropy T*S    EENTRO =        -0.07486578
  eigenvalues    EBANDS =     -1701.00824982
  atomic energy  EATOM  =     41539.49336600
  ---------------------------------------------------
  free energy    TOTEN  =     -1294.51219912 eV

  energy without entropy =    -1294.43733334  energy(sigma->0) =    -1294.47476623


--------------------------------------------------------------------------------------------------------




--------------------------------------- Iteration      1(   8)  ---------------------------------------


    POTLOK:  cpu time    2.4094: real time    2.4151
    SETDIJ:  cpu time    2.5679: real time    2.5739
    TRIAL :  cpu time   52.3067: real time   52.4305
    CORREC:  cpu time   27.0065: real time   27.0705
    CHARGE:  cpu time    9.0635: real time    9.0849
    --------------------------------------------
      LOOP:  cpu time   93.3544: real time   93.5754

 eigenvalue-minimisations  :     0
 total energy-change (2. order) :-0.1740763E+03  (-0.4996803E+02)
 number of electron     464.9999897 magnetization      14.1511359
 augmentation part      159.6835454 magnetization      13.6766331

 Free energy of the ion-electron system (eV)
  ---------------------------------------------------
  alpha Z        PSCENC =      1498.76820990
  Ewald energy   TEWEN  =    -27199.81948510
  -Hartree energ DENC   =    -14203.13551572
  -exchange      EXHF   =         0.00000000
  -V(xc)+E(xc)   XCENC  =      1101.47065439
  PAW double counting   =     50849.04843480   -52399.90090140
  entropy T*S    EENTRO =        -0.03765134
  eigenvalues    EBANDS =     -2654.43836311
  atomic energy  EATOM  =     41539.49336600
  ---------------------------------------------------
  free energy    TOTEN  =     -1468.58846603 eV

  energy without entropy =    -1468.55081469  energy(sigma->0) =    -1468.56964036


--------------------------------------------------------------------------------------------------------




--------------------------------------- Iteration      1(   9)  ---------------------------------------


    POTLOK:  cpu time    2.7729: real time    2.7794
    SETDIJ:  cpu time    2.5600: real time    2.5661
    TRIAL :  cpu time   53.5338: real time   53.6604
    CORREC:  cpu time   27.1983: real time   27.2626
    CHARGE:  cpu time    8.4071: real time    8.4271
    --------------------------------------------
      LOOP:  cpu time   94.4725: real time   94.6961

 eigenvalue-minimisations  :     0
 total energy-change (2. order) :-0.3748586E+02  (-0.4117370E+02)
 number of electron     464.9999899 magnetization      12.7767408
 augmentation part      157.7972565 magnetization      12.6831547

 Free energy of the ion-electron system (eV)
  ---------------------------------------------------
  alpha Z        PSCENC =      1498.76820990
  Ewald energy   TEWEN  =    -27199.81948510
  -Hartree energ DENC   =    -14062.30691898
  -exchange      EXHF   =         0.00000000
  -V(xc)+E(xc)   XCENC  =      1137.54300509
  PAW double counting   =     49827.62074308   -51316.48569165
  entropy T*S    EENTRO =        -0.02955348
  eigenvalues    EBANDS =     -2930.84990600
  atomic energy  EATOM  =     41539.49336600
  ---------------------------------------------------
  free energy    TOTEN  =     -1506.07432902 eV

  energy without entropy =    -1506.04477554  energy(sigma->0) =    -1506.05955228


--------------------------------------------------------------------------------------------------------




--------------------------------------- Iteration      1(  10)  ---------------------------------------


    POTLOK:  cpu time    2.9150: real time    2.9219
    SETDIJ:  cpu time    2.5595: real time    2.5656
    TRIAL :  cpu time   49.0671: real time   49.1831
    CORREC:  cpu time   26.7273: real time   26.7905
    CHARGE:  cpu time    8.8670: real time    8.8880
    --------------------------------------------
      LOOP:  cpu time   90.1366: real time   90.3498

 eigenvalue-minimisations  :     0
 total energy-change (2. order) :-0.3667237E+02  (-0.4243538E+02)
 number of electron     464.9999899 magnetization      11.6044682
 augmentation part      158.6512701 magnetization      11.7124837

 Free energy of the ion-electron system (eV)
  ---------------------------------------------------
  alpha Z        PSCENC =      1498.76820990
  Ewald energy   TEWEN  =    -27199.81948510
  -Hartree energ DENC   =    -13977.79942575
  -exchange      EXHF   =         0.00000000
  -V(xc)+E(xc)   XCENC  =      1163.85942733
  PAW double counting   =     49091.55465686   -50552.47590039
  entropy T*S    EENTRO =        -0.03217857
  eigenvalues    EBANDS =     -3106.29799192
  atomic energy  EATOM  =     41539.49336600
  ---------------------------------------------------
  free energy    TOTEN  =     -1542.74669654 eV

  energy without entropy =    -1542.71451797  energy(sigma->0) =    -1542.73060726


--------------------------------------------------------------------------------------------------------




--------------------------------------- Iteration      1(  11)  ---------------------------------------


    POTLOK:  cpu time    2.4725: real time    2.4784
    SETDIJ:  cpu time    2.5639: real time    2.5699
    TRIAL :  cpu time   45.2300: real time   45.3372
    CORREC:  cpu time   23.8812: real time   23.9377
    CHARGE:  cpu time    7.7514: real time    7.7697
    --------------------------------------------
      LOOP:  cpu time   81.8994: real time   82.0933

 eigenvalue-minimisations  :     0
 total energy-change (2. order) :-0.4257155E+02  (-0.2073866E+02)
 number of electron     464.9999898 magnetization      12.8243699
 augmentation part      159.1043855 magnetization      12.3146071

 Free energy of the ion-electron system (eV)
  ---------------------------------------------------
  alpha Z        PSCENC =      1498.76820990
  Ewald energy   TEWEN  =    -27199.81948510
  -Hartree energ DENC   =    -14281.57126631
  -exchange      EXHF   =         0.00000000
  -V(xc)+E(xc)   XCENC  =      1179.58661593
  PAW double counting   =     48707.01907907   -50257.81201977
  entropy T*S    EENTRO =        -0.03223893
  eigenvalues    EBANDS =     -2770.95057159
  atomic energy  EATOM  =     41539.49336600
  ---------------------------------------------------
  free energy    TOTEN  =     -1585.31825044 eV

  energy without entropy =    -1585.28601151  energy(sigma->0) =    -1585.30213098


--------------------------------------------------------------------------------------------------------




--------------------------------------- Iteration      1(  12)  ---------------------------------------


    POTLOK:  cpu time    2.1748: real time    2.1800
    SETDIJ:  cpu time    2.5589: real time    2.5650
    TRIAL :  cpu time   44.3943: real time   44.4994
    CORREC:  cpu time   23.5131: real time   23.5689
    CHARGE:  cpu time    7.5621: real time    7.5800
    --------------------------------------------
      LOOP:  cpu time   80.2037: real time   80.3937

 eigenvalue-minimisations  :     0
 total energy-change (2. order) :-0.2348549E+02  (-0.1662879E+02)
 number of electron     464.9999896 magnetization      12.2277564
 augmentation part      159.4702016 magnetization      11.7781414

 Free energy of the ion-electron system (eV)
  ---------------------------------------------------
  alpha Z        PSCENC =      1498.76820990
  Ewald energy   TEWEN  =    -27199.81948510
  -Hartree energ DENC   =    -14502.42654428
  -exchange      EXHF   =         0.00000000
  -V(xc)+E(xc)   XCENC  =      1187.47178931
  PAW double counting   =     48859.71642960   -50468.87195700
  entropy T*S    EENTRO =        -0.02590834
  eigenvalues    EBANDS =     -2523.10331158
  atomic energy  EATOM  =     41539.49336600
  ---------------------------------------------------
  free energy    TOTEN  =     -1608.80374208 eV

  energy without entropy =    -1608.77783374  energy(sigma->0) =    -1608.79078791


--------------------------------------------------------------------------------------------------------




--------------------------------------- Iteration      1(  13)  ---------------------------------------


    POTLOK:  cpu time    2.1700: real time    2.1752
    SETDIJ:  cpu time    2.5336: real time    2.5396
    TRIAL :  cpu time   44.6564: real time   44.7621
    CORREC:  cpu time   23.9968: real time   24.0536
    CHARGE:  cpu time    7.7890: real time    7.8074
    --------------------------------------------
      LOOP:  cpu time   81.1462: real time   81.3382

 eigenvalue-minimisations  :     0
 total energy-change (2. order) :-0.1590509E+02  (-0.8005510E+01)
 number of electron     464.9999897 magnetization      12.3969753
 augmentation part      159.2012766 magnetization      11.7637656

 Free energy of the ion-electron system (eV)
  ---------------------------------------------------
  alpha Z        PSCENC =      1498.76820990
  Ewald energy   TEWEN  =    -27199.81948510
  -Hartree energ DENC   =    -14682.66660314
  -exchange      EXHF   =         0.00000000
  -V(xc)+E(xc)   XCENC  =      1191.90104326
  PAW double counting   =     49224.80686537   -50900.62134986
  entropy T*S    EENTRO =        -0.02334978
  eigenvalues    EBANDS =     -2296.54496802
  atomic energy  EATOM  =     41539.49336600
  ---------------------------------------------------
  free energy    TOTEN  =     -1624.70882994 eV

  energy without entropy =    -1624.68548015  energy(sigma->0) =    -1624.69715504


--------------------------------------------------------------------------------------------------------




--------------------------------------- Iteration      1(  14)  ---------------------------------------


    POTLOK:  cpu time    2.1754: real time    2.1806
    SETDIJ:  cpu time    2.5295: real time    2.5356
    TRIAL :  cpu time   44.4984: real time   44.6040
    CORREC:  cpu time   23.8615: real time   23.9184
    CHARGE:  cpu time    7.7703: real time    7.7888
    --------------------------------------------
      LOOP:  cpu time   80.8355: real time   81.0277

 eigenvalue-minimisations  :     0
 total energy-change (2. order) :-0.4836385E+01  (-0.9647817E+01)
 number of electron     464.9999896 magnetization      12.4151753
 augmentation part      158.6336753 magnetization      11.7139558

 Free energy of the ion-electron system (eV)
  ---------------------------------------------------
  alpha Z        PSCENC =      1498.76820990
  Ewald energy   TEWEN  =    -27199.81948510
  -Hartree energ DENC   =    -14748.37982112
  -exchange      EXHF   =         0.00000000
  -V(xc)+E(xc)   XCENC  =      1195.07278508
  PAW double counting   =     49380.83156911   -51077.81493006
  entropy T*S    EENTRO =        -0.02443996
  eigenvalues    EBANDS =     -2217.67355942
  atomic energy  EATOM  =     41539.49336600
  ---------------------------------------------------
  free energy    TOTEN  =     -1629.54521540 eV

  energy without entropy =    -1629.52077543  energy(sigma->0) =    -1629.53299542


--------------------------------------------------------------------------------------------------------




--------------------------------------- Iteration      1(  15)  ---------------------------------------


    POTLOK:  cpu time    2.2961: real time    2.3015
    SETDIJ:  cpu time    2.5369: real time    2.5429
    TRIAL :  cpu time   47.6151: real time   47.7278
    CORREC:  cpu time   24.8935: real time   24.9525
    CHARGE:  cpu time    8.2293: real time    8.2487
    --------------------------------------------
      LOOP:  cpu time   85.5713: real time   85.7739

 eigenvalue-minimisations  :     0
 total energy-change (2. order) :-0.3078581E+01  (-0.1339335E+02)
 number of electron     464.9999900 magnetization      11.0451597
 augmentation part      156.7332120 magnetization      10.6294834

 Free energy of the ion-electron system (eV)
  ---------------------------------------------------
  alpha Z        PSCENC =      1498.76820990
  Ewald energy   TEWEN  =    -27199.81948510
  -Hartree energ DENC   =    -14694.65133213
  -exchange      EXHF   =         0.00000000
  -V(xc)+E(xc)   XCENC  =      1196.93872640
  PAW double counting   =     49256.85479821   -50938.95009407
  entropy T*S    EENTRO =        -0.00730991
  eigenvalues    EBANDS =     -2291.23354544
  atomic energy  EATOM  =     41539.49336600
  ---------------------------------------------------
  free energy    TOTEN  =     -1632.62379620 eV

  energy without entropy =    -1632.61648629  energy(sigma->0) =    -1632.62014124


--------------------------------------------------------------------------------------------------------




--------------------------------------- Iteration      1(  16)  ---------------------------------------


    POTLOK:  cpu time    2.1685: real time    2.1736
    SETDIJ:  cpu time    2.5369: real time    2.5429
    TRIAL :  cpu time   47.1826: real time   47.2943
    CORREC:  cpu time   25.1126: real time   25.1721
    CHARGE:  cpu time    7.9579: real time    7.9767
    --------------------------------------------
      LOOP:  cpu time   84.9589: real time   85.1601

 eigenvalue-minimisations  :     0
 total energy-change (2. order) :-0.1264282E+02  (-0.2171830E+01)
 number of electron     464.9999900 magnetization      11.6955485
 augmentation part      156.4162765 magnetization      10.9672774

 Free energy of the ion-electron system (eV)
  ---------------------------------------------------
  alpha Z        PSCENC =      1498.76820990
  Ewald energy   TEWEN  =    -27199.81948510
  -Hartree energ DENC   =    -14529.16289502
  -exchange      EXHF   =         0.00000000
  -V(xc)+E(xc)   XCENC  =      1202.47986164
  PAW double counting   =     48868.58179822   -50503.10176596
  entropy T*S    EENTRO =        -0.02309832
  eigenvalues    EBANDS =     -2522.49839666
  atomic energy  EATOM  =     41539.49336600
  ---------------------------------------------------
  free energy    TOTEN  =     -1645.26661688 eV

  energy without entropy =    -1645.24351856  energy(sigma->0) =    -1645.25506772


--------------------------------------------------------------------------------------------------------




--------------------------------------- Iteration      1(  17)  ---------------------------------------


    POTLOK:  cpu time    2.2602: real time    2.2656
    SETDIJ:  cpu time    2.5330: real time    2.5390
    TRIAL :  cpu time   46.5988: real time   46.7091
    CORREC:  cpu time   25.3218: real time   25.3818
    CHARGE:  cpu time    7.8431: real time    7.8616
    --------------------------------------------
      LOOP:  cpu time   84.5572: real time   84.7575

 eigenvalue-minimisations  :     0
 total energy-change (2. order) :-0.3380853E+01  (-0.1311386E+01)
 number of electron     464.9999899 magnetization      12.0598324
 augmentation part      156.2091032 magnetization      11.1278857

 Free energy of the ion-electron system (eV)
  ---------------------------------------------------
  alpha Z        PSCENC =      1498.76820990
  Ewald energy   TEWEN  =    -27199.81948510
  -Hartree energ DENC   =    -14532.82527482
  -exchange      EXHF   =         0.00000000
  -V(xc)+E(xc)   XCENC  =      1203.50586932
  PAW double counting   =     48832.71459415   -50462.84542591
  entropy T*S    EENTRO =        -0.02901892
  eigenvalues    EBANDS =     -2527.61622476
  atomic energy  EATOM  =     41539.49336600
  ---------------------------------------------------
  free energy    TOTEN  =     -1648.64746954 eV

  energy without entropy =    -1648.61845063  energy(sigma->0) =    -1648.63296009


--------------------------------------------------------------------------------------------------------




--------------------------------------- Iteration      1(  18)  ---------------------------------------


    POTLOK:  cpu time    2.1764: real time    2.1816
    SETDIJ:  cpu time    2.5400: real time    2.5461
    TRIAL :  cpu time   44.6403: real time   44.7460
    CORREC:  cpu time   24.0620: real time   24.1190
    CHARGE:  cpu time    7.7995: real time    7.8180
    --------------------------------------------
      LOOP:  cpu time   81.2187: real time   81.4111

 eigenvalue-minimisations  :     0
 total energy-change (2. order) :-0.1775872E+01  (-0.1126401E+01)
 number of electron     464.9999899 magnetization      12.0960348
 augmentation part      156.0743230 magnetization      11.0965299

 Free energy of the ion-electron system (eV)
  ---------------------------------------------------
  alpha Z        PSCENC =      1498.76820990
  Ewald energy   TEWEN  =    -27199.81948510
  -Hartree energ DENC   =    -14545.83299547
  -exchange      EXHF   =         0.00000000
  -V(xc)+E(xc)   XCENC  =      1204.01979551
  PAW double counting   =     48802.76192763   -50433.24484727
  entropy T*S    EENTRO =        -0.03362761
  eigenvalues    EBANDS =     -2516.54029427
  atomic energy  EATOM  =     41539.49336600
  ---------------------------------------------------
  free energy    TOTEN  =     -1650.42334198 eV

  energy without entropy =    -1650.38971437  energy(sigma->0) =    -1650.40652818


--------------------------------------------------------------------------------------------------------




--------------------------------------- Iteration      1(  19)  ---------------------------------------


    POTLOK:  cpu time    2.1684: real time    2.1735
    SETDIJ:  cpu time    2.5363: real time    2.5423
    TRIAL :  cpu time   44.9020: real time   45.0083
    CORREC:  cpu time   24.2376: real time   24.2950
    CHARGE:  cpu time    7.9113: real time    7.9300
    --------------------------------------------
      LOOP:  cpu time   81.7560: real time   81.9496

 eigenvalue-minimisations  :     0
 total energy-change (2. order) :-0.1094709E+01  (-0.1331365E+01)
 number of electron     464.9999900 magnetization      11.6767954
 augmentation part      155.8929477 magnetization      10.7485719

 Free energy of the ion-electron system (eV)
  ---------------------------------------------------
  alpha Z        PSCENC =      1498.76820990
  Ewald energy   TEWEN  =    -27199.81948510
  -Hartree energ DENC   =    -14554.43779599
  -exchange      EXHF   =         0.00000000
  -V(xc)+E(xc)   XCENC  =      1204.24843511
  PAW double counting   =     48773.13741846   -50405.38814975
  entropy T*S    EENTRO =        -0.02625528
  eigenvalues    EBANDS =     -2507.48642211
  atomic energy  EATOM  =     41539.49336600
  ---------------------------------------------------
  free energy    TOTEN  =     -1651.51805109 eV

  energy without entropy =    -1651.49179581  energy(sigma->0) =    -1651.50492345


--------------------------------------------------------------------------------------------------------




--------------------------------------- Iteration      1(  20)  ---------------------------------------


    POTLOK:  cpu time    2.1800: real time    2.1852
    SETDIJ:  cpu time    2.5341: real time    2.5401
    TRIAL :  cpu time   44.9107: real time   45.0171
    CORREC:  cpu time   24.6196: real time   24.6779
    CHARGE:  cpu time    7.9687: real time    7.9876
    --------------------------------------------
      LOOP:  cpu time   82.2135: real time   82.4083

 eigenvalue-minimisations  :     0
 total energy-change (2. order) :-0.1424617E+01  (-0.2862977E+01)
 number of electron     464.9999901 magnetization      11.0004836
 augmentation part      155.5665020 magnetization      10.1787819

 Free energy of the ion-electron system (eV)
  ---------------------------------------------------
  alpha Z        PSCENC =      1498.76820990
  Ewald energy   TEWEN  =    -27199.81948510
  -Hartree energ DENC   =    -14570.04280149
  -exchange      EXHF   =         0.00000000
  -V(xc)+E(xc)   XCENC  =      1204.43268649
  PAW double counting   =     48709.41395795   -50346.34990608
  entropy T*S    EENTRO =        -0.02128207
  eigenvalues    EBANDS =     -2488.81244074
  atomic energy  EATOM  =     41539.49336600
  ---------------------------------------------------
  free energy    TOTEN  =     -1652.94266836 eV

  energy without entropy =    -1652.92138629  energy(sigma->0) =    -1652.93202732


--------------------------------------------------------------------------------------------------------




--------------------------------------- Iteration      1(  21)  ---------------------------------------


    POTLOK:  cpu time    2.7615: real time    2.7680
    SETDIJ:  cpu time    2.5327: real time    2.5387
    TRIAL :  cpu time   48.5648: real time   48.6798
    CORREC:  cpu time   26.9022: real time   26.9660
    CHARGE:  cpu time    8.4691: real time    8.4892
    --------------------------------------------
      LOOP:  cpu time   89.2306: real time   89.4419

 eigenvalue-minimisations  :     0
 total energy-change (2. order) :-0.1221708E+01  (-0.2003651E+01)
 number of electron     464.9999902 magnetization      10.9999990
 augmentation part      155.0688506 magnetization       9.9684877

 Free energy of the ion-electron system (eV)
  ---------------------------------------------------
  alpha Z        PSCENC =      1498.76820990
  Ewald energy   TEWEN  =    -27199.81948510
  -Hartree energ DENC   =    -14603.14397604
  -exchange      EXHF   =         0.00000000
  -V(xc)+E(xc)   XCENC  =      1205.09823549
  PAW double counting   =     48593.85510447   -50239.15556821
  entropy T*S    EENTRO =        -0.01941030
  eigenvalues    EBANDS =     -2449.23898109
  atomic energy  EATOM  =     41539.49336600
  ---------------------------------------------------
  free energy    TOTEN  =     -1654.16437665 eV

  energy without entropy =    -1654.14496635  energy(sigma->0) =    -1654.15467150


--------------------------------------------------------------------------------------------------------




--------------------------------------- Iteration      1(  22)  ---------------------------------------


    POTLOK:  cpu time    2.2662: real time    2.2716
    SETDIJ:  cpu time    2.5359: real time    2.5419
    TRIAL :  cpu time   47.4598: real time   47.5721
    CORREC:  cpu time   26.8877: real time   26.9514
    CHARGE:  cpu time    8.4732: real time    8.4932
    --------------------------------------------
      LOOP:  cpu time   87.6234: real time   87.8308

 eigenvalue-minimisations  :     0
 total energy-change (2. order) :-0.1696613E+01  (-0.2692222E+01)
 number of electron     464.9999903 magnetization      10.9999990
 augmentation part      154.4567803 magnetization       9.7175168

 Free energy of the ion-electron system (eV)
  ---------------------------------------------------
  alpha Z        PSCENC =      1498.76820990
  Ewald energy   TEWEN  =    -27199.81948510
  -Hartree energ DENC   =    -14636.47499336
  -exchange      EXHF   =         0.00000000
  -V(xc)+E(xc)   XCENC  =      1207.02106150
  PAW double counting   =     48445.98087446   -50098.84203068
  entropy T*S    EENTRO =        -0.00483278
  eigenvalues    EBANDS =     -2411.96858218
  atomic energy  EATOM  =     41539.49336600
  ---------------------------------------------------
  free energy    TOTEN  =     -1655.86098975 eV

  energy without entropy =    -1655.85615697  energy(sigma->0) =    -1655.85857336


--------------------------------------------------------------------------------------------------------




--------------------------------------- Iteration      1(  23)  ---------------------------------------


    POTLOK:  cpu time    2.7557: real time    2.7623
    SETDIJ:  cpu time    2.5382: real time    2.5442
    TRIAL :  cpu time   50.1017: real time   50.2204
    CORREC:  cpu time   27.6130: real time   27.6783
    CHARGE:  cpu time    8.6107: real time    8.6311
    --------------------------------------------
      LOOP:  cpu time   91.6197: real time   91.8367

 eigenvalue-minimisations  :     0
 total energy-change (2. order) :-0.1576710E+01  (-0.2537665E+01)
 number of electron     464.9999905 magnetization      10.9999990
 augmentation part      153.5908724 magnetization       9.4015403

 Free energy of the ion-electron system (eV)
  ---------------------------------------------------
  alpha Z        PSCENC =      1498.76820990
  Ewald energy   TEWEN  =    -27199.81948510
  -Hartree energ DENC   =    -14657.73189155
  -exchange      EXHF   =         0.00000000
  -V(xc)+E(xc)   XCENC  =      1210.52760788
  PAW double counting   =     48265.94348208   -49924.06854005
  entropy T*S    EENTRO =        -0.01009607
  eigenvalues    EBANDS =     -2390.54561575
  atomic energy  EATOM  =     41539.49336600
  ---------------------------------------------------
  free energy    TOTEN  =     -1657.43769937 eV

  energy without entropy =    -1657.42760329  energy(sigma->0) =    -1657.43265133


--------------------------------------------------------------------------------------------------------




--------------------------------------- Iteration      1(  24)  ---------------------------------------


    POTLOK:  cpu time    2.5633: real time    2.5693
    SETDIJ:  cpu time    2.5329: real time    2.5389
    TRIAL :  cpu time   52.4745: real time   52.5988
    CORREC:  cpu time   26.8479: real time   26.9114
    CHARGE:  cpu time    8.8096: real time    8.8304
    --------------------------------------------
      LOOP:  cpu time   93.2288: real time   93.4495

 eigenvalue-minimisations  :     0
 total energy-change (2. order) :-0.2549304E+01  (-0.1301270E+01)
 number of electron     464.9999906 magnetization      10.9999990
 augmentation part      153.1525440 magnetization       9.2286481

 Free energy of the ion-electron system (eV)
  ---------------------------------------------------
  alpha Z        PSCENC =      1498.76820990
  Ewald energy   TEWEN  =    -27199.81948510
  -Hartree energ DENC   =    -14663.93863159
  -exchange      EXHF   =         0.00000000
  -V(xc)+E(xc)   XCENC  =      1218.96067258
  PAW double counting   =     48027.44042388   -49684.76203726
  entropy T*S    EENTRO =        -0.02133969
  eigenvalues    EBANDS =     -2396.11942582
  atomic energy  EATOM  =     41539.49336600
  ---------------------------------------------------
  free energy    TOTEN  =     -1659.98700348 eV

  energy without entropy =    -1659.96566379  energy(sigma->0) =    -1659.97633363


--------------------------------------------------------------------------------------------------------




--------------------------------------- Iteration      1(  25)  ---------------------------------------


    POTLOK:  cpu time    2.5481: real time    2.5542
    SETDIJ:  cpu time    2.4380: real time    2.4438
    TRIAL :  cpu time   52.0270: real time   52.1501
    CORREC:  cpu time   28.1764: real time   28.2432
    CHARGE:  cpu time    8.7954: real time    8.8162
    --------------------------------------------
      LOOP:  cpu time   93.9853: real time   94.2078

 eigenvalue-minimisations  :     0
 total energy-change (2. order) :-0.1348251E+01  (-0.1503360E+01)
 number of electron     464.9999907 magnetization      10.9999990
 augmentation part      152.6445830 magnetization       9.0113344

 Free energy of the ion-electron system (eV)
  ---------------------------------------------------
  alpha Z        PSCENC =      1498.76820990
  Ewald energy   TEWEN  =    -27199.81948510
  -Hartree energ DENC   =    -14666.20250879
  -exchange      EXHF   =         0.00000000
  -V(xc)+E(xc)   XCENC  =      1224.95636526
[...]
   0.408E+03 -.118E+02 0.107E+03   -.435E+03 0.114E+02 -.114E+03   0.272E+02 0.406E+00 0.688E+01
   0.320E+03 0.378E+02 0.467E+02   -.342E+03 -.410E+02 -.510E+02   0.219E+02 0.326E+01 0.433E+01
   -.317E+03 0.406E+02 -.462E+02   0.339E+03 -.438E+02 0.506E+02   -.219E+02 0.322E+01 -.442E+01
   0.324E+03 0.233E+02 0.443E+02   -.346E+03 -.260E+02 -.477E+02   0.213E+02 0.271E+01 0.335E+01
   -.352E+03 -.101E+02 -.321E+02   0.379E+03 0.969E+01 0.358E+02   -.268E+02 0.376E+00 -.368E+01
   -.408E+03 -.402E+02 0.229E+02   0.431E+03 0.417E+02 -.271E+02   -.230E+02 -.150E+01 0.414E+01
   0.405E+03 -.418E+02 -.242E+02   -.428E+03 0.436E+02 0.285E+02   0.231E+02 -.180E+01 -.425E+01
   0.371E+03 0.272E+02 0.700E+02   -.394E+03 -.262E+02 -.752E+02   0.226E+02 -.103E+01 0.519E+01
   -.367E+03 0.213E+02 -.681E+02   0.390E+03 -.190E+02 0.730E+02   -.221E+02 -.229E+01 -.488E+01
   -.399E+03 -.264E+02 -.148E+02   0.424E+03 0.268E+02 0.158E+02   -.247E+02 -.421E+00 -.975E+00
   0.424E+03 -.408E+02 0.421E+02   -.452E+03 0.427E+02 -.454E+02   0.281E+02 -.196E+01 0.328E+01
   0.366E+03 0.307E+01 0.695E+02   -.389E+03 -.289E+01 -.739E+02   0.225E+02 -.175E+00 0.441E+01
   -.374E+03 -.104E+01 -.750E+02   0.396E+03 0.239E+01 0.804E+02   -.222E+02 -.135E+01 -.541E+01
   0.340E+03 0.223E+02 0.301E+02   -.363E+03 -.228E+02 -.310E+02   0.231E+02 0.564E+00 0.990E+00
   -.337E+03 0.221E+02 -.297E+02   0.360E+03 -.225E+02 0.308E+02   -.232E+02 0.402E+00 -.103E+01
   -.311E+03 -.288E+02 -.911E+02   0.332E+03 0.310E+02 0.967E+02   -.212E+02 -.222E+01 -.556E+01
   0.307E+03 -.364E+02 0.874E+02   -.328E+03 0.399E+02 -.925E+02   0.208E+02 -.353E+01 0.506E+01
   0.330E+03 0.282E+02 0.223E+02   -.353E+03 -.289E+02 -.223E+02   0.225E+02 0.745E+00 0.142E-01
   -.362E+03 0.255E+02 -.646E+02   0.389E+03 -.261E+02 0.687E+02   -.272E+02 0.536E+00 -.417E+01
   -.304E+03 -.654E+02 -.913E+02   0.325E+03 0.688E+02 0.964E+02   -.211E+02 -.340E+01 -.515E+01
   0.310E+03 -.633E+02 0.926E+02   -.330E+03 0.670E+02 -.983E+02   0.204E+02 -.373E+01 0.574E+01
   -.327E+03 -.161E+02 -.108E+03   0.349E+03 0.162E+02 0.113E+03   -.212E+02 -.162E+00 -.517E+01
   0.322E+03 -.130E+02 0.106E+03   -.343E+03 0.131E+02 -.111E+03   0.212E+02 -.169E+00 0.500E+01
   0.382E+03 0.164E+02 -.203E+01   -.405E+03 -.163E+02 0.586E+01   0.237E+02 -.598E-01 -.382E+01
   -.378E+03 0.195E+02 0.182E+01   0.401E+03 -.199E+02 -.515E+01   -.232E+02 0.389E+00 0.332E+01
   -.336E+03 -.129E+01 -.970E+02   0.357E+03 0.265E+01 0.102E+03   -.211E+02 -.136E+01 -.530E+01
   0.358E+03 0.239E+02 0.862E+02   -.383E+03 -.250E+02 -.913E+02   0.250E+02 0.110E+01 0.508E+01
   0.374E+03 -.528E+01 -.919E+01   -.397E+03 0.423E+01 0.130E+02   0.231E+02 0.105E+01 -.380E+01
   -.382E+03 -.104E+02 0.650E+01   0.405E+03 0.951E+01 -.102E+02   -.229E+02 0.866E+00 0.371E+01
   0.309E+03 -.139E+02 0.941E+02   -.329E+03 0.150E+02 -.100E+03   0.200E+02 -.104E+01 0.603E+01
   -.303E+03 -.125E+02 -.942E+02   0.323E+03 0.138E+02 0.100E+03   -.198E+02 -.134E+01 -.604E+01
   -.358E+03 0.139E+02 0.749E+01   0.380E+03 -.145E+02 -.115E+02   -.225E+02 0.620E+00 0.398E+01
   0.353E+03 0.113E+02 -.802E+01   -.375E+03 -.121E+02 0.116E+02   0.218E+02 0.842E+00 -.355E+01
   0.309E+03 0.789E+01 0.953E+02   -.328E+03 -.687E+01 -.101E+03   0.191E+02 -.102E+01 0.585E+01
   -.333E+03 0.412E+02 -.807E+02   0.356E+03 -.434E+02 0.859E+02   -.233E+02 0.219E+01 -.524E+01
   -.351E+03 -.191E+02 0.133E+02   0.373E+03 0.189E+02 -.174E+02   -.222E+02 0.162E+00 0.405E+01
   0.359E+03 -.246E+02 -.909E+01   -.381E+03 0.248E+02 0.129E+02   0.219E+02 -.111E+00 -.377E+01
   -.384E+02 0.133E+02 -.133E+02   0.394E+02 -.135E+02 0.137E+02   -.936E+00 0.436E-01 -.496E+00
   -.134E+01 0.440E+02 -.495E+00   0.143E+01 -.448E+02 0.470E+00   -.892E-01 0.680E+00 0.232E-01
   0.324E+02 -.298E+02 -.163E+02   -.333E+02 0.302E+02 0.163E+02   0.867E+00 -.299E+00 0.468E-01
   -.135E+02 -.494E+02 0.302E+00   0.134E+02 0.488E+02 -.293E+00   0.539E-01 0.899E+00 -.351E-01
   -.571E+01 -.351E+02 -.425E+00   0.575E+01 0.355E+02 0.437E+00   -.332E-01 -.312E+00 -.170E-01
   0.892E+00 -.721E+01 -.117E+01   -.109E+01 0.732E+01 0.101E+01   0.209E+00 0.102E+00 0.176E+00
   0.488E+01 -.286E+01 -.198E-01   -.486E+01 0.247E+01 0.170E-01   -.122E-01 0.521E+00 -.107E-02
   -.387E+01 -.414E+02 0.160E+01   0.407E+01 0.415E+02 -.144E+01   -.207E+00 0.965E-01 -.186E+00
   -.332E+02 0.283E+01 0.189E+02   0.343E+02 -.319E+01 -.191E+02   -.107E+01 0.498E+00 0.817E-01
   0.125E+02 -.804E+02 -.458E+00   -.123E+02 0.808E+02 0.388E+00   -.175E+00 -.314E+00 0.112E+00
   -.720E+01 -.409E+02 -.156E+01   0.730E+01 0.413E+02 0.156E+01   -.110E+00 -.355E+00 -.551E-02
   -.123E+02 0.482E+02 -.322E+00   0.121E+02 -.479E+02 0.460E+00   0.307E+00 -.357E+00 -.156E+00
   0.212E+02 0.201E+02 0.126E+02   -.215E+02 -.193E+02 -.127E+02   0.354E+00 -.944E+00 0.718E-01
   -.103E+02 0.768E+01 -.217E+00   0.104E+02 -.835E+01 0.228E+00   -.109E+00 0.658E+00 -.165E-01
   -.305E+02 0.497E+02 -.154E+02   0.310E+02 -.497E+02 0.156E+02   -.551E+00 0.114E-02 -.179E+00
   0.997E+01 -.238E+02 -.103E+01   -.101E+02 0.250E+02 0.101E+01   0.113E+00 -.136E+01 0.279E-01
   0.588E+01 0.959E+01 0.311E+01   -.595E+01 -.899E+01 -.307E+01   0.858E-01 -.683E+00 -.443E-01
   0.840E+01 0.187E+02 -.896E+00   -.806E+01 -.180E+02 0.691E+00   -.378E+00 -.748E+00 0.228E+00
 -----------------------------------------------------------------------------------------------
   0.410E+01 0.861E+01 0.826E+00   -.442E-12 -.504E-12 0.423E-12   -.413E+01 -.854E+01 -.843E+00
 
 
 POSITION                                       TOTAL-FORCE (eV/Angst)
 -----------------------------------------------------------------------------------
      2.25108      1.26938      1.22429         0.012767      0.003630      0.002011
      6.61184      1.27031      3.58486        -0.009692      0.002225     -0.000045
      1.89991      8.18493      3.67960        -0.002192      0.007219      0.021535
      7.01735     11.16777      1.22091        -0.011440      0.012360     -0.009469
      1.89092     11.30672      3.59375         0.018656      0.006144      0.000033
      6.60422      4.35358      3.61238         0.002574     -0.018558      0.001375
      2.26041      4.37464      1.19356        -0.002638      0.000162      0.004725
      9.68522     13.85580      0.00540         0.011040      0.043247      0.045959
      9.19067      6.91697      2.37502        -0.014581     -0.008608     -0.029795
      0.71175     13.85229      1.76478        -0.008963     -0.006020      0.002428
      8.19934     13.85509      3.05603         0.015402     -0.006062     -0.000131
      0.26654      6.95826      4.14340         0.014301      0.000024      0.001157
      8.55939      6.93629      0.61033        -0.007447     -0.005843      0.004673
      3.75149      0.03290      0.63149         0.018359     -0.005766      0.003473
      5.11832      0.03327      4.16485        -0.015164     -0.002560     -0.001923
      3.37636      6.96677      3.05470         0.006259      0.000548      0.005535
      5.53272      6.93613      1.79414        -0.010427     -0.003850     -0.000503
      0.33834      1.37825      4.34460         0.012572     -0.011489     -0.004847
      8.52120      1.38298      0.47395        -0.000773     -0.008667     -0.005513
      8.59573     12.42926      0.68742         0.009962     -0.003138      0.001504
      0.30746     12.42045      4.14586        -0.007680     -0.002507     -0.012664
      0.67016      8.29307      1.76875         0.013720      0.002935      0.009298
      8.15345      8.32847      3.05435        -0.013998      0.001972     -0.007580
      8.16223      5.49748      3.07343        -0.013079      0.003661      0.004804
      0.65830      5.52216      1.72653         0.022168     -0.001814      0.003376
      3.34649      1.39193      3.03140         0.013119      0.003218      0.004792
      5.52285      1.39593      1.76263        -0.017816      0.002055      0.000757
      5.54060     12.44699      1.72245        -0.023058     -0.002396     -0.006204
      3.38952     12.44691      3.06594         0.006156     -0.002159     -0.002515
      3.78819      8.32265      0.63029         0.001741      0.000493     -0.002669
      5.14165      8.33088      4.15994        -0.009353      0.001458     -0.001071
      5.11482      5.50159      4.14553        -0.023413      0.003406     -0.004754
      3.78094      5.53016      0.67393         0.000249      0.001762     -0.000560
      0.67911      2.76052      1.72192        -0.017592      0.001304      0.001917
      8.18529      2.75622      3.08997         0.025473     -0.002113      0.005717
      8.17032     11.07628      2.91165        -0.005925     -0.001998      0.001555
      0.73466     11.07094      1.91846         0.003849     -0.002504     -0.003928
      0.30382      9.64615      4.12016        -0.010197      0.002965     -0.006949
      8.61239      9.71827      0.66352        -0.005417      0.002245     -0.003022
      8.54395      4.16470      0.48003         0.005446      0.002385     -0.002404
      0.31994      4.16605      4.32396         0.001279     -0.000957     -0.000833
      3.73773      2.76166      0.67840        -0.000063      0.006615     -0.003607
      5.13317      2.75387      4.11708        -0.003326      0.004427     -0.004847
      5.16929     11.09440      4.29969        -0.008624     -0.002067     -0.011037
      3.74209     11.10300      0.49858         0.006857      0.000347      0.008073
      3.34071      9.67223      3.10241        -0.006459      0.004377     -0.003192
      5.52833      9.72380      1.74457        -0.022676     -0.000817      0.001332
      5.55338      4.16211      1.90729        -0.011188      0.001025     -0.003595
      3.30961      4.15458      2.90304         0.004103      0.000737      0.002824
      4.89083      6.93452      0.01895         0.017763      0.000029      0.001108
      4.46565     13.85098      2.39727         0.005641      0.008983     -0.002966
      8.84020      8.31442      4.80015        -0.016676     -0.006194      0.008861
      8.85321      5.53122      4.80227        -0.015341     -0.001196      0.004998
     -0.39913      1.37795      2.40930        -0.001004      0.002443     -0.002370
      9.28274     12.45166      2.40994         0.000038      0.004224     -0.005810
      4.03032      1.38936      4.80311         0.008209      0.005367     -0.002843
      4.06037     12.47632      4.80681         0.008321      0.013057     -0.001608
      4.46893      8.31613      2.41364         0.015584     -0.003646      0.001626
      4.43946      5.55141      2.40918         0.017366      0.001506      0.003791
      0.00542      2.76697      0.00126        -0.012695     -0.009783     -0.000743
      0.03697     11.06440      0.00461        -0.009474     -0.013587      0.004470
      9.26375      9.69538      2.40032        -0.005310     -0.015105     -0.012850
      9.25828      4.13057      2.40387        -0.003310     -0.004607     -0.002860
      4.86980      9.70020      0.00597         0.014445     -0.004168      0.003705
      4.03219      4.15758      4.80643         0.011125      0.000601     -0.001861
      4.43220      2.77969      2.39996         0.015117     -0.002755      0.001927
      4.44445     11.07999      2.40250         0.007332      0.001778     -0.001771
 -----------------------------------------------------------------------------------
    total drift:                               -0.029557      0.073896     -0.017063


--------------------------------------------------------------------------------------------------------



  FREE ENERGIE OF THE ION-ELECTRON SYSTEM (eV)
  ---------------------------------------------------
  free  energy   TOTEN  =     -1668.4240325796 eV

  energy  without entropy=    -1668.4215526422  energy(sigma->0) =    -1668.42279261
 


--------------------------------------------------------------------------------------------------------


    POTLOK:  cpu time    4.6391: real time    4.6501


--------------------------------------------------------------------------------------------------------


     LOOP+:  cpu time 5154.6742: real time 5168.2627
    4ORBIT:  cpu time    0.0000: real time    0.0000

volume of typ            1:     8.5 %

volume of typ            2:     2.1 %

volume of typ            3:    10.1 %

volume of typ            4:     2.0 %

volume of typ            5:    15.8 %
 
total charge     
 
# of ion       s       p       d       tot
------------------------------------------
    1        2.070   0.230   0.096   2.396
    2        2.071   0.233   0.097   2.400
    3        2.065   0.213   0.087   2.365
    4        2.077   0.246   0.103   2.426
    5        2.083   0.261   0.109   2.453
    6        2.085   0.268   0.114   2.466
    7        2.080   0.253   0.106   2.438
    8        0.242   6.271   4.572  11.084
    9        0.238   6.263   4.558  11.059
   10        1.274   2.818   0.007   4.098
   11        1.274   2.818   0.007   4.099
   12        1.276   2.809   0.006   4.091
   13        1.286   2.779   0.007   4.073
   14        1.274   2.806   0.007   4.087
   15        1.274   2.805   0.007   4.086
   16        1.273   2.808   0.007   4.088
   17        1.285   2.769   0.007   4.062
   18        1.277   2.810   0.006   4.093
   19        1.277   2.809   0.006   4.093
   20        1.276   2.812   0.007   4.095
   21        1.274   2.821   0.007   4.101
   22        1.279   2.799   0.007   4.085
   23        1.288   2.772   0.007   4.068
   24        1.275   2.821   0.007   4.103
   25        1.275   2.817   0.007   4.099
   26        1.276   2.796   0.007   4.079
   27        1.276   2.795   0.007   4.078
   28        1.273   2.812   0.007   4.092
   29        1.271   2.821   0.007   4.099
   30        1.274   2.804   0.007   4.085
   31        1.287   2.763   0.008   4.058
   32        1.273   2.816   0.007   4.096
   33        1.272   2.816   0.007   4.095
   34        1.273   2.812   0.007   4.092
   35        1.273   2.813   0.007   4.093
   36        1.283   2.785   0.007   4.075
   37        1.282   2.785   0.007   4.074
   38        1.276   2.802   0.007   4.084
   39        1.282   2.788   0.007   4.077
   40        1.282   2.785   0.007   4.074
   41        1.281   2.787   0.006   4.075
   42        1.272   2.810   0.006   4.089
   43        1.272   2.811   0.006   4.090
   44        1.280   2.789   0.006   4.076
   45        1.280   2.790   0.006   4.076
   46        1.272   2.812   0.006   4.089
   47        1.278   2.796   0.007   4.081
   48        1.280   2.791   0.006   4.078
   49        1.279   2.793   0.006   4.078
   50        0.259   0.368   6.832   7.459
   51        0.261   0.372   6.839   7.472
   52        0.289   0.404   7.765   8.458
   53        0.299   0.423   7.775   8.497
   54        0.261   0.340   7.804   8.405
   55        0.298   0.423   7.770   8.491
   56        0.290   0.401   7.762   8.453
   57        0.298   0.420   7.767   8.485
   58        0.291   0.402   7.762   8.455
   59        0.300   0.424   7.769   8.492
   60        0.304   0.439   7.775   8.518
   61        0.266   0.349   7.801   8.416
   62        0.303   0.433   7.774   8.510
   63        0.264   0.344   7.800   8.407
   64        0.303   0.431   7.772   8.506
   65        0.264   0.342   7.798   8.405
   66        0.304   0.436   7.775   8.515
   67        0.267   0.351   7.799   8.417
--------------------------------------------------
tot          71.22  133.39  148.25  352.85
 
magnetization (x)
 
# of ion       s       p       d       tot
------------------------------------------
    1        0.002   0.003   0.001   0.007
    2        0.002   0.004   0.001   0.007
    3        0.001   0.001  -0.000   0.002
    4        0.003   0.005   0.001   0.009
    5        0.002   0.006   0.001   0.009
    6        0.003   0.006   0.002   0.010
    7        0.003   0.005   0.001   0.009
    8        0.013   0.014   2.666   2.693
    9        0.014   0.015   2.695   2.724
   10        0.002  -0.020   0.001  -0.018
   11        0.002  -0.019   0.001  -0.017
   12        0.001  -0.005   0.000  -0.003
   13        0.002   0.002   0.000   0.004
   14       -0.000  -0.007   0.000  -0.007
   15       -0.000  -0.008   0.000  -0.008
   16       -0.000  -0.007   0.000  -0.007
   17       -0.000  -0.012   0.000  -0.012
   18        0.008   0.094   0.001   0.103
   19        0.008   0.095   0.001   0.104
   20        0.003   0.013   0.000   0.017
   21        0.001  -0.014   0.000  -0.012
   22        0.002  -0.004   0.000  -0.002
   23        0.002  -0.011   0.000  -0.009
   24        0.002   0.005   0.001   0.007
   25        0.003   0.004   0.000   0.007
   26       -0.000  -0.009   0.000  -0.009
   27       -0.000  -0.010   0.000  -0.010
   28        0.002   0.000   0.000   0.002
   29        0.000  -0.029   0.000  -0.029
   30       -0.000  -0.007   0.000  -0.007
   31       -0.000  -0.012   0.000  -0.012
   32        0.000  -0.032   0.000  -0.031
   33        0.001  -0.016   0.000  -0.015
   34        0.002  -0.024   0.000  -0.021
   35        0.002  -0.026   0.000  -0.023
   36        0.007   0.090   0.000   0.097
   37        0.007   0.093   0.000   0.101
   38        0.003  -0.001   0.000   0.002
   39        0.001  -0.035   0.000  -0.034
   40        0.007   0.094   0.000   0.101
   41        0.007   0.099   0.000   0.106
   42        0.001  -0.014   0.000  -0.013
   43        0.001  -0.009   0.000  -0.007
   44        0.007   0.075   0.000   0.082
   45        0.007   0.076   0.000   0.083
   46        0.002  -0.000   0.000   0.002
   47        0.000  -0.032   0.000  -0.031
   48        0.007   0.084   0.000   0.091
   49        0.007   0.084   0.000   0.092
   50        0.000   0.000  -0.001  -0.000
   51        0.000   0.000  -0.004  -0.004
   52        0.005   0.005   0.139   0.148
   53        0.003   0.003  -0.010  -0.003
   54        0.010   0.004   0.903   0.917
   55        0.002   0.003   0.008   0.013
   56        0.001   0.001   0.059   0.061
   57       -0.001  -0.000  -0.013  -0.014
   58        0.001   0.001   0.043   0.044
   59       -0.000  -0.000  -0.012  -0.013
   60        0.001   0.001  -0.011  -0.008
   61        0.005   0.002   0.853   0.860
   62        0.001   0.002   0.006   0.010
   63        0.006   0.002   0.873   0.882
   64       -0.000  -0.000  -0.007  -0.007
   65        0.004   0.001   0.851   0.856
   66       -0.001  -0.000  -0.014  -0.015
   67        0.004   0.001   0.823   0.828
--------------------------------------------------
tot           0.19    0.63    9.86   10.69
 

 total amount of memory used by VASP MPI-rank0   363835. kBytes
=======================================================================

   base      :      30000. kBytes
   nonlr-proj:      30860. kBytes
   fftplans  :       5952. kBytes
   grid      :      56632. kBytes
   one-center:       2083. kBytes
   wavefun   :     238308. kBytes
 
  
  
 General timing and accounting informations for this job:
 ========================================================
  
                  Total CPU time used (sec):     5176.917
                            User time (sec):     5152.031
                          System time (sec):       24.886
                         Elapsed time (sec):     5194.622
  
                   Maximum memory used (kb):      588192.
                   Average memory used (kb):           0.
  
                          Minor page faults:      1705227
                          Major page faults:           57
                 Voluntary context switches:          889
