 vasp.5.4.4.18Apr17-6-g9f103f2a35 (build May 12 2020 04:58:55) complex          
  
 MD_VERSION_INFO: Compiled 2020-05-12T11:58:55-UTC in devlin.sd.materialsdesign.
 com:/home/medea2/data/build/wwolf/vasp-gpu5.4.4/13047/x86_64/src/src/build/std 
 from svn 13047
 
 This VASP executable licensed from Materials Design, Inc.
 
 executed on                        Lin64 date 2023.03.16  11:36:02
 running on   16 total cores
 distrk:  each k-point on   16 cores,    1 groups
 distr:  one band on NCORES_PER_BAND=   1 cores,   16 groups


--------------------------------------------------------------------------------------------------------


 INCAR:
 POTCAR:    PAW_PBE Li_sv 10Sep2004               
 POTCAR:    PAW_PBE Ni 02Aug2007                  
 POTCAR:    PAW_PBE O 08Apr2002                   

 ----------------------------------------------------------------------------- 
|                                                                             |
|           W    W    AA    RRRRR   N    N  II  N    N   GGGG   !!!           |
|           W    W   A  A   R    R  NN   N  II  NN   N  G    G  !!!           |
|           W    W  A    A  R    R  N N  N  II  N N  N  G       !!!           |
|           W WW W  AAAAAA  RRRRR   N  N N  II  N  N N  G  GGG   !            |
|           WW  WW  A    A  R   R   N   NN  II  N   NN  G    G                |
|           W    W  A    A  R    R  N    N  II  N    N   GGGG   !!!           |
|                                                                             |
|      For optimal performance we recommend to set                            |
|        NCORE= 4 - approx SQRT( number of cores)                             |
|      NCORE specifies how many cores store one orbital (NPAR=cpu/NCORE).     |
|      This setting can  greatly improve the performance of VASP for DFT.     |
|      The default,   NCORE=1            might be grossly inefficient         |
|      on modern multi-core architectures or massively parallel machines.     |
|      Do your own testing !!!!                                               |
|      Unfortunately you need to use the default for GW and RPA calculations. |
|      (for HF NCORE is supported but not extensively tested yet)             |
|                                                                             |
 ----------------------------------------------------------------------------- 

 POTCAR:    PAW_PBE Li_sv 10Sep2004               
  local pseudopotential read in
  atomic valenz-charges read in
  non local Contribution for L=           0  read in
    real space projection operators read in
  non local Contribution for L=           0  read in
    real space projection operators read in
  non local Contribution for L=           1  read in
    real space projection operators read in
    PAW grid and wavefunctions read in
 
   number of l-projection  operators is LMAX  =           3
   number of lm-projection operators is LMMAX =           5
 
 POTCAR:    PAW_PBE Ni 02Aug2007                  
  local pseudopotential read in
  partial core-charges read in
  partial kinetic energy density read in
  atomic valenz-charges read in
  non local Contribution for L=           2  read in
    real space projection operators read in
  non local Contribution for L=           2  read in
    real space projection operators read in
  non local Contribution for L=           0  read in
    real space projection operators read in
  non local Contribution for L=           0  read in
    real space projection operators read in
  non local Contribution for L=           1  read in
    real space projection operators read in
  non local Contribution for L=           1  read in
    real space projection operators read in
    PAW grid and wavefunctions read in
 
   number of l-projection  operators is LMAX  =           6
   number of lm-projection operators is LMMAX =          18
 
 POTCAR:    PAW_PBE O 08Apr2002                   
  local pseudopotential read in
  partial core-charges read in
  partial kinetic energy density read in
  kinetic energy density of atom read in
  atomic valenz-charges read in
  non local Contribution for L=           0  read in
    real space projection operators read in
  non local Contribution for L=           0  read in
    real space projection operators read in
  non local Contribution for L=           1  read in
    real space projection operators read in
  non local Contribution for L=           1  read in
    real space projection operators read in
    PAW grid and wavefunctions read in
 
   number of l-projection  operators is LMAX  =           4
   number of lm-projection operators is LMMAX =           8
 
 Optimization of the real space projectors (new method)

 maximal supplied QI-value         = 22.11
 optimisation between [QCUT,QGAM] = [ 11.28, 22.77] = [ 35.61,145.23] Ry 
 Optimized for a Real-space Cutoff    1.10 Angstroem

   l    n(q)    QCUT    max X(q) W(low)/X(q) W(high)/X(q)  e(spline) 
   0      7    11.276    10.506    0.54E-04    0.58E-04    0.16E-07
   0      7    11.276     8.367    0.11E-03    0.14E-03    0.35E-07
   1      7    11.276     8.983    0.23E-03    0.43E-03    0.86E-07
 Optimization of the real space projectors (new method)

 maximal supplied QI-value         = 16.25
 optimisation between [QCUT,QGAM] = [ 11.38, 22.75] = [ 36.24,144.96] Ry 
 Optimized for a Real-space Cutoff    1.47 Angstroem

   l    n(q)    QCUT    max X(q) W(low)/X(q) W(high)/X(q)  e(spline) 
   2      9    11.376    60.317    0.17E-03    0.16E-04    0.16E-06
   2      9    11.376    55.921    0.17E-03    0.16E-04    0.17E-06
   0     10    11.376    51.690    0.45E-04    0.60E-04    0.21E-06
   0     10    11.376    30.015    0.37E-04    0.55E-04    0.19E-06
   1     10    11.376    18.849    0.83E-04    0.11E-03    0.92E-07
   1     10    11.376    14.624    0.69E-04    0.92E-04    0.82E-07
 Optimization of the real space projectors (new method)

 maximal supplied QI-value         = 24.76
 optimisation between [QCUT,QGAM] = [ 11.39, 22.77] = [ 36.31,145.25] Ry 
 Optimized for a Real-space Cutoff    1.10 Angstroem

   l    n(q)    QCUT    max X(q) W(low)/X(q) W(high)/X(q)  e(spline) 
   0      7    11.387    20.381    0.22E-03    0.48E-03    0.18E-06
   0      7    11.387    15.268    0.22E-03    0.52E-03    0.19E-06
   1      7    11.387     5.964    0.22E-03    0.73E-03    0.24E-06
   1      7    11.387     5.382    0.19E-03    0.60E-03    0.21E-06

 ----------------------------------------------------------------------------- 
|                                                                             |
|  ADVICE TO THIS USER RUNNING 'VASP/VAMP'   (HEAR YOUR MASTER'S VOICE ...):  |
|                                                                             |
|      You enforced a specific xc-type in the INCAR file,                     |
|      a different type was found on the POTCAR file                          |
|          I HOPE YOU KNOW, WHAT YOU ARE  DOING                               |
|                                                                             |
 ----------------------------------------------------------------------------- 

  PAW_PBE Li_sv 10Sep2004               :
 energy of atom  1       EATOM= -202.7858
 kinetic energy error for atom=    0.0143 (will be added to EATOM!!)
  PAW_PBE Ni 02Aug2007                  :
 energy of atom  2       EATOM=-1077.6739
 kinetic energy error for atom=    0.0030 (will be added to EATOM!!)
  PAW_PBE O 08Apr2002                   :
 energy of atom  3       EATOM= -432.3788
 kinetic energy error for atom=    0.0224 (will be added to EATOM!!)
 
 
 POSCAR: ce36                                    
  positions in direct lattice
  No initial velocities read in
 exchange correlation table for  LEXCH =       14
   RHO(1)=    0.500       N(1)  =     2000
   RHO(2)=  100.500       N(2)  =     4000
 


--------------------------------------------------------------------------------------------------------


 ion  position               nearest neighbor table
   1  0.000  0.000  0.000-  12 2.12   9 2.12  10 2.13   7 2.13   8 2.14  13 2.14
   2  0.251  0.509  0.378-  11 1.86   6 1.87   8 1.87   9 1.88  12 1.89  10 1.91   4 2.79   3 2.79
                             5 2.80   3 2.80   5 2.80   4 2.81
   3  0.749  0.491  0.622-   6 1.86  11 1.87  13 1.87  12 1.88   9 1.89   7 1.91   5 2.79   2 2.79
                             4 2.80   2 2.80   4 2.80   5 2.81
   4  0.250  0.502  0.875-  12 1.86   6 1.87   8 1.87  10 1.87   7 1.87  13 1.90   2 2.79   3 2.80
                             3 2.80   5 2.80   5 2.81   2 2.81
   5  0.750  0.498  0.125-   9 1.86  11 1.87  13 1.87   7 1.87  10 1.87   8 1.90   3 2.79   2 2.80
                             2 2.80   4 2.80   4 2.81   3 2.81
   6  0.380  0.305  0.574-   3 1.86   4 1.87   2 1.87
   7  0.887  0.296  0.830-   5 1.87   4 1.87   3 1.91   1 2.13
   8  0.375  0.304  0.077-   4 1.87   2 1.87   5 1.90   1 2.14
   9  0.889  0.299  0.318-   5 1.86   2 1.88   3 1.89   1 2.12
  10  0.113  0.704  0.170-   4 1.87   5 1.87   2 1.91   1 2.13
  11  0.620  0.695  0.426-   2 1.86   5 1.87   3 1.87
  12  0.111  0.701  0.682-   4 1.86   3 1.88   2 1.89   1 2.12
  13  0.625  0.696  0.923-   5 1.87   3 1.87   4 1.90   1 2.14
 
  LATTYP: Found a triclinic cell.
 ALAT       =    10.9089631501
 B/A-ratio  =     0.4446747159
 C/A-ratio  =     0.5127283718
 COS(alpha) =     0.0001632800
 COS(beta)  =     0.3824082341
 COS(gamma) =     0.8128580478
  
  Lattice vectors:
  
 A1 = (  -8.8674384900,  -3.4091298500,  -5.3620747200)
 A2 = (  -4.8509400900,   0.0000000000,   0.0000000000)
 A3 = (  -0.0009132800,   1.5917127000,  -5.3620747200)


Analysis of symmetry for initial positions (statically):
=====================================================================
 Subroutine PRICEL returns:
 Original cell was already a primitive cell.
 

 Routine SETGRP: Setting up the symmetry group for a 
 triclinic supercell.


 Subroutine GETGRP returns: Found  2 space group operations
 (whereof  2 operations were pure point group operations)
 out of a pool of  2 trial point group operations.


The static configuration has the point symmetry S_2 .


Analysis of symmetry for dynamics (positions and initial velocities):
=====================================================================
 Subroutine PRICEL returns:
 Original cell was already a primitive cell.
 

 Routine SETGRP: Setting up the symmetry group for a 
 triclinic supercell.


 Subroutine GETGRP returns: Found  2 space group operations
 (whereof  2 operations were pure point group operations)
 out of a pool of  2 trial point group operations.


The dynamic configuration has the point symmetry S_2 .


Analysis of structural, dynamic, and magnetic symmetry:
=====================================================================
 Subroutine PRICEL returns:
 Original cell was already a primitive cell.
 

 Routine SETGRP: Setting up the symmetry group for a 
 triclinic supercell.


 Subroutine GETGRP returns: Found  2 space group operations
 (whereof  2 operations were pure point group operations)
 out of a pool of  2 trial point group operations.


The magnetic configuration has the point symmetry S_2 .


 Subroutine INISYM returns: Found  2 space group operations
 (whereof  2 operations are pure point group operations),
 and found     1 'primitive' translations

 
 
 KPOINTS: Automatic mesh                          

Automatic generation of k-mesh.
Space group operators:
 irot       det(A)        alpha          n_x          n_y          n_z        tau_x        tau_y        tau_z
    1     1.000000     0.000000     1.000000     0.000000     0.000000     0.000000     0.000000     0.000000
    2    -1.000000     0.000000     1.000000     0.000000     0.000000     0.000000     0.000000     0.000000
 
 Subroutine IBZKPT returns following result:
 ===========================================
 
 Found     92 irreducible k-points:
 
 Following reciprocal coordinates:
            Coordinates               Weight
  0.000000  0.000000  0.000000      1.000000
  0.166667 -0.000000 -0.000000      2.000000
  0.333333 -0.000000  0.000000      2.000000
  0.500000 -0.000000  0.000000      1.000000
  0.000000  0.166667 -0.000000      2.000000
  0.166667  0.166667 -0.000000      2.000000
  0.333333  0.166667 -0.000000      2.000000
  0.500000  0.166667  0.000000      2.000000
 -0.333333  0.166667 -0.000000      2.000000
 -0.166667  0.166667 -0.000000      2.000000
  0.000000  0.333333  0.000000      2.000000
  0.166667  0.333333 -0.000000      2.000000
  0.333333  0.333333 -0.000000      2.000000
  0.500000  0.333333  0.000000      2.000000
 -0.333333  0.333333 -0.000000      2.000000
 -0.166667  0.333333 -0.000000      2.000000
  0.000000  0.500000 -0.000000      1.000000
  0.166667  0.500000  0.000000      2.000000
  0.333333  0.500000 -0.000000      2.000000
  0.500000  0.500000  0.000000      1.000000
  0.000000  0.000000  0.200000      2.000000
  0.166667 -0.000000  0.200000      2.000000
  0.333333 -0.000000  0.200000      2.000000
  0.500000 -0.000000  0.200000      2.000000
 -0.333333  0.000000  0.200000      2.000000
 -0.166667  0.000000  0.200000      2.000000
  0.000000  0.166667  0.200000      2.000000
  0.166667  0.166667  0.200000      2.000000
  0.333333  0.166667  0.200000      2.000000
  0.500000  0.166667  0.200000      2.000000
 -0.333333  0.166667  0.200000      2.000000
 -0.166667  0.166667  0.200000      2.000000
  0.000000  0.333333  0.200000      2.000000
  0.166667  0.333333  0.200000      2.000000
  0.333333  0.333333  0.200000      2.000000
  0.500000  0.333333  0.200000      2.000000
 -0.333333  0.333333  0.200000      2.000000
 -0.166667  0.333333  0.200000      2.000000
  0.000000  0.500000  0.200000      2.000000
  0.166667  0.500000  0.200000      2.000000
  0.333333  0.500000  0.200000      2.000000
  0.500000  0.500000  0.200000      2.000000
 -0.333333  0.500000  0.200000      2.000000
 -0.166667  0.500000  0.200000      2.000000
  0.000000 -0.333333  0.200000      2.000000
  0.166667 -0.333333  0.200000      2.000000
  0.333333 -0.333333  0.200000      2.000000
  0.500000 -0.333333  0.200000      2.000000
 -0.333333 -0.333333  0.200000      2.000000
 -0.166667 -0.333333  0.200000      2.000000
  0.000000 -0.166667  0.200000      2.000000
  0.166667 -0.166667  0.200000      2.000000
  0.333333 -0.166667  0.200000      2.000000
  0.500000 -0.166667  0.200000      2.000000
 -0.333333 -0.166667  0.200000      2.000000
 -0.166667 -0.166667  0.200000      2.000000
  0.000000  0.000000  0.400000      2.000000
  0.166667 -0.000000  0.400000      2.000000
  0.333333 -0.000000  0.400000      2.000000
  0.500000 -0.000000  0.400000      2.000000
 -0.333333  0.000000  0.400000      2.000000
 -0.166667  0.000000  0.400000      2.000000
  0.000000  0.166667  0.400000      2.000000
  0.166667  0.166667  0.400000      2.000000
  0.333333  0.166667  0.400000      2.000000
  0.500000  0.166667  0.400000      2.000000
 -0.333333  0.166667  0.400000      2.000000
 -0.166667  0.166667  0.400000      2.000000
  0.000000  0.333333  0.400000      2.000000
  0.166667  0.333333  0.400000      2.000000
  0.333333  0.333333  0.400000      2.000000
  0.500000  0.333333  0.400000      2.000000
 -0.333333  0.333333  0.400000      2.000000
 -0.166667  0.333333  0.400000      2.000000
  0.000000  0.500000  0.400000      2.000000
  0.166667  0.500000  0.400000      2.000000
  0.333333  0.500000  0.400000      2.000000
  0.500000  0.500000  0.400000      2.000000
 -0.333333  0.500000  0.400000      2.000000
 -0.166667  0.500000  0.400000      2.000000
  0.000000 -0.333333  0.400000      2.000000
  0.166667 -0.333333  0.400000      2.000000
  0.333333 -0.333333  0.400000      2.000000
  0.500000 -0.333333  0.400000      2.000000
 -0.333333 -0.333333  0.400000      2.000000
 -0.166667 -0.333333  0.400000      2.000000
  0.000000 -0.166667  0.400000      2.000000
  0.166667 -0.166667  0.400000      2.000000
  0.333333 -0.166667  0.400000      2.000000
  0.500000 -0.166667  0.400000      2.000000
 -0.333333 -0.166667  0.400000      2.000000
 -0.166667 -0.166667  0.400000      2.000000
 
 Following cartesian coordinates:
            Coordinates               Weight
  0.000000  0.000000  0.000000      1.000000
  0.034358  0.005739  0.001698      2.000000
  0.068715  0.011478  0.003396      2.000000
  0.103073  0.017218  0.005093      1.000000
  0.000000  0.033328  0.009893      2.000000
  0.034358  0.039067  0.011591      2.000000
  0.068715  0.044806  0.013289      2.000000
  0.103073  0.050545  0.014987      2.000000
 -0.068715  0.021849  0.006498      2.000000
 -0.034358  0.027589  0.008195      2.000000
  0.000000  0.066655  0.019786      2.000000
  0.034358  0.072395  0.021484      2.000000
  0.068715  0.078134  0.023182      2.000000
  0.103073  0.083873  0.024880      2.000000
 -0.068715  0.055177  0.016391      2.000000
 -0.034358  0.060916  0.018089      2.000000
  0.000000  0.099983  0.029680      1.000000
  0.034358  0.105722  0.031377      2.000000
  0.068715  0.111462  0.033075      2.000000
  0.103073  0.117201  0.034773      1.000000
  0.000000  0.000000  0.037299      2.000000
  0.034358  0.005739  0.038997      2.000000
  0.068715  0.011478  0.040695      2.000000
  0.103073  0.017218  0.042392      2.000000
 -0.068715 -0.011478  0.033903      2.000000
 -0.034358 -0.005739  0.035601      2.000000
  0.000000  0.033328  0.047192      2.000000
  0.034358  0.039067  0.048890      2.000000
  0.068715  0.044806  0.050588      2.000000
  0.103073  0.050545  0.052286      2.000000
 -0.068715  0.021849  0.043797      2.000000
 -0.034358  0.027589  0.045494      2.000000
  0.000000  0.066655  0.057085      2.000000
  0.034358  0.072395  0.058783      2.000000
  0.068715  0.078134  0.060481      2.000000
  0.103073  0.083873  0.062179      2.000000
 -0.068715  0.055177  0.053690      2.000000
 -0.034358  0.060916  0.055388      2.000000
  0.000000  0.099983  0.066979      2.000000
  0.034358  0.105722  0.068676      2.000000
  0.068715  0.111462  0.070374      2.000000
  0.103073  0.117201  0.072072      2.000000
 -0.068715  0.088505  0.063583      2.000000
 -0.034358  0.094244  0.065281      2.000000
  0.000000 -0.066655  0.017513      2.000000
  0.034358 -0.060916  0.019210      2.000000
  0.068715 -0.055177  0.020908      2.000000
  0.103073 -0.049438  0.022606      2.000000
 -0.068715 -0.078134  0.014117      2.000000
 -0.034358 -0.072395  0.015815      2.000000
  0.000000 -0.033328  0.027406      2.000000
  0.034358 -0.027589  0.029104      2.000000
  0.068715 -0.021849  0.030801      2.000000
  0.103073 -0.016110  0.032499      2.000000
 -0.068715 -0.044806  0.024010      2.000000
 -0.034358 -0.039067  0.025708      2.000000
  0.000000  0.000000  0.074598      2.000000
  0.034358  0.005739  0.076296      2.000000
  0.068715  0.011478  0.077994      2.000000
  0.103073  0.017218  0.079691      2.000000
 -0.068715 -0.011478  0.071202      2.000000
 -0.034358 -0.005739  0.072900      2.000000
  0.000000  0.033328  0.084491      2.000000
  0.034358  0.039067  0.086189      2.000000
  0.068715  0.044806  0.087887      2.000000
  0.103073  0.050545  0.089585      2.000000
 -0.068715  0.021849  0.081096      2.000000
 -0.034358  0.027589  0.082793      2.000000
  0.000000  0.066655  0.094384      2.000000
  0.034358  0.072395  0.096082      2.000000
  0.068715  0.078134  0.097780      2.000000
  0.103073  0.083873  0.099478      2.000000
 -0.068715  0.055177  0.090989      2.000000
 -0.034358  0.060916  0.092687      2.000000
  0.000000  0.099983  0.104278      2.000000
  0.034358  0.105722  0.105975      2.000000
  0.068715  0.111462  0.107673      2.000000
  0.103073  0.117201  0.109371      2.000000
 -0.068715  0.088505  0.100882      2.000000
 -0.034358  0.094244  0.102580      2.000000
  0.000000 -0.066655  0.054812      2.000000
  0.034358 -0.060916  0.056509      2.000000
  0.068715 -0.055177  0.058207      2.000000
  0.103073 -0.049438  0.059905      2.000000
 -0.068715 -0.078134  0.051416      2.000000
 -0.034358 -0.072395  0.053114      2.000000
  0.000000 -0.033328  0.064705      2.000000
  0.034358 -0.027589  0.066403      2.000000
  0.068715 -0.021849  0.068100      2.000000
  0.103073 -0.016110  0.069798      2.000000
 -0.068715 -0.044806  0.061309      2.000000
 -0.034358 -0.039067  0.063007      2.000000
 


--------------------------------------------------------------------------------------------------------




 Dimension of arrays:
   k-points           NKPTS =     92   k-points in BZ     NKDIM =     92   number of bands    NBANDS=     64
   number of dos      NEDOS =    301   number of ions     NIONS =     13
   non local maximal  LDIM  =      6   non local SUM 2l+1 LMDIM =     18
   total plane-waves  NPLWV =  60480
   max r-space proj   IRMAX =   6292   max aug-charges    IRDMAX=  15269
   dimension x,y,z NGX =    36 NGY =   40 NGZ =   42
   dimension x,y,z NGXF=    72 NGYF=   80 NGZF=   84
   support grid    NGXF=    72 NGYF=   80 NGZF=   84
   ions per type =               1   4   8
   NGX,Y,Z   is equivalent  to a cutoff of  12.34, 13.12, 12.48 a.u.
   NGXF,Y,Z  is equivalent  to a cutoff of  24.68, 26.23, 24.97 a.u.

 SYSTEM =  unknown system                          
 POSCAR =  ce36                                    

 Startparameter for this run:
   NWRITE =      1    write-flag & timer
   PREC   = accura    normal or accurate (medium, high low for compatibility)
   ISTART =      0    job   : 0-new  1-cont  2-samecut
   ICHARG =      2    charge: 1-file 2-atom 10-const
   ISPIN  =      2    spin polarized calculation?
   LNONCOLLINEAR =      F non collinear calculations
   LSORBIT =      F    spin-orbit coupling
   INIWAV =      1    electr: 0-lowe 1-rand  2-diag
   LASPH  =      F    aspherical Exc in radial PAW
   METAGGA=      F    non-selfconsistent MetaGGA calc.

 Electronic Relaxation 1
   ENCUT  =  500.0 eV  36.75 Ry    6.06 a.u.   8.84  9.24 10.20*2*pi/ulx,y,z
   ENINI  =  500.0     initial cutoff
   ENAUG  =  628.9 eV  augmentation charge cutoff
   NELM   =     80;   NELMIN=  2; NELMDL= -5     # of ELM steps 
   EDIFF  = 0.1E-04   stopping-criterion for ELM
   LREAL  =      T    real-space projection
   NLSPLINE    = F    spline interpolate recip. space projectors
   LCOMPAT=      F    compatible to vasp.4.4
   GGA_COMPAT  = T    GGA compatible to vasp.4.4-vasp.4.6
   LMAXPAW     = -100 max onsite density
   LMAXMIX     =    2 max onsite mixed and CHGCAR
   VOSKOWN=      1    Vosko Wilk Nusair interpolation
   ROPT   =   -0.00025  -0.00025  -0.00025
 Ionic relaxation
   EDIFFG = 0.1E-03   stopping-criterion for IOM
   NSW    =      0    number of steps for IOM
   NBLOCK =      1;   KBLOCK =      1    inner block; outer block 
   IBRION =     -1    ionic relax: 0-MD 1-quasi-New 2-CG
   NFREE  =      0    steps in history (QN), initial steepest desc. (CG)
   ISIF   =      2    stress and relaxation
   IWAVPR =     10    prediction:  0-non 1-charg 2-wave 3-comb
   ISYM   =      2    0-nonsym 1-usesym 2-fastsym
   LCORR  =      T    Harris-Foulkes like correction to forces

   POTIM  = 0.5000    time-step for ionic-motion
   TEIN   =    0.0    initial temperature
   TEBEG  =    0.0;   TEEND  =   0.0 temperature during run
   SMASS  =  -3.00    Nose mass-parameter (am)
   estimated Nose-frequenzy (Omega)   =  0.10E-29 period in steps =****** mass=  -0.538E-27a.u.
   SCALEE = 1.0000    scale energy and forces
   NPACO  =    256;   APACO  = 16.0  distance and # of slots for P.C.
   PSTRESS=    0.0 pullay stress

  Mass of Ions in am
   POMASS =   7.01 58.69 16.00
  Ionic Valenz
   ZVAL   =   3.00 10.00  6.00
  Atomic Wigner-Seitz radii
   RWIGS  =   1.23  1.15  0.73
  virtual crystal weights 
   VCA    =   1.00  1.00  1.00
   NELECT =      91.0000    total number of electrons
   NUPDOWN=      -1.0000    fix difference up-down

 DOS related values:
   EMIN   =  10.00;   EMAX   =-10.00  energy-range for DOS
   EFERMI =   0.00
   ISMEAR =     0;   SIGMA  =   0.05  broadening in eV -4-tet -1-fermi 0-gaus

 Electronic relaxation 2 (details)
   IALGO  =     38    algorithm
   LDIAG  =      T    sub-space diagonalisation (order eigenvalues)
   LSUBROT=      F    optimize rotation matrix (better conditioning)
   TURBO    =      0    0=normal 1=particle mesh
   IRESTART =      0    0=no restart 2=restart with 2 vectors
   NREBOOT  =      0    no. of reboots
   NMIN     =      0    reboot dimension
   EREF     =   0.00    reference energy to select bands
   IMIX   =      4    mixing-type and parameters
     AMIX     =   0.40;   BMIX     =  1.00
     AMIX_MAG =   1.60;   BMIX_MAG =  1.00
     AMIN     =   0.10
     WC   =   100.;   INIMIX=   1;  MIXPRE=   1;  MAXMIX= -45

 Intra band minimization:
   WEIMIN = 0.0000     energy-eigenvalue tresh-hold
   EBREAK =  0.39E-07  absolut break condition
   DEPER  =   0.30     relativ break condition  

   TIME   =   0.40     timestep for ELM

  volume/ion in A,a.u.               =      10.01        67.52
  Fermi-wavevector in a.u.,A,eV,Ry     =   1.453298  2.746335 28.736522  2.112075
  Thomas-Fermi vector in A             =   2.570581
 
 Write flags
   LWAVE        =      F    write WAVECAR
   LDOWNSAMPLE  =      F    k-point downsampling of WAVECAR
   LCHARG       =      T    write CHGCAR
   LVTOT        =      F    write LOCPOT, total local potential
   LVHAR        =      F    write LOCPOT, Hartree potential only
   LELF         =      F    write electronic localiz. function (ELF)
   LORBIT       =      0    0 simple, 1 ext, 2 COOP (PROOUT), +10 PAW based schemes


 Dipole corrections
   LMONO  =      F    monopole corrections only (constant potential shift)
   LDIPOL =      F    correct potential (dipole corrections)
   IDIPOL =      0    1-x, 2-y, 3-z, 4-all directions 
   EPSILON=  1.0000000 bulk dielectric constant

 Exchange correlation treatment:
   GGA     =    PS    GGA type
   LEXCH   =    14    internal setting for exchange type
   VOSKOWN=      1    Vosko Wilk Nusair interpolation
   LHFCALC =     F    Hartree Fock is set to
   LHFONE  =     F    Hartree Fock one center treatment
   AEXX    =    0.0000 exact exchange contribution

 Linear response parameters
   LEPSILON=     F    determine dielectric tensor
   LRPA    =     F    only Hartree local field effects (RPA)
   LNABLA  =     F    use nabla operator in PAW spheres
   LVEL    =     F    velocity operator in full k-point grid
   LINTERFAST=   F  fast interpolation
   KINTER  =     0    interpolate to denser k-point grid
   CSHIFT  =0.1000    complex shift for real part using Kramers Kronig
   OMEGAMAX=  -1.0    maximum frequency
   DEG_THRESHOLD= 0.2000000E-02 threshold for treating states as degnerate
   RTIME   =   -0.100 relaxation time in fs
  (WPLASMAI=    0.000 imaginary part of plasma frequency in eV, 0.658/RTIME)
   DFIELD  = 0.0000000 0.0000000 0.0000000 field for delta impulse in time
 
 Orbital magnetization related:
   ORBITALMAG=     F  switch on orbital magnetization
   LCHIMAG   =     F  perturbation theory with respect to B field
   DQ        =  0.001000  dq finite difference perturbation B field
   LLRAUG    =     F  two centre corrections for induced B field



--------------------------------------------------------------------------------------------------------


 Static calculation
 charge density and potential will be updated during run
 spin polarized calculation
 Variant of blocked Davidson
 Davidson routine will perform the subspace rotation
 perform sub-space diagonalisation
    after iterative eigenvector-optimisation
 modified Broyden-mixing scheme, WC =      100.0
 initial mixing is a Kerker type mixing with AMIX =  0.4000 and BMIX =      1.0000
 Hartree-type preconditioning will be used
 using additional bands           18
 real space projection scheme for non local part
 use partial core corrections
 calculate Harris-corrections to forces 
   (improved forces if not selfconsistent)
 use gradient corrections 
 use of overlap-Matrix (Vanderbilt PP)
 Gauss-broadening in eV      SIGMA  =   0.05


--------------------------------------------------------------------------------------------------------


  energy-cutoff  :      500.00
  volume of cell :      130.08
      direct lattice vectors                 reciprocal lattice vectors
     4.850940090  0.000000000  0.000000000     0.206145609  0.034435149  0.010186840
    -0.835354970  5.000842550  0.000000000     0.000000000  0.199966304  0.059359282
     0.000913280 -1.591712700  5.362074720     0.000000000  0.000000000  0.186494977

  length of vectors
     4.850940090  5.070132556  5.593334914     0.209250002  0.208590620  0.186494977


 
 k-points in units of 2pi/SCALE and weight: Automatic mesh                          
   0.00000000  0.00000000  0.00000000       0.006
   0.03435760  0.00573919  0.00169781       0.011
   0.06871520  0.01147838  0.00339561       0.011
   0.10307280  0.01721757  0.00509342       0.006
   0.00000000  0.03332772  0.00989321       0.011
   0.03435760  0.03906691  0.01159102       0.011
   0.06871520  0.04480610  0.01328883       0.011
   0.10307280  0.05054529  0.01498663       0.011
  -0.06871520  0.02184933  0.00649760       0.011
  -0.03435760  0.02758853  0.00819541       0.011
   0.00000000  0.06665543  0.01978643       0.011
   0.03435760  0.07239463  0.02148423       0.011
   0.06871520  0.07813382  0.02318204       0.011
   0.10307280  0.08387301  0.02487985       0.011
  -0.06871520  0.05517705  0.01639081       0.011
  -0.03435760  0.06091624  0.01808862       0.011
   0.00000000  0.09998315  0.02967964       0.006
   0.03435760  0.10572234  0.03137745       0.011
   0.06871520  0.11146153  0.03307525       0.011
   0.10307280  0.11720073  0.03477306       0.006
   0.00000000  0.00000000  0.03729900       0.011
   0.03435760  0.00573919  0.03899680       0.011
   0.06871520  0.01147838  0.04069461       0.011
   0.10307280  0.01721757  0.04239242       0.011
  -0.06871520 -0.01147838  0.03390338       0.011
  -0.03435760 -0.00573919  0.03560119       0.011
   0.00000000  0.03332772  0.04719221       0.011
   0.03435760  0.03906691  0.04889002       0.011
   0.06871520  0.04480610  0.05058782       0.011
   0.10307280  0.05054529  0.05228563       0.011
  -0.06871520  0.02184933  0.04379660       0.011
  -0.03435760  0.02758853  0.04549440       0.011
   0.00000000  0.06665543  0.05708542       0.011
   0.03435760  0.07239463  0.05878323       0.011
   0.06871520  0.07813382  0.06048104       0.011
   0.10307280  0.08387301  0.06217884       0.011
  -0.06871520  0.05517705  0.05368981       0.011
  -0.03435760  0.06091624  0.05538762       0.011
   0.00000000  0.09998315  0.06697864       0.011
   0.03435760  0.10572234  0.06867644       0.011
   0.06871520  0.11146153  0.07037425       0.011
   0.10307280  0.11720073  0.07207206       0.011
  -0.06871520  0.08850477  0.06358302       0.011
  -0.03435760  0.09424396  0.06528083       0.011
   0.00000000 -0.06665543  0.01751257       0.011
   0.03435760 -0.06091624  0.01921037       0.011
   0.06871520 -0.05517705  0.02090818       0.011
   0.10307280 -0.04943786  0.02260599       0.011
  -0.06871520 -0.07813382  0.01411695       0.011
  -0.03435760 -0.07239463  0.01581476       0.011
   0.00000000 -0.03332772  0.02740578       0.011
   0.03435760 -0.02758853  0.02910359       0.011
   0.06871520 -0.02184933  0.03080139       0.011
   0.10307280 -0.01611014  0.03249920       0.011
  -0.06871520 -0.04480610  0.02401017       0.011
  -0.03435760 -0.03906691  0.02570798       0.011
   0.00000000  0.00000000  0.07459799       0.011
   0.03435760  0.00573919  0.07629580       0.011
   0.06871520  0.01147838  0.07799360       0.011
   0.10307280  0.01721757  0.07969141       0.011
  -0.06871520 -0.01147838  0.07120238       0.011
  -0.03435760 -0.00573919  0.07290018       0.011
   0.00000000  0.03332772  0.08449120       0.011
   0.03435760  0.03906691  0.08618901       0.011
   0.06871520  0.04480610  0.08788682       0.011
   0.10307280  0.05054529  0.08958462       0.011
  -0.06871520  0.02184933  0.08109559       0.011
  -0.03435760  0.02758853  0.08279340       0.011
   0.00000000  0.06665543  0.09438442       0.011
   0.03435760  0.07239463  0.09608222       0.011
   0.06871520  0.07813382  0.09778003       0.011
   0.10307280  0.08387301  0.09947784       0.011
  -0.06871520  0.05517705  0.09098880       0.011
  -0.03435760  0.06091624  0.09268661       0.011
   0.00000000  0.09998315  0.10427763       0.011
   0.03435760  0.10572234  0.10597544       0.011
   0.06871520  0.11146153  0.10767324       0.011
   0.10307280  0.11720073  0.10937105       0.011
  -0.06871520  0.08850477  0.10088202       0.011
  -0.03435760  0.09424396  0.10257983       0.011
   0.00000000 -0.06665543  0.05481156       0.011
   0.03435760 -0.06091624  0.05650937       0.011
   0.06871520 -0.05517705  0.05820718       0.011
   0.10307280 -0.04943786  0.05990498       0.011
  -0.06871520 -0.07813382  0.05141595       0.011
  -0.03435760 -0.07239463  0.05311376       0.011
   0.00000000 -0.03332772  0.06470478       0.011
   0.03435760 -0.02758853  0.06640258       0.011
   0.06871520 -0.02184933  0.06810039       0.011
   0.10307280 -0.01611014  0.06979820       0.011
  -0.06871520 -0.04480610  0.06130916       0.011
  -0.03435760 -0.03906691  0.06300697       0.011
 
 k-points in reciprocal lattice and weights: Automatic mesh                          
   0.00000000  0.00000000  0.00000000       0.006
   0.16666667 -0.00000000 -0.00000000       0.011
   0.33333333 -0.00000000  0.00000000       0.011
   0.50000000 -0.00000000  0.00000000       0.006
   0.00000000  0.16666667 -0.00000000       0.011
   0.16666667  0.16666667 -0.00000000       0.011
   0.33333333  0.16666667 -0.00000000       0.011
   0.50000000  0.16666667  0.00000000       0.011
  -0.33333333  0.16666667 -0.00000000       0.011
  -0.16666667  0.16666667 -0.00000000       0.011
   0.00000000  0.33333333  0.00000000       0.011
   0.16666667  0.33333333 -0.00000000       0.011
   0.33333333  0.33333333 -0.00000000       0.011
   0.50000000  0.33333333  0.00000000       0.011
  -0.33333333  0.33333333 -0.00000000       0.011
  -0.16666667  0.33333333 -0.00000000       0.011
   0.00000000  0.50000000 -0.00000000       0.006
   0.16666667  0.50000000  0.00000000       0.011
   0.33333333  0.50000000 -0.00000000       0.011
   0.50000000  0.50000000  0.00000000       0.006
   0.00000000  0.00000000  0.20000000       0.011
   0.16666667 -0.00000000  0.20000000       0.011
   0.33333333 -0.00000000  0.20000000       0.011
   0.50000000 -0.00000000  0.20000000       0.011
  -0.33333333  0.00000000  0.20000000       0.011
  -0.16666667  0.00000000  0.20000000       0.011
   0.00000000  0.16666667  0.20000000       0.011
   0.16666667  0.16666667  0.20000000       0.011
   0.33333333  0.16666667  0.20000000       0.011
   0.50000000  0.16666667  0.20000000       0.011
  -0.33333333  0.16666667  0.20000000       0.011
  -0.16666667  0.16666667  0.20000000       0.011
   0.00000000  0.33333333  0.20000000       0.011
   0.16666667  0.33333333  0.20000000       0.011
   0.33333333  0.33333333  0.20000000       0.011
   0.50000000  0.33333333  0.20000000       0.011
  -0.33333333  0.33333333  0.20000000       0.011
  -0.16666667  0.33333333  0.20000000       0.011
   0.00000000  0.50000000  0.20000000       0.011
   0.16666667  0.50000000  0.20000000       0.011
   0.33333333  0.50000000  0.20000000       0.011
   0.50000000  0.50000000  0.20000000       0.011
  -0.33333333  0.50000000  0.20000000       0.011
  -0.16666667  0.50000000  0.20000000       0.011
   0.00000000 -0.33333333  0.20000000       0.011
   0.16666667 -0.33333333  0.20000000       0.011
   0.33333333 -0.33333333  0.20000000       0.011
   0.50000000 -0.33333333  0.20000000       0.011
  -0.33333333 -0.33333333  0.20000000       0.011
  -0.16666667 -0.33333333  0.20000000       0.011
   0.00000000 -0.16666667  0.20000000       0.011
   0.16666667 -0.16666667  0.20000000       0.011
   0.33333333 -0.16666667  0.20000000       0.011
   0.50000000 -0.16666667  0.20000000       0.011
  -0.33333333 -0.16666667  0.20000000       0.011
  -0.16666667 -0.16666667  0.20000000       0.011
   0.00000000  0.00000000  0.40000000       0.011
   0.16666667 -0.00000000  0.40000000       0.011
   0.33333333 -0.00000000  0.40000000       0.011
   0.50000000 -0.00000000  0.40000000       0.011
  -0.33333333  0.00000000  0.40000000       0.011
  -0.16666667  0.00000000  0.40000000       0.011
   0.00000000  0.16666667  0.40000000       0.011
   0.16666667  0.16666667  0.40000000       0.011
   0.33333333  0.16666667  0.40000000       0.011
   0.50000000  0.16666667  0.40000000       0.011
  -0.33333333  0.16666667  0.40000000       0.011
  -0.16666667  0.16666667  0.40000000       0.011
   0.00000000  0.33333333  0.40000000       0.011
   0.16666667  0.33333333  0.40000000       0.011
   0.33333333  0.33333333  0.40000000       0.011
   0.50000000  0.33333333  0.40000000       0.011
  -0.33333333  0.33333333  0.40000000       0.011
  -0.16666667  0.33333333  0.40000000       0.011
   0.00000000  0.50000000  0.40000000       0.011
   0.16666667  0.50000000  0.40000000       0.011
   0.33333333  0.50000000  0.40000000       0.011
   0.50000000  0.50000000  0.40000000       0.011
  -0.33333333  0.50000000  0.40000000       0.011
  -0.16666667  0.50000000  0.40000000       0.011
   0.00000000 -0.33333333  0.40000000       0.011
   0.16666667 -0.33333333  0.40000000       0.011
   0.33333333 -0.33333333  0.40000000       0.011
   0.50000000 -0.33333333  0.40000000       0.011
  -0.33333333 -0.33333333  0.40000000       0.011
  -0.16666667 -0.33333333  0.40000000       0.011
   0.00000000 -0.16666667  0.40000000       0.011
   0.16666667 -0.16666667  0.40000000       0.011
   0.33333333 -0.16666667  0.40000000       0.011
   0.50000000 -0.16666667  0.40000000       0.011
  -0.33333333 -0.16666667  0.40000000       0.011
  -0.16666667 -0.16666667  0.40000000       0.011
 
 position of ions in fractional coordinates (direct lattice) 
   0.00000000  0.00000000  0.00000000
   0.25124922  0.50920549  0.37821509
   0.74875078  0.49079451  0.62178491
   0.25033222  0.50195218  0.87456987
   0.74966778  0.49804782  0.12543013
   0.37958794  0.30529289  0.57383459
   0.88673164  0.29552725  0.82958855
   0.37525683  0.30380334  0.07664154
   0.88897184  0.29936313  0.31794647
   0.11326836  0.70447275  0.17041145
   0.62041206  0.69470711  0.42616541
   0.11102816  0.70063687  0.68205353
   0.62474317  0.69619666  0.92335846
 
 position of ions in cartesian coordinates  (Angst):
   0.00000000  0.00000000  0.00000000
   0.79377299  1.94444672  2.02801757
   3.22272541  1.46468313  3.33405715
   0.79583708  1.11811985  4.68950899
   3.22066132  2.29101000  0.67256573
   1.58685449  0.61334187  3.07694395
   4.05536955  0.15741862  4.44831579
   1.56663477  1.39728136  0.41095766
   4.06256503  0.99098844  1.70485273
  -0.03887115  3.25171123  0.91375893
   2.42964391  2.79578798  2.28513077
  -0.04606663  2.41814141  3.65722199
   2.44986363  2.01184849  4.95111706
 


--------------------------------------------------------------------------------------------------------


 k-point  1 :   0.0000 0.0000 0.0000  plane waves:    3331
 k-point  2 :   0.1667-0.0000-0.0000  plane waves:    3291
 k-point  3 :   0.3333-0.0000 0.0000  plane waves:    3311
 k-point  4 :   0.5000-0.0000 0.0000  plane waves:    3306
 k-point  5 :   0.0000 0.1667-0.0000  plane waves:    3306
 k-point  6 :   0.1667 0.1667-0.0000  plane waves:    3295
 k-point  7 :   0.3333 0.1667-0.0000  plane waves:    3318
 k-point  8 :   0.5000 0.1667 0.0000  plane waves:    3295
 k-point  9 :  -0.3333 0.1667-0.0000  plane waves:    3296
 k-point 10 :  -0.1667 0.1667-0.0000  plane waves:    3305
 k-point 11 :   0.0000 0.3333 0.0000  plane waves:    3310
 k-point 12 :   0.1667 0.3333-0.0000  plane waves:    3296
 k-point 13 :   0.3333 0.3333-0.0000  plane waves:    3295
 k-point 14 :   0.5000 0.3333 0.0000  plane waves:    3289
 k-point 15 :  -0.3333 0.3333-0.0000  plane waves:    3304
 k-point 16 :  -0.1667 0.3333-0.0000  plane waves:    3292
 k-point 17 :   0.0000 0.5000-0.0000  plane waves:    3292
 k-point 18 :   0.1667 0.5000 0.0000  plane waves:    3302
 k-point 19 :   0.3333 0.5000-0.0000  plane waves:    3301
 k-point 20 :   0.5000 0.5000 0.0000  plane waves:    3308
 k-point 21 :   0.0000 0.0000 0.2000  plane waves:    3310
 k-point 22 :   0.1667-0.0000 0.2000  plane waves:    3301
 k-point 23 :   0.3333-0.0000 0.2000  plane waves:    3300
 k-point 24 :   0.5000-0.0000 0.2000  plane waves:    3300
 k-point 25 :  -0.3333 0.0000 0.2000  plane waves:    3306
 k-point 26 :  -0.1667 0.0000 0.2000  plane waves:    3295
 k-point 27 :   0.0000 0.1667 0.2000  plane waves:    3304
 k-point 28 :   0.1667 0.1667 0.2000  plane waves:    3295
 k-point 29 :   0.3333 0.1667 0.2000  plane waves:    3303
 k-point 30 :   0.5000 0.1667 0.2000  plane waves:    3311
 k-point 31 :  -0.3333 0.1667 0.2000  plane waves:    3306
 k-point 32 :  -0.1667 0.1667 0.2000  plane waves:    3294
 k-point 33 :   0.0000 0.3333 0.2000  plane waves:    3298
 k-point 34 :   0.1667 0.3333 0.2000  plane waves:    3291
 k-point 35 :   0.3333 0.3333 0.2000  plane waves:    3296
 k-point 36 :   0.5000 0.3333 0.2000  plane waves:    3301
 k-point 37 :  -0.3333 0.3333 0.2000  plane waves:    3302
 k-point 38 :  -0.1667 0.3333 0.2000  plane waves:    3300
 k-point 39 :   0.0000 0.5000 0.2000  plane waves:    3303
 k-point 40 :   0.1667 0.5000 0.2000  plane waves:    3292
 k-point 41 :   0.3333 0.5000 0.2000  plane waves:    3310
 k-point 42 :   0.5000 0.5000 0.2000  plane waves:    3313
 k-point 43 :  -0.3333 0.5000 0.2000  plane waves:    3302
 k-point 44 :  -0.1667 0.5000 0.2000  plane waves:    3292
 k-point 45 :   0.0000-0.3333 0.2000  plane waves:    3299
 k-point 46 :   0.1667-0.3333 0.2000  plane waves:    3296
 k-point 47 :   0.3333-0.3333 0.2000  plane waves:    3297
 k-point 48 :   0.5000-0.3333 0.2000  plane waves:    3294
 k-point 49 :  -0.3333-0.3333 0.2000  plane waves:    3293
 k-point 50 :  -0.1667-0.3333 0.2000  plane waves:    3300
 k-point 51 :   0.0000-0.1667 0.2000  plane waves:    3302
 k-point 52 :   0.1667-0.1667 0.2000  plane waves:    3294
 k-point 53 :   0.3333-0.1667 0.2000  plane waves:    3298
 k-point 54 :   0.5000-0.1667 0.2000  plane waves:    3293
 k-point 55 :  -0.3333-0.1667 0.2000  plane waves:    3299
 k-point 56 :  -0.1667-0.1667 0.2000  plane waves:    3289
 k-point 57 :   0.0000 0.0000 0.4000  plane waves:    3290
 k-point 58 :   0.1667-0.0000 0.4000  plane waves:    3296
 k-point 59 :   0.3333-0.0000 0.4000  plane waves:    3299
 k-point 60 :   0.5000-0.0000 0.4000  plane waves:    3314
 k-point 61 :  -0.3333 0.0000 0.4000  plane waves:    3309
 k-point 62 :  -0.1667 0.0000 0.4000  plane waves:    3294
 k-point 63 :   0.0000 0.1667 0.4000  plane waves:    3283
 k-point 64 :   0.1667 0.1667 0.4000  plane waves:    3285
 k-point 65 :   0.3333 0.1667 0.4000  plane waves:    3306
 k-point 66 :   0.5000 0.1667 0.4000  plane waves:    3318
 k-point 67 :  -0.3333 0.1667 0.4000  plane waves:    3315
 k-point 68 :  -0.1667 0.1667 0.4000  plane waves:    3305
 k-point 69 :   0.0000 0.3333 0.4000  plane waves:    3292
 k-point 70 :   0.1667 0.3333 0.4000  plane waves:    3301
 k-point 71 :   0.3333 0.3333 0.4000  plane waves:    3312
 k-point 72 :   0.5000 0.3333 0.4000  plane waves:    3310
 k-point 73 :  -0.3333 0.3333 0.4000  plane waves:    3303
 k-point 74 :  -0.1667 0.3333 0.4000  plane waves:    3305
 k-point 75 :   0.0000 0.5000 0.4000  plane waves:    3299
 k-point 76 :   0.1667 0.5000 0.4000  plane waves:    3304
 k-point 77 :   0.3333 0.5000 0.4000  plane waves:    3307
 k-point 78 :   0.5000 0.5000 0.4000  plane waves:    3309
 k-point 79 :  -0.3333 0.5000 0.4000  plane waves:    3311
 k-point 80 :  -0.1667 0.5000 0.4000  plane waves:    3306
 k-point 81 :   0.0000-0.3333 0.4000  plane waves:    3301
 k-point 82 :   0.1667-0.3333 0.4000  plane waves:    3311
 k-point 83 :   0.3333-0.3333 0.4000  plane waves:    3319
 k-point 84 :   0.5000-0.3333 0.4000  plane waves:    3310
 k-point 85 :  -0.3333-0.3333 0.4000  plane waves:    3307
 k-point 86 :  -0.1667-0.3333 0.4000  plane waves:    3298
 k-point 87 :   0.0000-0.1667 0.4000  plane waves:    3301
 k-point 88 :   0.1667-0.1667 0.4000  plane waves:    3305
 k-point 89 :   0.3333-0.1667 0.4000  plane waves:    3310
 k-point 90 :   0.5000-0.1667 0.4000  plane waves:    3303
 k-point 91 :  -0.3333-0.1667 0.4000  plane waves:    3308
 k-point 92 :  -0.1667-0.1667 0.4000  plane waves:    3295

 maximum and minimum number of plane-waves per node :      3331     3283

 maximum number of plane-waves:      3331
 maximum index in each direction: 
   IXMAX=    9   IYMAX=    9   IZMAX=   10
   IXMIN=   -9   IYMIN=   -9   IZMIN=  -10

 The following grids will avoid any aliasing or wrap around errors in the Hartre
 e energy
  - symmetry arguments have not been applied
  - exchange correlation energies might require even more grid points
  - we recommend to set PREC=Normal or Accurate and rely on VASP defaults
 WARNING: aliasing errors must be expected set NGX to    40 to avoid them
 NGY is ok and might be reduce to    40
 NGZ is ok and might be reduce to    42

 serial   3D FFT for wavefunctions
 parallel 3D FFT for charge:
    minimum data exchange during FFTs selected (reduces bandwidth)


 total amount of memory used by VASP MPI-rank0    87505. kBytes
=======================================================================

   base      :      30000. kBytes
   nonlr-proj:       6739. kBytes
   fftplans  :       1390. kBytes
   grid      :       7898. kBytes
   one-center:        404. kBytes
   wavefun   :      41074. kBytes
 
     INWAV:  cpu time    0.0000: real time    0.0000
 Broyden mixing: mesh for mixing (old mesh)
   NGX = 17   NGY = 19   NGZ = 21
  (NGX  = 72   NGY  = 80   NGZ  = 84)
  gives a total of   6783 points

 initial charge density was supplied:
 charge density of overlapping atoms calculated
 number of electron      91.0000000 magnetization      10.0000000
 keeping initial charge density in first step


--------------------------------------------------------------------------------------------------------


 Maximum index for non-local projection operator         6069
 Maximum index for augmentation-charges         1021 (set IRDMAX)


--------------------------------------------------------------------------------------------------------


 First call to EWALD:  gamma=   0.350
 Maximum number of real-space cells 3x 3x 3
 Maximum number of reciprocal cells 3x 3x 3

    FEWALD:  cpu time    0.0015: real time    0.0015


--------------------------------------- Iteration      1(   1)  ---------------------------------------


    POTLOK:  cpu time    0.0528: real time    0.0610
    SETDIJ:  cpu time    0.0060: real time    0.0060
     EDDAV:  cpu time   12.1420: real time   12.1740
    --------------------------------------------
      LOOP:  cpu time   12.2034: real time   12.2436

 eigenvalue-minimisations  : 23552
 total energy-change (2. order) : 0.8907888E+03  (-0.4251368E+04)
 number of electron      91.0000000 magnetization      10.0000000
 augmentation part       91.0000000 magnetization      10.0000000

 Free energy of the ion-electron system (eV)
  ---------------------------------------------------
  alpha Z        PSCENC =       277.69504900
  Ewald energy   TEWEN  =     -5099.42314165
  -Hartree energ DENC   =     -3035.50465655
  -exchange      EXHF   =         0.00000000
  -V(xc)+E(xc)   XCENC  =       368.94471111
  PAW double counting   =      6695.71924497    -6989.86216938
  entropy T*S    EENTRO =        -0.00358273
  eigenvalues    EBANDS =       718.78795699
  atomic energy  EATOM  =      7954.43542899
  Solvation  Ediel_sol  =         0.00000000
  ---------------------------------------------------
  free energy    TOTEN  =       890.78884077 eV

  energy without entropy =      890.79242349  energy(sigma->0) =      890.79063213


--------------------------------------------------------------------------------------------------------




--------------------------------------- Iteration      1(   2)  ---------------------------------------


     EDDAV:  cpu time   12.9583: real time   12.9917
    --------------------------------------------
      LOOP:  cpu time   12.9580: real time   12.9914

 eigenvalue-minimisations  : 26064
 total energy-change (2. order) :-0.8935689E+03  (-0.8029385E+03)
 number of electron      91.0000000 magnetization      10.0000000
 augmentation part       91.0000000 magnetization      10.0000000

 Free energy of the ion-electron system (eV)
  ---------------------------------------------------
  alpha Z        PSCENC =       277.69504900
  Ewald energy   TEWEN  =     -5099.42314165
  -Hartree energ DENC   =     -3035.50465655
  -exchange      EXHF   =         0.00000000
  -V(xc)+E(xc)   XCENC  =       368.94471111
  PAW double counting   =      6695.71924497    -6989.86216938
  entropy T*S    EENTRO =        -0.01640772
  eigenvalues    EBANDS =      -174.76811273
  atomic energy  EATOM  =      7954.43542899
  Solvation  Ediel_sol  =         0.00000000
  ---------------------------------------------------
  free energy    TOTEN  =        -2.78005396 eV

  energy without entropy =       -2.76364624  energy(sigma->0) =       -2.77185010


--------------------------------------------------------------------------------------------------------




--------------------------------------- Iteration      1(   3)  ---------------------------------------


     EDDAV:  cpu time   14.0880: real time   14.1213
    --------------------------------------------
      LOOP:  cpu time   14.0882: real time   14.1215

 eigenvalue-minimisations  : 28880
 total energy-change (2. order) :-0.1030064E+03  (-0.1002664E+03)
 number of electron      91.0000000 magnetization      10.0000000
 augmentation part       91.0000000 magnetization      10.0000000

 Free energy of the ion-electron system (eV)
  ---------------------------------------------------
  alpha Z        PSCENC =       277.69504900
  Ewald energy   TEWEN  =     -5099.42314165
  -Hartree energ DENC   =     -3035.50465655
  -exchange      EXHF   =         0.00000000
  -V(xc)+E(xc)   XCENC  =       368.94471111
  PAW double counting   =      6695.71924497    -6989.86216938
  entropy T*S    EENTRO =        -0.03824535
  eigenvalues    EBANDS =      -277.75265646
  atomic energy  EATOM  =      7954.43542899
  Solvation  Ediel_sol  =         0.00000000
  ---------------------------------------------------
  free energy    TOTEN  =      -105.78643532 eV

  energy without entropy =     -105.74818996  energy(sigma->0) =     -105.76731264


--------------------------------------------------------------------------------------------------------




--------------------------------------- Iteration      1(   4)  ---------------------------------------


     EDDAV:  cpu time   16.1127: real time   16.1508
    --------------------------------------------
      LOOP:  cpu time   16.1134: real time   16.1515

 eigenvalue-minimisations  : 33440
 total energy-change (2. order) :-0.2782298E+01  (-0.2773968E+01)
 number of electron      91.0000000 magnetization      10.0000000
 augmentation part       91.0000000 magnetization      10.0000000

 Free energy of the ion-electron system (eV)
  ---------------------------------------------------
  alpha Z        PSCENC =       277.69504900
  Ewald energy   TEWEN  =     -5099.42314165
  -Hartree energ DENC   =     -3035.50465655
  -exchange      EXHF   =         0.00000000
  -V(xc)+E(xc)   XCENC  =       368.94471111
  PAW double counting   =      6695.71924497    -6989.86216938
  entropy T*S    EENTRO =        -0.03740634
  eigenvalues    EBANDS =      -280.53579302
  atomic energy  EATOM  =      7954.43542899
  Solvation  Ediel_sol  =         0.00000000
  ---------------------------------------------------
  free energy    TOTEN  =      -108.56873286 eV

  energy without entropy =     -108.53132652  energy(sigma->0) =     -108.55002969


--------------------------------------------------------------------------------------------------------




--------------------------------------- Iteration      1(   5)  ---------------------------------------


     EDDAV:  cpu time   15.8750: real time   15.9126
    CHARGE:  cpu time    0.4494: real time    0.4504
    MIXING:  cpu time    0.0011: real time    0.0011
    --------------------------------------------
      LOOP:  cpu time   16.3223: real time   16.3610

 eigenvalue-minimisations  : 33744
 total energy-change (2. order) :-0.7456938E-01  (-0.7454835E-01)
 number of electron      90.9999948 magnetization      10.9404737
 augmentation part       26.4290106 magnetization       8.2553906

 Broyden mixing:
  rms(total) = 0.61058E+01    rms(broyden)= 0.61052E+01
  rms(prec ) = 0.96113E+01
  weight for this iteration     100.00

 Free energy of the ion-electron system (eV)
  ---------------------------------------------------
  alpha Z        PSCENC =       277.69504900
  Ewald energy   TEWEN  =     -5099.42314165
  -Hartree energ DENC   =     -3035.50465655
  -exchange      EXHF   =         0.00000000
  -V(xc)+E(xc)   XCENC  =       368.94471111
  PAW double counting   =      6695.71924497    -6989.86216938
  entropy T*S    EENTRO =        -0.03742683
  eigenvalues    EBANDS =      -280.61034190
  atomic energy  EATOM  =      7954.43542899
  Solvation  Ediel_sol  =         0.00000000
  ---------------------------------------------------
  free energy    TOTEN  =      -108.64330224 eV

  energy without entropy =     -108.60587540  energy(sigma->0) =     -108.62458882


--------------------------------------------------------------------------------------------------------




--------------------------------------- Iteration      1(   6)  ---------------------------------------


    POTLOK:  cpu time    0.0325: real time    0.0326
    SETDIJ:  cpu time    0.0060: real time    0.0060
     EDDAV:  cpu time   16.3134: real time   16.3522
    CHARGE:  cpu time    0.3508: real time    0.3516
    MIXING:  cpu time    0.0009: real time    0.0009
    --------------------------------------------
      LOOP:  cpu time   16.7036: real time   16.7434

 eigenvalue-minimisations  : 36720
 total energy-change (2. order) :-0.1849211E+02  (-0.4784431E+02)
 number of electron      90.9999946 magnetization       7.5230446
 augmentation part       34.9644018 magnetization       6.9680321

 Broyden mixing:
  rms(total) = 0.10321E+02    rms(broyden)= 0.10321E+02
  rms(prec ) = 0.13140E+02
  weight for this iteration     100.00

 eigenvalues of (default mixing * dielectric matrix)
  average eigenvalue GAMMA=   0.2278
  0.2278

 Free energy of the ion-electron system (eV)
  ---------------------------------------------------
  alpha Z        PSCENC =       277.69504900
  Ewald energy   TEWEN  =     -5099.42314165
  -Hartree energ DENC   =     -2890.70904363
  -exchange      EXHF   =         0.00000000
  -V(xc)+E(xc)   XCENC  =       371.45801567
  PAW double counting   =      7401.76673913    -7650.19014963
  entropy T*S    EENTRO =        -0.01147452
  eigenvalues    EBANDS =      -492.15683505
  atomic energy  EATOM  =      7954.43542899
  Solvation  Ediel_sol  =         0.00000000
  ---------------------------------------------------
  free energy    TOTEN  =      -127.13541170 eV

  energy without entropy =     -127.12393718  energy(sigma->0) =     -127.12967444


--------------------------------------------------------------------------------------------------------




--------------------------------------- Iteration      1(   7)  ---------------------------------------


    POTLOK:  cpu time    0.0282: real time    0.0282
    SETDIJ:  cpu time    0.0057: real time    0.0057
     EDDAV:  cpu time   11.6509: real time   11.6785
    CHARGE:  cpu time    0.3333: real time    0.3341
    MIXING:  cpu time    0.0009: real time    0.0009
    --------------------------------------------
      LOOP:  cpu time   12.0189: real time   12.0474

 eigenvalue-minimisations  : 30432
 total energy-change (2. order) : 0.4565791E+02  (-0.8425148E+01)
 number of electron      90.9999951 magnetization       3.2983184
 augmentation part       30.8969974 magnetization       3.3890181

 Broyden mixing:
  rms(total) = 0.28240E+01    rms(broyden)= 0.28235E+01
  rms(prec ) = 0.39591E+01
  weight for this iteration     100.00

 eigenvalues of (default mixing * dielectric matrix)
  average eigenvalue GAMMA=   0.5828
  0.5828  0.5828

 Free energy of the ion-electron system (eV)
  ---------------------------------------------------
  alpha Z        PSCENC =       277.69504900
  Ewald energy   TEWEN  =     -5099.42314165
  -Hartree energ DENC   =     -2959.97781197
  -exchange      EXHF   =         0.00000000
  -V(xc)+E(xc)   XCENC  =       368.14917572
  PAW double counting   =      7798.19712084    -8088.13396922
  entropy T*S    EENTRO =        -0.00314304
  eigenvalues    EBANDS =      -332.41620803
  atomic energy  EATOM  =      7954.43542899
  Solvation  Ediel_sol  =         0.00000000
  ---------------------------------------------------
  free energy    TOTEN  =       -81.47749938 eV

  energy without entropy =      -81.47435634  energy(sigma->0) =      -81.47592786


--------------------------------------------------------------------------------------------------------




--------------------------------------- Iteration      1(   8)  ---------------------------------------


    POTLOK:  cpu time    0.0264: real time    0.0265
    SETDIJ:  cpu time    0.0049: real time    0.0049
     EDDAV:  cpu time   13.9326: real time   13.9657
    CHARGE:  cpu time    0.3196: real time    0.3204
    MIXING:  cpu time    0.0009: real time    0.0009
    --------------------------------------------
      LOOP:  cpu time   14.2844: real time   14.3183

 eigenvalue-minimisations  : 37264
 total energy-change (2. order) :-0.3752256E+01  (-0.3671274E+01)
 number of electron      90.9999948 magnetization       2.1562782
 augmentation part       29.7400840 magnetization       1.8416241

 Broyden mixing:
  rms(total) = 0.37874E+01    rms(broyden)= 0.37870E+01
  rms(prec ) = 0.61642E+01
  weight for this iteration     100.00

 eigenvalues of (default mixing * dielectric matrix)
  average eigenvalue GAMMA=   0.4998
  0.6370  0.6370  0.2255

 Free energy of the ion-electron system (eV)
  ---------------------------------------------------
  alpha Z        PSCENC =       277.69504900
  Ewald energy   TEWEN  =     -5099.42314165
  -Hartree energ DENC   =     -2953.62729655
  -exchange      EXHF   =         0.00000000
  -V(xc)+E(xc)   XCENC  =       365.91027481
  PAW double counting   =      8077.44470720    -8375.78689660
  entropy T*S    EENTRO =        -0.01441644
  eigenvalues    EBANDS =      -331.86346402
  atomic energy  EATOM  =      7954.43542899
  Solvation  Ediel_sol  =         0.00000000
  ---------------------------------------------------
  free energy    TOTEN  =       -85.22975527 eV

  energy without entropy =      -85.21533883  energy(sigma->0) =      -85.22254705


--------------------------------------------------------------------------------------------------------




--------------------------------------- Iteration      1(   9)  ---------------------------------------


    POTLOK:  cpu time    0.0261: real time    0.0262
    SETDIJ:  cpu time    0.0048: real time    0.0048
     EDDAV:  cpu time   13.4028: real time   13.4345
    CHARGE:  cpu time    0.3443: real time    0.3451
    MIXING:  cpu time    0.0009: real time    0.0009
    --------------------------------------------
      LOOP:  cpu time   13.7789: real time   13.8115

 eigenvalue-minimisations  : 37296
 total energy-change (2. order) : 0.4304543E+01  (-0.3739398E+01)
 number of electron      90.9999951 magnetization       1.0590980
 augmentation part       29.8903823 magnetization       0.7797154

 Broyden mixing:
  rms(total) = 0.10221E+01    rms(broyden)= 0.10214E+01
  rms(prec ) = 0.17968E+01
  weight for this iteration     100.00

 eigenvalues of (default mixing * dielectric matrix)
  average eigenvalue GAMMA=   0.6020
  1.0286  0.7114  0.4379  0.2302

 Free energy of the ion-electron system (eV)
  ---------------------------------------------------
  alpha Z        PSCENC =       277.69504900
  Ewald energy   TEWEN  =     -5099.42314165
  -Hartree energ DENC   =     -2953.29788720
  -exchange      EXHF   =         0.00000000
  -V(xc)+E(xc)   XCENC  =       365.51305812
  PAW double counting   =      8223.24544865    -8525.60640503
  entropy T*S    EENTRO =        -0.00841742
  eigenvalues    EBANDS =      -323.47834523
  atomic energy  EATOM  =      7954.43542899
  Solvation  Ediel_sol  =         0.00000000
  ---------------------------------------------------
  free energy    TOTEN  =       -80.92521178 eV

  energy without entropy =      -80.91679436  energy(sigma->0) =      -80.92100307


--------------------------------------------------------------------------------------------------------




--------------------------------------- Iteration      1(  10)  ---------------------------------------


    POTLOK:  cpu time    0.0280: real time    0.0281
    SETDIJ:  cpu time    0.0050: real time    0.0050
     EDDAV:  cpu time   14.1847: real time   14.2184
    CHARGE:  cpu time    0.3382: real time    0.3390
    MIXING:  cpu time    0.0009: real time    0.0009
    --------------------------------------------
      LOOP:  cpu time   14.5567: real time   14.5913

 eigenvalue-minimisations  : 39376
 total energy-change (2. order) : 0.4931628E+00  (-0.4367850E+00)
 number of electron      90.9999950 magnetization       0.1992065
 augmentation part       29.9902483 magnetization       0.1247009

 Broyden mixing:
  rms(total) = 0.80284E+00    rms(broyden)= 0.80263E+00
  rms(prec ) = 0.11917E+01
  weight for this iteration     100.00

 eigenvalues of (default mixing * dielectric matrix)
  average eigenvalue GAMMA=   0.6456
  1.2629  0.8511  0.4633  0.4633  0.1873

 Free energy of the ion-electron system (eV)
  ---------------------------------------------------
  alpha Z        PSCENC =       277.69504900
  Ewald energy   TEWEN  =     -5099.42314165
  -Hartree energ DENC   =     -2948.97733086
  -exchange      EXHF   =         0.00000000
  -V(xc)+E(xc)   XCENC  =       365.20074902
  PAW double counting   =      8425.46291614    -8729.94031345
  entropy T*S    EENTRO =        -0.00972625
  eigenvalues    EBANDS =      -324.87567989
  atomic energy  EATOM  =      7954.43542899
  Solvation  Ediel_sol  =         0.00000000
  ---------------------------------------------------
  free energy    TOTEN  =       -80.43204895 eV

  energy without entropy =      -80.42232270  energy(sigma->0) =      -80.42718582


--------------------------------------------------------------------------------------------------------




--------------------------------------- Iteration      1(  11)  ---------------------------------------


    POTLOK:  cpu time    0.0277: real time    0.0278
    SETDIJ:  cpu time    0.0050: real time    0.0050
     EDDAV:  cpu time   13.6696: real time   13.7021
    CHARGE:  cpu time    0.3486: real time    0.3495
    MIXING:  cpu time    0.0009: real time    0.0009
    --------------------------------------------
      LOOP:  cpu time   14.0519: real time   14.0853

 eigenvalue-minimisations  : 37152
 total energy-change (2. order) : 0.7096909E-01  (-0.1212365E+00)
 number of electron      90.9999950 magnetization      -0.0404029
 augmentation part       29.9203510 magnetization      -0.1151564

 Broyden mixing:
  rms(total) = 0.28620E+00    rms(broyden)= 0.28609E+00
  rms(prec ) = 0.41477E+00
  weight for this iteration     100.00

 eigenvalues of (default mixing * dielectric matrix)
  average eigenvalue GAMMA=   0.7428
  1.8142  0.7696  0.7696  0.4553  0.4553  0.1929

 Free energy of the ion-electron system (eV)
  ---------------------------------------------------
  alpha Z        PSCENC =       277.69504900
  Ewald energy   TEWEN  =     -5099.42314165
  -Hartree energ DENC   =     -2952.05439598
  -exchange      EXHF   =         0.00000000
  -V(xc)+E(xc)   XCENC  =       365.28191919
  PAW double counting   =      8648.39027603    -8955.41583181
  entropy T*S    EENTRO =        -0.00920655
  eigenvalues    EBANDS =      -319.26117707
  atomic energy  EATOM  =      7954.43542899
  Solvation  Ediel_sol  =         0.00000000
  ---------------------------------------------------
  free energy    TOTEN  =       -80.36107986 eV

  energy without entropy =      -80.35187331  energy(sigma->0) =      -80.35647659


--------------------------------------------------------------------------------------------------------




--------------------------------------- Iteration      1(  12)  ---------------------------------------


    POTLOK:  cpu time    0.0276: real time    0.0277
    SETDIJ:  cpu time    0.0050: real time    0.0050
     EDDAV:  cpu time   12.9917: real time   13.0225
    CHARGE:  cpu time    0.3588: real time    0.3597
    MIXING:  cpu time    0.0011: real time    0.0011
    --------------------------------------------
      LOOP:  cpu time   13.3842: real time   13.4159

 eigenvalue-minimisations  : 34272
 total energy-change (2. order) : 0.2582768E-01  (-0.1620981E-01)
 number of electron      90.9999950 magnetization      -0.0854182
 augmentation part       29.9514143 magnetization      -0.1100308

 Broyden mixing:
  rms(total) = 0.15498E+00    rms(broyden)= 0.15495E+00
  rms(prec ) = 0.23240E+00
  weight for this iteration     100.00

 eigenvalues of (default mixing * dielectric matrix)
  average eigenvalue GAMMA=   0.7774
  2.0110  0.8704  0.8704  0.5366  0.4803  0.4803  0.1926

 Free energy of the ion-electron system (eV)
  ---------------------------------------------------
  alpha Z        PSCENC =       277.69504900
  Ewald energy   TEWEN  =     -5099.42314165
  -Hartree energ DENC   =     -2952.60633217
  -exchange      EXHF   =         0.00000000
  -V(xc)+E(xc)   XCENC  =       365.32289451
  PAW double counting   =      8770.40261224    -9078.49954269
  entropy T*S    EENTRO =        -0.00949271
  eigenvalues    EBANDS =      -317.65272769
  atomic energy  EATOM  =      7954.43542899
  Solvation  Ediel_sol  =         0.00000000
  ---------------------------------------------------
  free energy    TOTEN  =       -80.33525218 eV

  energy without entropy =      -80.32575947  energy(sigma->0) =      -80.33050582


--------------------------------------------------------------------------------------------------------




--------------------------------------- Iteration      1(  13)  ---------------------------------------


    POTLOK:  cpu time    0.0278: real time    0.0279
    SETDIJ:  cpu time    0.0053: real time    0.0053
     EDDAV:  cpu time   14.2655: real time   14.3027
    CHARGE:  cpu time    0.4144: real time    0.4154
    MIXING:  cpu time    0.0013: real time    0.0013
    --------------------------------------------
      LOOP:  cpu time   14.7144: real time   14.7527

 eigenvalue-minimisations  : 36480
 total energy-change (2. order) : 0.5626535E-02  (-0.5470936E-02)
 number of electron      90.9999950 magnetization      -0.0569660
 augmentation part       29.9811383 magnetization      -0.0540526

 Broyden mixing:
  rms(total) = 0.54112E-01    rms(broyden)= 0.54067E-01
  rms(prec ) = 0.84723E-01
  weight for this iteration     100.00

 eigenvalues of (default mixing * dielectric matrix)
  average eigenvalue GAMMA=   0.8033
  2.2011  0.9612  0.9612  0.1926  0.6795  0.4573  0.4573  0.5164

 Free energy of the ion-electron system (eV)
  ---------------------------------------------------
  alpha Z        PSCENC =       277.69504900
  Ewald energy   TEWEN  =     -5099.42314165
  -Hartree energ DENC   =     -2953.35084327
  -exchange      EXHF   =         0.00000000
  -V(xc)+E(xc)   XCENC  =       365.37715208
  PAW double counting   =      8851.12637171    -9159.80849736
  entropy T*S    EENTRO =        -0.00948710
  eigenvalues    EBANDS =      -316.37165805
  atomic energy  EATOM  =      7954.43542899
  Solvation  Ediel_sol  =         0.00000000
  ---------------------------------------------------
  free energy    TOTEN  =       -80.32962564 eV

  energy without entropy =      -80.32013854  energy(sigma->0) =      -80.32488209


--------------------------------------------------------------------------------------------------------




--------------------------------------- Iteration      1(  14)  ---------------------------------------


    POTLOK:  cpu time    0.0327: real time    0.0328
    SETDIJ:  cpu time    0.0060: real time    0.0060
     EDDAV:  cpu time   15.3477: real time   15.3841
    CHARGE:  cpu time    0.4157: real time    0.4166
    MIXING:  cpu time    0.0014: real time    0.0014
    --------------------------------------------
      LOOP:  cpu time   15.8034: real time   15.8409

 eigenvalue-minimisations  : 32592
 total energy-change (2. order) :-0.1894423E-04  (-0.1402602E-02)
 number of electron      90.9999950 magnetization      -0.0334970
 augmentation part       29.9741221 magnetization      -0.0218487

 Broyden mixing:
  rms(total) = 0.24853E-01    rms(broyden)= 0.24838E-01
  rms(prec ) = 0.34930E-01
  weight for this iteration     100.00

 eigenvalues of (default mixing * dielectric matrix)
  average eigenvalue GAMMA=   0.8193
  2.3066  1.1952  0.7893  0.7893  0.7387  0.1926  0.4639  0.4639  0.4339

 Free energy of the ion-electron system (eV)
  ---------------------------------------------------
  alpha Z        PSCENC =       277.69504900
  Ewald energy   TEWEN  =     -5099.42314165
  -Hartree energ DENC   =     -2954.30621706
  -exchange      EXHF   =         0.00000000
  -V(xc)+E(xc)   XCENC  =       365.41991976
  PAW double counting   =      8886.07863419    -9194.98243484
  entropy T*S    EENTRO =        -0.00949206
  eigenvalues    EBANDS =      -315.23739092
  atomic energy  EATOM  =      7954.43542899
  Solvation  Ediel_sol  =         0.00000000
  ---------------------------------------------------
  free energy    TOTEN  =       -80.32964459 eV

  energy without entropy =      -80.32015253  energy(sigma->0) =      -80.32489856


--------------------------------------------------------------------------------------------------------




--------------------------------------- Iteration      1(  15)  ---------------------------------------


    POTLOK:  cpu time    0.0331: real time    0.0332
    SETDIJ:  cpu time    0.0059: real time    0.0059
     EDDAV:  cpu time   15.3014: real time   15.3376
    CHARGE:  cpu time    0.4164: real time    0.4174
    MIXING:  cpu time    0.0014: real time    0.0014
    --------------------------------------------
      LOOP:  cpu time   15.7582: real time   15.7956

 eigenvalue-minimisations  : 32208
 total energy-change (2. order) :-0.1982655E-03  (-0.2404362E-03)
 number of electron      90.9999950 magnetization      -0.0315239
 augmentation part       29.9725178 magnetization      -0.0208873

 Broyden mixing:
  rms(total) = 0.12155E-01    rms(broyden)= 0.12151E-01
  rms(prec ) = 0.17682E-01
  weight for this iteration     100.00

 eigenvalues of (default mixing * dielectric matrix)
  average eigenvalue GAMMA=   0.8683
  2.4363  1.4459  0.8917  0.8917  0.8549  0.1926  0.5999  0.4672  0.4672  0.4352

 Free energy of the ion-electron system (eV)
  ---------------------------------------------------
  alpha Z        PSCENC =       277.69504900
  Ewald energy   TEWEN  =     -5099.42314165
  -Hartree energ DENC   =     -2954.73584092
  -exchange      EXHF   =         0.00000000
  -V(xc)+E(xc)   XCENC  =       365.43537455
  PAW double counting   =      8896.64286453    -9205.53663791
  entropy T*S    EENTRO =        -0.00949567
  eigenvalues    EBANDS =      -314.83344378
  atomic energy  EATOM  =      7954.43542899
  Solvation  Ediel_sol  =         0.00000000
  ---------------------------------------------------
  free energy    TOTEN  =       -80.32984285 eV

  energy without entropy =      -80.32034719  energy(sigma->0) =      -80.32509502


--------------------------------------------------------------------------------------------------------




--------------------------------------- Iteration      1(  16)  ---------------------------------------


    POTLOK:  cpu time    0.0330: real time    0.0331
    SETDIJ:  cpu time    0.0069: real time    0.0069
     EDDAV:  cpu time   16.7483: real time   16.7880
    CHARGE:  cpu time    0.3974: real time    0.3983
    MIXING:  cpu time    0.0035: real time    0.0398
    --------------------------------------------
      LOOP:  cpu time   17.1892: real time   17.2661

 eigenvalue-minimisations  : 35488
 total energy-change (2. order) :-0.8241201E-04  (-0.4702486E-04)
 number of electron      90.9999950 magnetization      -0.0244540
 augmentation part       29.9768224 magnetization      -0.0146245

 Broyden mixing:
  rms(total) = 0.72231E-02    rms(broyden)= 0.72216E-02
  rms(prec ) = 0.92599E-02
  weight for this iteration     100.00

 eigenvalues of (default mixing * dielectric matrix)
  average eigenvalue GAMMA=   0.8732
  2.4649  1.6326  0.9797  0.9797  0.7408  0.7408  0.1926  0.4682  0.4682  0.4959
  0.4421

 Free energy of the ion-electron system (eV)
  ---------------------------------------------------
  alpha Z        PSCENC =       277.69504900
  Ewald energy   TEWEN  =     -5099.42314165
  -Hartree energ DENC   =     -2954.79947352
  -exchange      EXHF   =         0.00000000
  -V(xc)+E(xc)   XCENC  =       365.43477140
  PAW double counting   =      8901.48839471    -9210.31001187
  entropy T*S    EENTRO =        -0.00948701
  eigenvalues    EBANDS =      -314.84145531
  atomic energy  EATOM  =      7954.43542899
  Solvation  Ediel_sol  =         0.00000000
  ---------------------------------------------------
  free energy    TOTEN  =       -80.32992527 eV

  energy without entropy =      -80.32043825  energy(sigma->0) =      -80.32518176


--------------------------------------------------------------------------------------------------------




--------------------------------------- Iteration      1(  17)  ---------------------------------------


    POTLOK:  cpu time    0.0460: real time    0.0461
    SETDIJ:  cpu time    0.0064: real time    0.0064
     EDDAV:  cpu time   14.1475: real time   14.1810
    CHARGE:  cpu time    0.3959: real time    0.3969
    MIXING:  cpu time    0.0016: real time    0.0016
    --------------------------------------------
      LOOP:  cpu time   14.5974: real time   14.6319

 eigenvalue-minimisations  : 29088
 total energy-change (2. order) :-0.2406221E-04  (-0.5647779E-05)
 number of electron      90.9999950 magnetization      -0.0232023
 augmentation part       29.9749369 magnetization      -0.0148179

 Broyden mixing:
  rms(total) = 0.32639E-02    rms(broyden)= 0.32631E-02
  rms(prec ) = 0.48603E-02
  weight for this iteration     100.00

 eigenvalues of (default mixing * dielectric matrix)
  average eigenvalue GAMMA=   0.9229
  2.4632  2.0152  1.1121  1.1121  0.8109  0.8109  0.1926  0.4683  0.4683  0.5903
  0.5903  0.4400

 Free energy of the ion-electron system (eV)
  ---------------------------------------------------
  alpha Z        PSCENC =       277.69504900
  Ewald energy   TEWEN  =     -5099.42314165
  -Hartree energ DENC   =     -2954.89876795
  -exchange      EXHF   =         0.00000000
  -V(xc)+E(xc)   XCENC  =       365.43678530
  PAW double counting   =      8901.76489524    -9210.55103700
  entropy T*S    EENTRO =        -0.00950173
  eigenvalues    EBANDS =      -314.77965952
  atomic energy  EATOM  =      7954.43542899
  Solvation  Ediel_sol  =         0.00000000
  ---------------------------------------------------
  free energy    TOTEN  =       -80.32994933 eV

  energy without entropy =      -80.32044760  energy(sigma->0) =      -80.32519846


--------------------------------------------------------------------------------------------------------




--------------------------------------- Iteration      1(  18)  ---------------------------------------


    POTLOK:  cpu time    0.0332: real time    0.0332
    SETDIJ:  cpu time    0.0061: real time    0.0061
     EDDAV:  cpu time   12.4993: real time   12.5290
    CHARGE:  cpu time    0.4005: real time    0.4015
    MIXING:  cpu time    0.0017: real time    0.0017
    --------------------------------------------
      LOOP:  cpu time   12.9408: real time   12.9715

 eigenvalue-minimisations  : 24752
 total energy-change (2. order) :-0.1411810E-04  (-0.2367536E-05)
 number of electron      90.9999950 magnetization      -0.0227798
 augmentation part       29.9752724 magnetization      -0.0152607

 Broyden mixing:
  rms(total) = 0.14793E-02    rms(broyden)= 0.14786E-02
  rms(prec ) = 0.18200E-02
  weight for this iteration     100.00

 eigenvalues of (default mixing * dielectric matrix)
  average eigenvalue GAMMA=   0.9622
  2.4806  2.2639  1.2154  1.2154  0.8451  0.8451  0.8676  0.1926  0.6723  0.4682
  0.4682  0.4411  0.5331

 Free energy of the ion-electron system (eV)
  ---------------------------------------------------
  alpha Z        PSCENC =       277.69504900
  Ewald energy   TEWEN  =     -5099.42314165
  -Hartree energ DENC   =     -2954.93964724
  -exchange      EXHF   =         0.00000000
  -V(xc)+E(xc)   XCENC  =       365.43735398
  PAW double counting   =      8902.27960273    -9211.03987889
  entropy T*S    EENTRO =        -0.00950200
  eigenvalues    EBANDS =      -314.76522836
  atomic energy  EATOM  =      7954.43542899
  Solvation  Ediel_sol  =         0.00000000
  ---------------------------------------------------
  free energy    TOTEN  =       -80.32996345 eV

  energy without entropy =      -80.32046144  energy(sigma->0) =      -80.32521244


--------------------------------------------------------------------------------------------------------




--------------------------------------- Iteration      1(  19)  ---------------------------------------


    POTLOK:  cpu time    0.0313: real time    0.0313
    SETDIJ:  cpu time    0.0057: real time    0.0057
     EDDAV:  cpu time   11.0281: real time   11.0543
    --------------------------------------------
      LOOP:  cpu time   11.0677: real time   11.0939

 eigenvalue-minimisations  : 20544
 total energy-change (2. order) :-0.4393853E-05  (-0.7726421E-06)
 number of electron      90.9999950 magnetization      -0.0227798
 augmentation part       29.9752724 magnetization      -0.0152607

 Free energy of the ion-electron system (eV)
  ---------------------------------------------------
  alpha Z        PSCENC =       277.69504900
  Ewald energy   TEWEN  =     -5099.42314165
  -Hartree energ DENC   =     -2954.97784567
  -exchange      EXHF   =         0.00000000
  -V(xc)+E(xc)   XCENC  =       365.43905136
  PAW double counting   =      8902.07343300    -9210.82675434
  entropy T*S    EENTRO =        -0.00950449
  eigenvalues    EBANDS =      -314.73568402
  atomic energy  EATOM  =      7954.43542899
  Solvation  Ediel_sol  =         0.00000000
  ---------------------------------------------------
  free energy    TOTEN  =       -80.32996784 eV

  energy without entropy =      -80.32046334  energy(sigma->0) =      -80.32521559


--------------------------------------------------------------------------------------------------------




 average (electrostatic) potential at core
  the test charge radii are     0.7079  0.9791  0.7215
  (the norm of the test charge is              1.0000)
       1 -59.0865       2 -88.7073       3 -88.7073       4 -88.7803       5 -88.7803
       6 -71.9603       7 -71.9314       8 -71.9418       9 -71.9136      10 -71.9314
      11 -71.9603      12 -71.9136      13 -71.9418
 
 
 
[...]
      1     -39.7606      1.00000
      2     -15.8360      1.00000
      3     -15.4331      1.00000
      4     -15.0890      1.00000
      5     -14.8415      1.00000
      6     -14.3596      1.00000
      7     -14.3034      1.00000
      8     -14.2825      1.00000
      9     -14.1820      1.00000
     10      -3.0989      1.00000
     11      -2.9838      1.00000
     12      -2.7179      1.00000
     13      -2.5616      1.00000
     14      -2.5179      1.00000
     15      -2.4303      1.00000
     16      -2.1380      1.00000
     17      -2.0425      1.00000
     18      -1.9349      1.00000
     19      -1.8174      1.00000
     20      -1.5119      1.00000
     21      -1.4837      1.00000
     22      -1.1864      1.00000
     23      -1.0467      1.00000
     24      -0.9163      1.00000
     25      -0.8113      1.00000
     26      -0.7677      1.00000
     27      -0.4682      1.00000
     28       0.0147      1.00000
     29       0.0971      1.00000
     30       0.9088      1.00000
     31       1.0755      1.00000
     32       1.3760      1.00000
     33       1.6699      1.00000
     34       1.7074      1.00000
     35       1.7265      1.00000
     36       1.8430      1.00000
     37       1.9142      1.00000
     38       2.0631      1.00000
     39       2.0860      1.00000
     40       2.1794      1.00000
     41       2.4584      1.00000
     42       2.5482      1.00000
     43       2.5807      1.00000
     44       2.6722      1.00000
     45       2.7092      1.00000
     46       3.9817      1.00000
     47       4.2474      0.03796
     48       4.3658      0.00000
     49       4.4212      0.00000
     50       4.5937      0.00000
     51       4.6576      0.00000
     52       4.8556      0.00000
     53       5.0129      0.00000
     54      12.0834      0.00000
     55      13.2914      0.00000
     56      14.1638      0.00000
     57      14.2734      0.00000
     58      15.0659      0.00000
     59      15.6069      0.00000
     60      16.2883      0.00000
     61      16.5262      0.00000
     62      16.9592      0.00000
     63      17.1396      0.00000
     64      17.4352      0.00000

 k-point    90 :       0.5000   -0.1667    0.4000
  band No.  band energies     occupation 
      1     -39.7606      1.00000
      2     -15.5254      1.00000
      3     -15.4533      1.00000
      4     -15.1636      1.00000
      5     -15.1251      1.00000
      6     -14.3444      1.00000
      7     -14.2958      1.00000
      8     -14.2750      1.00000
      9     -14.1839      1.00000
     10      -3.1610      1.00000
     11      -2.9720      1.00000
     12      -2.6838      1.00000
     13      -2.5087      1.00000
     14      -2.3540      1.00000
     15      -2.2848      1.00000
     16      -2.2309      1.00000
     17      -2.1476      1.00000
     18      -1.7998      1.00000
     19      -1.6815      1.00000
     20      -1.6604      1.00000
     21      -1.5635      1.00000
     22      -1.2433      1.00000
     23      -1.0134      1.00000
     24      -0.9478      1.00000
     25      -0.7529      1.00000
     26      -0.5041      1.00000
     27      -0.4828      1.00000
     28      -0.3196      1.00000
     29      -0.2589      1.00000
     30       1.1455      1.00000
     31       1.2492      1.00000
     32       1.5240      1.00000
     33       1.6455      1.00000
     34       1.6577      1.00000
     35       1.7184      1.00000
     36       1.7385      1.00000
     37       1.7950      1.00000
     38       2.0402      1.00000
     39       2.0992      1.00000
     40       2.3261      1.00000
     41       2.3883      1.00000
     42       2.4669      1.00000
     43       2.5345      1.00000
     44       2.6534      1.00000
     45       2.7176      1.00000
     46       4.1779      0.57620
     47       4.3130      0.00014
     48       4.4273      0.00000
     49       4.4723      0.00000
     50       4.5512      0.00000
     51       4.5976      0.00000
     52       4.8453      0.00000
     53       4.8917      0.00000
     54      12.6504      0.00000
     55      13.0103      0.00000
     56      13.6423      0.00000
     57      14.1860      0.00000
     58      15.4713      0.00000
     59      15.7089      0.00000
     60      16.0637      0.00000
     61      16.4232      0.00000
     62      17.0401      0.00000
     63      17.1694      0.00000
     64      17.3970      0.00000

 k-point    91 :      -0.3333   -0.1667    0.4000
  band No.  band energies     occupation 
      1     -39.7606      1.00000
      2     -15.8273      1.00000
      3     -15.4155      1.00000
      4     -15.1051      1.00000
      5     -14.8592      1.00000
      6     -14.3475      1.00000
      7     -14.2998      1.00000
      8     -14.2879      1.00000
      9     -14.1912      1.00000
     10      -3.0977      1.00000
     11      -2.9108      1.00000
     12      -2.6612      1.00000
     13      -2.5557      1.00000
     14      -2.4666      1.00000
     15      -2.4522      1.00000
     16      -2.1141      1.00000
     17      -2.1026      1.00000
     18      -2.0115      1.00000
     19      -1.8268      1.00000
     20      -1.4860      1.00000
     21      -1.4620      1.00000
     22      -1.1587      1.00000
     23      -0.9738      1.00000
     24      -0.9165      1.00000
     25      -0.7965      1.00000
     26      -0.7581      1.00000
     27      -0.6077      1.00000
     28       0.0131      1.00000
     29       0.0913      1.00000
     30       0.7567      1.00000
     31       1.0348      1.00000
     32       1.4310      1.00000
     33       1.6729      1.00000
     34       1.7123      1.00000
     35       1.7495      1.00000
     36       1.8293      1.00000
     37       1.8767      1.00000
     38       2.0478      1.00000
     39       2.0994      1.00000
     40       2.1557      1.00000
     41       2.4249      1.00000
     42       2.4662      1.00000
     43       2.5833      1.00000
     44       2.6244      1.00000
     45       2.7215      1.00000
     46       4.1824      0.52617
     47       4.3010      0.00050
     48       4.3935      0.00000
     49       4.4244      0.00000
     50       4.6066      0.00000
     51       4.6466      0.00000
     52       4.8644      0.00000
     53       5.0460      0.00000
     54      12.0822      0.00000
     55      12.9026      0.00000
     56      14.0318      0.00000
     57      14.6440      0.00000
     58      15.0660      0.00000
     59      15.3875      0.00000
     60      16.6377      0.00000
     61      16.8063      0.00000
     62      17.0371      0.00000
     63      17.2396      0.00000
     64      17.4761      0.00000

 k-point    92 :      -0.1667   -0.1667    0.4000
  band No.  band energies     occupation 
      1     -39.7606      1.00000
      2     -16.0607      1.00000
      3     -15.6086      1.00000
      4     -14.7604      1.00000
      5     -14.6133      1.00000
      6     -14.3750      1.00000
      7     -14.3492      1.00000
      8     -14.2965      1.00000
      9     -14.1959      1.00000
     10      -3.0808      1.00000
     11      -2.8557      1.00000
     12      -2.7601      1.00000
     13      -2.6100      1.00000
     14      -2.5045      1.00000
     15      -2.4579      1.00000
     16      -2.3132      1.00000
     17      -2.1095      1.00000
     18      -2.0271      1.00000
     19      -1.8181      1.00000
     20      -1.7588      1.00000
     21      -1.4541      1.00000
     22      -1.0276      1.00000
     23      -0.9078      1.00000
     24      -0.7235      1.00000
     25      -0.6393      1.00000
     26      -0.5411      1.00000
     27      -0.4029      1.00000
     28      -0.0533      1.00000
     29       0.2930      1.00000
     30       0.3675      1.00000
     31       0.5230      1.00000
     32       1.4921      1.00000
     33       1.5720      1.00000
     34       1.6259      1.00000
     35       1.7096      1.00000
     36       1.8422      1.00000
     37       1.9470      1.00000
     38       2.0735      1.00000
     39       2.2195      1.00000
     40       2.3213      1.00000
     41       2.4113      1.00000
     42       2.5282      1.00000
     43       2.5598      1.00000
     44       2.6032      1.00000
     45       2.7285      1.00000
     46       4.1761      0.59603
     47       4.3063      0.00029
     48       4.3987      0.00000
     49       4.4971      0.00000
     50       4.5495      0.00000
     51       4.6585      0.00000
     52       4.9119      0.00000
     53       5.0229      0.00000
     54      11.5363      0.00000
     55      12.8286      0.00000
     56      14.5648      0.00000
     57      14.7735      0.00000
     58      15.0714      0.00000
     59      15.4167      0.00000
     60      16.5976      0.00000
     61      16.9014      0.00000
     62      17.1083      0.00000
     63      17.1445      0.00000
     64      17.4669      0.00000


--------------------------------------------------------------------------------------------------------


 soft charge-density along one line, spin component           1
         0         1         2         3         4         5         6         7         8         9
 total charge-density along one line
 
 soft charge-density along one line, spin component           2
         0         1         2         3         4         5         6         7         8         9
 total charge-density along one line
 
 pseudopotential strength for first ion, spin component:           1
-37.343   3.728   0.000  -0.000  -0.000
  3.728 -10.227   0.000  -0.000  -0.000
  0.000   0.000   0.099  -0.000   0.000
 -0.000  -0.000  -0.000   0.100   0.000
 -0.000  -0.000   0.000   0.000   0.100
 pseudopotential strength for first ion, spin component:           2
-37.343   3.728   0.000  -0.000  -0.000
  3.728 -10.227   0.000  -0.000  -0.000
  0.000   0.000   0.099  -0.000   0.000
 -0.000  -0.000  -0.000   0.100   0.000
 -0.000  -0.000   0.000   0.000   0.100
 total augmentation occupancy for first ion, spin component:           1
  2.003   0.023   0.000   0.000   0.000
  0.023   0.560   0.000   0.000   0.000
  0.000   0.000   0.024   0.002  -0.000
  0.000   0.000   0.002   0.019  -0.000
  0.000   0.000  -0.000  -0.000   0.018
 total augmentation occupancy for first ion, spin component:           2
 -0.000  -0.000   0.000   0.000   0.000
 -0.000  -0.000   0.000   0.000   0.000
  0.000   0.000  -0.000  -0.000   0.000
  0.000   0.000  -0.000  -0.000   0.000
  0.000   0.000   0.000   0.000  -0.000


------------------------ aborting loop because EDIFF is reached ----------------------------------------


    CHARGE:  cpu time    0.3953: real time    0.3963
    FORLOC:  cpu time    0.0030: real time    0.0040
    FORNL :  cpu time    3.5627: real time    3.5711
    STRESS:  cpu time   10.6584: real time   10.6847
    FORCOR:  cpu time    0.0323: real time    0.0323
    FORHAR:  cpu time    0.0059: real time    0.0060
    MIXING:  cpu time    0.0016: real time    0.0016
    OFIELD:  cpu time    0.0001: real time    0.0001

  FORCE on cell =-STRESS in cart. coord.  units (eV):
  Direction    XX          YY          ZZ          XY          YZ          ZX
  --------------------------------------------------------------------------------------
  Alpha Z   277.69505   277.69505   277.69505
  Ewald    -406.71328 -3971.09216  -721.62897    -6.38555 -1060.21762    -3.08406
  Hartree  1940.55847  -693.47135  1707.93081    -3.45958  -783.75517    -1.35241
  E(xc)    -463.30049  -463.84602  -463.34860    -0.00186    -0.16313    -0.00101
  Local   -3275.49051  2871.98312 -2732.75578     9.42820  1828.85506     4.15974
  n-local  -207.48670  -215.42759  -208.31304    -0.05687    -2.28555    -0.02247
  augment   763.07419   777.98286   764.46346     0.14121     4.42026     0.13621
  Kinetic  1371.67163  1416.41027  1375.96508     0.30613    13.19529     0.15824
  Fock        0.00000     0.00000     0.00000     0.00000     0.00000     0.00000
  -------------------------------------------------------------------------------------
  Total        0.0083619      0.2341760      0.0080133     -0.0283181      0.0491372     -0.0057613
  in kB        0.1029949      2.8843701      0.0987002     -0.3487969      0.6052279     -0.0709627
  external PRESSURE =       1.0286884 kB  Pullay stress =       0.0000000 kB


 VOLUME and BASIS-vectors are now :
 -----------------------------------------------------------------------------
  energy-cutoff  :      500.00
  volume of cell :      130.08
      direct lattice vectors                 reciprocal lattice vectors
     4.850940090  0.000000000  0.000000000     0.206145609  0.034435149  0.010186840
    -0.835354970  5.000842550  0.000000000     0.000000000  0.199966304  0.059359282
     0.000913280 -1.591712700  5.362074720     0.000000000  0.000000000  0.186494977

  length of vectors
     4.850940090  5.070132556  5.593334914     0.209250002  0.208590620  0.186494977


 FORCES acting on ions
    electron-ion (+dipol)            ewald-force                    non-local-force                 convergence-correction
 -----------------------------------------------------------------------------------------------
   -.369E-13 -.284E-13 -.858E-13   0.643E-12 0.878E-12 0.149E-11   -.160E-22 0.000E+00 0.000E+00   -.799E-14 -.280E-13 0.658E-14
   -.690E+01 -.539E+02 -.306E+02   0.707E+01 0.544E+02 0.309E+02   -.175E+00 -.507E+00 -.355E+00   0.409E-02 0.181E-02 0.272E-03
   0.690E+01 0.539E+02 0.306E+02   -.707E+01 -.544E+02 -.309E+02   0.175E+00 0.507E+00 0.355E+00   -.409E-02 -.181E-02 -.272E-03
   -.354E+02 -.107E+02 0.130E+02   0.359E+02 0.107E+02 -.133E+02   -.478E+00 -.248E-01 0.208E+00   0.270E-02 -.237E-03 -.382E-04
   0.354E+02 0.107E+02 -.130E+02   -.359E+02 -.107E+02 0.133E+02   0.478E+00 0.248E-01 -.208E+00   -.270E-02 0.237E-03 0.382E-04
   -.381E+01 0.367E+03 0.112E+03   0.306E+01 -.392E+03 -.120E+03   0.747E+00 0.249E+02 0.792E+01   0.889E-03 -.163E-03 0.176E-02
   0.194E+02 0.347E+03 0.138E+03   -.208E+02 -.367E+03 -.147E+03   0.135E+01 0.204E+02 0.890E+01   -.592E-03 0.134E-02 0.126E-02
   -.305E+02 0.343E+03 0.984E+02   0.331E+02 -.364E+03 -.104E+03   -.255E+01 0.208E+02 0.567E+01   0.241E-02 0.266E-02 -.131E-02
   0.139E+02 0.356E+03 0.704E+02   -.142E+02 -.379E+03 -.743E+02   0.286E+00 0.223E+02 0.387E+01   -.250E-02 -.634E-03 -.124E-02
   -.194E+02 -.347E+03 -.138E+03   0.208E+02 0.367E+03 0.147E+03   -.135E+01 -.204E+02 -.890E+01   0.592E-03 -.134E-02 -.126E-02
   0.381E+01 -.367E+03 -.112E+03   -.306E+01 0.392E+03 0.120E+03   -.747E+00 -.249E+02 -.792E+01   -.889E-03 0.163E-03 -.176E-02
   -.139E+02 -.356E+03 -.704E+02   0.142E+02 0.379E+03 0.743E+02   -.286E+00 -.223E+02 -.387E+01   0.250E-02 0.634E-03 0.124E-02
   0.305E+02 -.343E+03 -.984E+02   -.331E+02 0.364E+03 0.104E+03   0.255E+01 -.208E+02 -.567E+01   -.241E-02 -.266E-02 0.131E-02
 -----------------------------------------------------------------------------------------------
   0.409E-10 -.411E-11 -.254E-10   0.497E-13 -.171E-12 0.284E-13   0.000E+00 0.355E-14 0.355E-14   -.118E-12 0.223E-12 0.111E-12
 
 
 POSITION                                       TOTAL-FORCE (eV/Angst)
 -----------------------------------------------------------------------------------
      0.00000      0.00000      0.00000         0.000000     -0.000000     -0.000000
      0.79377      1.94445      2.02802         0.004491      0.001541      0.002936
      3.22273      1.46468      3.33406        -0.004491     -0.001541     -0.002936
      0.79584      1.11812      4.68951        -0.004289      0.000004      0.000312
      3.22066      2.29101      0.67257         0.004289     -0.000004     -0.000312
      1.58685      0.61334      3.07694        -0.003076      0.015429      0.002408
      4.05537      0.15742      4.44832        -0.001550      0.011823      0.000925
      1.56663      1.39728      0.41096        -0.006583      0.012038     -0.002904
      4.06257      0.99099      1.70485        -0.005664      0.011151     -0.000780
     -0.03887      3.25171      0.91376         0.001550     -0.011823     -0.000925
      2.42964      2.79579      2.28513         0.003076     -0.015429     -0.002408
     -0.04607      2.41814      3.65722         0.005664     -0.011151      0.000780
      2.44986      2.01185      4.95112         0.006583     -0.012038      0.002904
 -----------------------------------------------------------------------------------
    total drift:                                0.000000     -0.000000     -0.000000


--------------------------------------------------------------------------------------------------------



  FREE ENERGIE OF THE ION-ELECTRON SYSTEM (eV)
  ---------------------------------------------------
  free  energy   TOTEN  =       -80.3299678393 eV

  energy  without entropy=      -80.3204633447  energy(sigma->0) =      -80.32521559
 


--------------------------------------------------------------------------------------------------------


    POTLOK:  cpu time    0.0388: real time    0.0389


--------------------------------------------------------------------------------------------------------


     LOOP+:  cpu time  288.0817: real time  289.0653
    4ORBIT:  cpu time    0.0000: real time    0.0000

volume of typ            1:     6.0 %

volume of typ            2:    19.6 %

volume of typ            3:    10.0 %
 
total charge     
 
# of ion       s       p       d       tot
------------------------------------------
    1        2.065   0.212   0.081   2.357
    2        0.293   0.399   7.827   8.518
    3        0.293   0.399   7.827   8.518
    4        0.298   0.412   7.830   8.541
    5        0.298   0.412   7.830   8.541
    6        1.285   2.725   0.008   4.018
    7        1.275   2.749   0.007   4.032
    8        1.275   2.752   0.007   4.035
    9        1.273   2.757   0.007   4.037
   10        1.275   2.749   0.007   4.032
   11        1.285   2.725   0.008   4.018
   12        1.273   2.757   0.007   4.037
   13        1.275   2.752   0.007   4.035
--------------------------------------------------
tot          13.46   23.80   31.45   68.72
 
magnetization (x)
 
# of ion       s       p       d       tot
------------------------------------------
    1       -0.000  -0.000  -0.000  -0.000
    2        0.000   0.000  -0.006  -0.006
    3        0.000   0.000  -0.006  -0.006
    4        0.000  -0.000  -0.002  -0.002
    5        0.000  -0.000  -0.002  -0.002
    6       -0.000  -0.001  -0.000  -0.001
    7       -0.000  -0.001  -0.000  -0.001
    8       -0.000  -0.001  -0.000  -0.001
    9       -0.000  -0.000  -0.000  -0.000
   10       -0.000  -0.001  -0.000  -0.001
   11       -0.000  -0.001  -0.000  -0.001
   12       -0.000  -0.000  -0.000  -0.000
   13       -0.000  -0.001  -0.000  -0.001
--------------------------------------------------
tot          -0.00   -0.00   -0.02   -0.02
 

 total amount of memory used by VASP MPI-rank0    87505. kBytes
=======================================================================

   base      :      30000. kBytes
   nonlr-proj:       6739. kBytes
   fftplans  :       1390. kBytes
   grid      :       7898. kBytes
   one-center:        404. kBytes
   wavefun   :      41074. kBytes
 
  
  
 General timing and accounting informations for this job:
 ========================================================
  
                  Total CPU time used (sec):      295.922
                            User time (sec):      294.504
                          System time (sec):        1.419
                         Elapsed time (sec):      300.300
  
                   Maximum memory used (kb):      127724.
                   Average memory used (kb):           0.
  
                          Minor page faults:        31886
                          Major page faults:           26
                 Voluntary context switches:         1181
