 vasp.5.4.4.18Apr17-6-g9f103f2a35 (build May 12 2020 04:58:55) complex          
  
 MD_VERSION_INFO: Compiled 2020-05-12T11:58:55-UTC in devlin.sd.materialsdesign.
 com:/home/medea2/data/build/wwolf/vasp-gpu5.4.4/13047/x86_64/src/src/build/std 
 from svn 13047
 
 This VASP executable licensed from Materials Design, Inc.
 
 executed on                        Lin64 date 2023.03.16  12:28:02
 running on   16 total cores
 distrk:  each k-point on   16 cores,    1 groups
 distr:  one band on NCORES_PER_BAND=   1 cores,   16 groups


--------------------------------------------------------------------------------------------------------


 INCAR:
 POTCAR:    PAW_PBE Ni 02Aug2007                  
 POTCAR:    PAW_PBE O 08Apr2002                   

 ----------------------------------------------------------------------------- 
|                                                                             |
|           W    W    AA    RRRRR   N    N  II  N    N   GGGG   !!!           |
|           W    W   A  A   R    R  NN   N  II  NN   N  G    G  !!!           |
|           W    W  A    A  R    R  N N  N  II  N N  N  G       !!!           |
|           W WW W  AAAAAA  RRRRR   N  N N  II  N  N N  G  GGG   !            |
|           WW  WW  A    A  R   R   N   NN  II  N   NN  G    G                |
|           W    W  A    A  R    R  N    N  II  N    N   GGGG   !!!           |
|                                                                             |
|      For optimal performance we recommend to set                            |
|        NCORE= 4 - approx SQRT( number of cores)                             |
|      NCORE specifies how many cores store one orbital (NPAR=cpu/NCORE).     |
|      This setting can  greatly improve the performance of VASP for DFT.     |
|      The default,   NCORE=1            might be grossly inefficient         |
|      on modern multi-core architectures or massively parallel machines.     |
|      Do your own testing !!!!                                               |
|      Unfortunately you need to use the default for GW and RPA calculations. |
|      (for HF NCORE is supported but not extensively tested yet)             |
|                                                                             |
 ----------------------------------------------------------------------------- 

 POTCAR:    PAW_PBE Ni 02Aug2007                  
  local pseudopotential read in
  partial core-charges read in
  partial kinetic energy density read in
  atomic valenz-charges read in
  non local Contribution for L=           2  read in
    real space projection operators read in
  non local Contribution for L=           2  read in
    real space projection operators read in
  non local Contribution for L=           0  read in
    real space projection operators read in
  non local Contribution for L=           0  read in
    real space projection operators read in
  non local Contribution for L=           1  read in
    real space projection operators read in
  non local Contribution for L=           1  read in
    real space projection operators read in
    PAW grid and wavefunctions read in
 
   number of l-projection  operators is LMAX  =           6
   number of lm-projection operators is LMMAX =          18
 
 POTCAR:    PAW_PBE O 08Apr2002                   
  local pseudopotential read in
  partial core-charges read in
  partial kinetic energy density read in
  kinetic energy density of atom read in
  atomic valenz-charges read in
  non local Contribution for L=           0  read in
    real space projection operators read in
  non local Contribution for L=           0  read in
    real space projection operators read in
  non local Contribution for L=           1  read in
    real space projection operators read in
  non local Contribution for L=           1  read in
    real space projection operators read in
    PAW grid and wavefunctions read in
 
   number of l-projection  operators is LMAX  =           4
   number of lm-projection operators is LMMAX =           8
 

 ----------------------------------------------------------------------------- 
|                                                                             |
|  ADVICE TO THIS USER RUNNING 'VASP/VAMP'   (HEAR YOUR MASTER'S VOICE ...):  |
|                                                                             |
|      You have a (more or less) 'small supercell' and for smaller cells      |
|      it is recommended  to use the reciprocal-space projection scheme!      |
|      The real space optimization is not  efficient for small cells and it   |
|      is also less accurate ...                                              |
|      Therefore set LREAL=.FALSE. in the  INCAR file                         |
|                                                                             |
 ----------------------------------------------------------------------------- 

 Optimization of the real space projectors (new method)

 maximal supplied QI-value         = 16.25
 optimisation between [QCUT,QGAM] = [ 11.38, 22.75] = [ 36.24,144.96] Ry 
 Optimized for a Real-space Cutoff    1.47 Angstroem

   l    n(q)    QCUT    max X(q) W(low)/X(q) W(high)/X(q)  e(spline) 
   2      9    11.376    60.317    0.17E-03    0.16E-04    0.16E-06
   2      9    11.376    55.921    0.17E-03    0.16E-04    0.17E-06
   0     10    11.376    51.690    0.45E-04    0.60E-04    0.21E-06
   0     10    11.376    30.015    0.37E-04    0.55E-04    0.19E-06
   1     10    11.376    18.849    0.83E-04    0.11E-03    0.92E-07
   1     10    11.376    14.624    0.69E-04    0.92E-04    0.82E-07
 Optimization of the real space projectors (new method)

 maximal supplied QI-value         = 24.76
 optimisation between [QCUT,QGAM] = [ 11.39, 22.77] = [ 36.31,145.25] Ry 
 Optimized for a Real-space Cutoff    1.10 Angstroem

   l    n(q)    QCUT    max X(q) W(low)/X(q) W(high)/X(q)  e(spline) 
   0      7    11.387    20.381    0.22E-03    0.48E-03    0.18E-06
   0      7    11.387    15.268    0.22E-03    0.52E-03    0.19E-06
   1      7    11.387     5.964    0.22E-03    0.73E-03    0.24E-06
   1      7    11.387     5.382    0.19E-03    0.60E-03    0.21E-06

 ----------------------------------------------------------------------------- 
|                                                                             |
|  ADVICE TO THIS USER RUNNING 'VASP/VAMP'   (HEAR YOUR MASTER'S VOICE ...):  |
|                                                                             |
|      You enforced a specific xc-type in the INCAR file,                     |
|      a different type was found on the POTCAR file                          |
|          I HOPE YOU KNOW, WHAT YOU ARE  DOING                               |
|                                                                             |
 ----------------------------------------------------------------------------- 

  PAW_PBE Ni 02Aug2007                  :
 energy of atom  1       EATOM=-1077.6739
 kinetic energy error for atom=    0.0030 (will be added to EATOM!!)
  PAW_PBE O 08Apr2002                   :
 energy of atom  2       EATOM= -432.3788
 kinetic energy error for atom=    0.0224 (will be added to EATOM!!)
 
 
 POSCAR: Ni O (COD #1526380)_3                   
  positions in direct lattice
  No initial velocities read in
 exchange correlation table for  LEXCH =       14
   RHO(1)=    0.500       N(1)  =     2000
   RHO(2)=  100.500       N(2)  =     4000
 


--------------------------------------------------------------------------------------------------------


 ion  position               nearest neighbor table
   1  0.000  0.000  0.000-   2 2.05   2 2.05   2 2.05   2 2.05   2 2.05   2 2.05
   2  0.500  0.500  0.500-   1 2.05   1 2.05   1 2.05   1 2.05   1 2.05   1 2.05
 
  LATTYP: Found a trigonal (rhomboedric) cell.
 ALAT       =     2.9046022977
 COS(alpha) =     0.4990105693
  
  Lattice vectors:
  
 A1 = (   1.4537373900,   0.8393156700,   2.3704242900)
 A2 = (  -1.4537373900,   0.8393156700,   2.3704242900)
 A3 = (   0.0000000000,  -1.6786313500,   2.3704242900)


Analysis of symmetry for initial positions (statically):
=====================================================================
 Subroutine PRICEL returns:
 Original cell was already a primitive cell.
 

 Routine SETGRP: Setting up the symmetry group for a 
 trigonal (rhombohedral) supercell.


 Subroutine GETGRP returns: Found 12 space group operations
 (whereof 12 operations were pure point group operations)
 out of a pool of 12 trial point group operations.


The static configuration has the point symmetry D_3d.


Analysis of symmetry for dynamics (positions and initial velocities):
=====================================================================
 Subroutine PRICEL returns:
 Original cell was already a primitive cell.
 

 Routine SETGRP: Setting up the symmetry group for a 
 trigonal (rhombohedral) supercell.


 Subroutine GETGRP returns: Found 12 space group operations
 (whereof 12 operations were pure point group operations)
 out of a pool of 12 trial point group operations.


The dynamic configuration has the point symmetry D_3d.


Analysis of structural, dynamic, and magnetic symmetry:
=====================================================================
 Subroutine PRICEL returns:
 Original cell was already a primitive cell.
 

 Routine SETGRP: Setting up the symmetry group for a 
 trigonal (rhombohedral) supercell.


 Subroutine GETGRP returns: Found 12 space group operations
 (whereof 12 operations were pure point group operations)
 out of a pool of 12 trial point group operations.


The magnetic configuration has the point symmetry D_3d.


 Subroutine INISYM returns: Found 12 space group operations
 (whereof 12 operations are pure point group operations),
 and found     1 'primitive' translations

 
 
 KPOINTS: Automatic mesh                          

Automatic generation of k-mesh.
Space group operators:
 irot       det(A)        alpha          n_x          n_y          n_z        tau_x        tau_y        tau_z
    1     1.000000     0.000000     1.000000     0.000000     0.000000     0.000000     0.000000     0.000000
    2    -1.000000     0.000000     1.000000     0.000000     0.000000     0.000000     0.000000     0.000000
    3     1.000000   180.000000    -0.500000     0.866025     0.000000     0.000000     0.000000     0.000000
    4    -1.000000   180.000000    -0.500000     0.866025     0.000000     0.000000     0.000000     0.000000
    5     1.000000   120.000000    -0.000000     0.000000    -1.000000     0.000000     0.000000     0.000000
    6    -1.000000   120.000000    -0.000000     0.000000    -1.000000     0.000000     0.000000     0.000000
    7     1.000000   180.000000     1.000000     0.000000     0.000000     0.000000     0.000000     0.000000
    8    -1.000000   180.000000     1.000000     0.000000     0.000000     0.000000     0.000000     0.000000
    9     1.000000   120.000000    -0.000000    -0.000000     1.000000     0.000000     0.000000     0.000000
   10    -1.000000   120.000000    -0.000000    -0.000000     1.000000     0.000000     0.000000     0.000000
   11     1.000000   180.000000     0.500000     0.866025     0.000000     0.000000     0.000000     0.000000
   12    -1.000000   180.000000     0.500000     0.866025     0.000000     0.000000     0.000000     0.000000
 
 Subroutine IBZKPT returns following result:
 ===========================================
 
 Found    146 irreducible k-points:
 
 Following reciprocal coordinates:
            Coordinates               Weight
  0.000000  0.000000  0.000000      1.000000
  0.090909  0.000000 -0.000000      6.000000
  0.181818  0.000000 -0.000000      6.000000
  0.272727 -0.000000  0.000000      6.000000
  0.363636  0.000000 -0.000000      6.000000
  0.454545  0.000000  0.000000      6.000000
  0.090909  0.090909 -0.000000      6.000000
  0.181818  0.090909  0.000000     12.000000
  0.272727  0.090909 -0.000000     12.000000
  0.363636  0.090909 -0.000000     12.000000
  0.454545  0.090909 -0.000000     12.000000
 -0.454545  0.090909  0.000000     12.000000
 -0.363636  0.090909 -0.000000     12.000000
 -0.272727  0.090909  0.000000     12.000000
 -0.181818  0.090909  0.000000     12.000000
 -0.090909  0.090909  0.000000      6.000000
  0.181818  0.181818 -0.000000      6.000000
  0.272727  0.181818  0.000000     12.000000
  0.363636  0.181818  0.000000     12.000000
  0.454545  0.181818 -0.000000     12.000000
 -0.454545  0.181818  0.000000     12.000000
 -0.363636  0.181818  0.000000     12.000000
 -0.272727  0.181818 -0.000000     12.000000
 -0.181818  0.181818  0.000000      6.000000
  0.272727  0.272727  0.000000      6.000000
  0.363636  0.272727  0.000000     12.000000
  0.454545  0.272727 -0.000000     12.000000
 -0.454545  0.272727  0.000000     12.000000
 -0.363636  0.272727  0.000000     12.000000
 -0.272727  0.272727  0.000000      6.000000
  0.363636  0.363636 -0.000000      6.000000
  0.454545  0.363636  0.000000     12.000000
 -0.454545  0.363636  0.000000     12.000000
 -0.363636  0.363636  0.000000      6.000000
  0.454545  0.454545 -0.000000      6.000000
 -0.454545  0.454545 -0.000000      6.000000
  0.090909  0.090909  0.090909      2.000000
  0.181818  0.090909  0.090909      6.000000
  0.272727  0.090909  0.090909      6.000000
  0.363636  0.090909  0.090909      6.000000
  0.454545  0.090909  0.090909      6.000000
 -0.454545  0.090909  0.090909      6.000000
 -0.363636  0.090909  0.090909      6.000000
 -0.272727  0.090909  0.090909      6.000000
 -0.181818  0.090909  0.090909      6.000000
 -0.090909  0.090909  0.090909      6.000000
  0.181818  0.181818  0.090909      6.000000
  0.272727  0.181818  0.090909     12.000000
  0.363636  0.181818  0.090909     12.000000
  0.454545  0.181818  0.090909     12.000000
 -0.454545  0.181818  0.090909     12.000000
 -0.363636  0.181818  0.090909     12.000000
 -0.272727  0.181818  0.090909     12.000000
 -0.181818  0.181818  0.090909     12.000000
 -0.090909  0.181818  0.090909     12.000000
  0.272727  0.272727  0.090909      6.000000
  0.363636  0.272727  0.090909     12.000000
  0.454545  0.272727  0.090909     12.000000
 -0.454545  0.272727  0.090909     12.000000
 -0.363636  0.272727  0.090909     12.000000
 -0.272727  0.272727  0.090909     12.000000
 -0.181818  0.272727  0.090909     12.000000
 -0.090909  0.272727  0.090909     12.000000
  0.363636  0.363636  0.090909      6.000000
  0.454545  0.363636  0.090909     12.000000
 -0.454545  0.363636  0.090909     12.000000
 -0.363636  0.363636  0.090909     12.000000
 -0.272727  0.363636  0.090909     12.000000
 -0.181818  0.363636  0.090909     12.000000
 -0.090909  0.363636  0.090909     12.000000
  0.454545  0.454545  0.090909      6.000000
 -0.454545  0.454545  0.090909     12.000000
 -0.363636  0.454545  0.090909     12.000000
 -0.272727  0.454545  0.090909     12.000000
 -0.181818  0.454545  0.090909     12.000000
 -0.090909  0.454545  0.090909     12.000000
 -0.454545 -0.454545  0.090909      6.000000
 -0.363636 -0.454545  0.090909     12.000000
 -0.272727 -0.454545  0.090909     12.000000
 -0.181818 -0.454545  0.090909     12.000000
 -0.363636 -0.363636  0.090909      6.000000
 -0.272727 -0.363636  0.090909     12.000000
 -0.181818 -0.363636  0.090909     12.000000
 -0.272727 -0.272727  0.090909      6.000000
 -0.181818 -0.272727  0.090909     12.000000
 -0.181818 -0.181818  0.090909      6.000000
  0.181818  0.181818  0.181818      2.000000
  0.272727  0.181818  0.181818      6.000000
  0.363636  0.181818  0.181818      6.000000
  0.454545  0.181818  0.181818      6.000000
 -0.454545  0.181818  0.181818      6.000000
 -0.363636  0.181818  0.181818      6.000000
 -0.272727  0.181818  0.181818      6.000000
 -0.181818  0.181818  0.181818      6.000000
  0.272727  0.272727  0.181818      6.000000
  0.363636  0.272727  0.181818     12.000000
  0.454545  0.272727  0.181818     12.000000
 -0.454545  0.272727  0.181818     12.000000
 -0.363636  0.272727  0.181818     12.000000
 -0.272727  0.272727  0.181818     12.000000
 -0.181818  0.272727  0.181818     12.000000
  0.363636  0.363636  0.181818      6.000000
  0.454545  0.363636  0.181818     12.000000
 -0.454545  0.363636  0.181818     12.000000
 -0.363636  0.363636  0.181818     12.000000
 -0.272727  0.363636  0.181818     12.000000
 -0.181818  0.363636  0.181818     12.000000
  0.454545  0.454545  0.181818      6.000000
 -0.454545  0.454545  0.181818     12.000000
 -0.363636  0.454545  0.181818     12.000000
 -0.272727  0.454545  0.181818     12.000000
 -0.181818  0.454545  0.181818     12.000000
 -0.454545 -0.454545  0.181818      6.000000
 -0.363636 -0.454545  0.181818     12.000000
 -0.272727 -0.454545  0.181818     12.000000
 -0.363636 -0.363636  0.181818      6.000000
 -0.272727 -0.363636  0.181818     12.000000
 -0.272727 -0.272727  0.181818      6.000000
  0.272727  0.272727  0.272727      2.000000
  0.363636  0.272727  0.272727      6.000000
  0.454545  0.272727  0.272727      6.000000
 -0.454545  0.272727  0.272727      6.000000
 -0.363636  0.272727  0.272727      6.000000
 -0.272727  0.272727  0.272727      6.000000
  0.363636  0.363636  0.272727      6.000000
  0.454545  0.363636  0.272727     12.000000
 -0.454545  0.363636  0.272727     12.000000
 -0.363636  0.363636  0.272727     12.000000
 -0.272727  0.363636  0.272727     12.000000
  0.454545  0.454545  0.272727      6.000000
 -0.454545  0.454545  0.272727     12.000000
 -0.363636  0.454545  0.272727     12.000000
 -0.272727  0.454545  0.272727     12.000000
 -0.454545 -0.454545  0.272727      6.000000
 -0.363636 -0.454545  0.272727     12.000000
 -0.363636 -0.363636  0.272727      6.000000
  0.363636  0.363636  0.363636      2.000000
  0.454545  0.363636  0.363636      6.000000
 -0.454545  0.363636  0.363636      6.000000
 -0.363636  0.363636  0.363636      6.000000
  0.454545  0.454545  0.363636      6.000000
 -0.454545  0.454545  0.363636     12.000000
 -0.363636  0.454545  0.363636     12.000000
 -0.454545 -0.454545  0.363636      6.000000
  0.454545  0.454545  0.454545      2.000000
 -0.454545  0.454545  0.454545      6.000000
 
 Following cartesian coordinates:
            Coordinates               Weight
  0.000000  0.000000  0.000000      1.000000
  0.031267  0.018052  0.012784      6.000000
  0.062535  0.036104  0.025568      6.000000
  0.093802  0.054157  0.038351      6.000000
  0.125069  0.072209  0.051135      6.000000
  0.156337  0.090261  0.063919      6.000000
  0.000000  0.036104  0.025568      6.000000
  0.031267  0.054157  0.038351     12.000000
  0.062535  0.072209  0.051135     12.000000
  0.093802  0.090261  0.063919     12.000000
  0.125069  0.108313  0.076703     12.000000
 -0.187604 -0.072209 -0.051135     12.000000
 -0.156337 -0.054157 -0.038351     12.000000
 -0.125069 -0.036104 -0.025568     12.000000
 -0.093802 -0.018052 -0.012784     12.000000
 -0.062535  0.000000  0.000000      6.000000
  0.000000  0.072209  0.051135      6.000000
  0.031267  0.090261  0.063919     12.000000
  0.062535  0.108313  0.076703     12.000000
  0.093802  0.126366  0.089487     12.000000
 -0.218872 -0.054157 -0.038351     12.000000
 -0.187604 -0.036104 -0.025568     12.000000
 -0.156337 -0.018052 -0.012784     12.000000
 -0.125069  0.000000  0.000000      6.000000
  0.000000  0.108313  0.076703      6.000000
  0.031267  0.126366  0.089487     12.000000
  0.062535  0.144418  0.102270     12.000000
 -0.250139 -0.036104 -0.025568     12.000000
 -0.218872 -0.018052 -0.012784     12.000000
 -0.187604  0.000000  0.000000      6.000000
  0.000000  0.144418  0.102270      6.000000
  0.031267  0.162470  0.115054     12.000000
 -0.281406 -0.018052 -0.012784     12.000000
 -0.250139  0.000000  0.000000      6.000000
  0.000000  0.180522  0.127838      6.000000
 -0.312674  0.000000  0.000000      6.000000
  0.000000  0.000000  0.038351      2.000000
  0.031267  0.018052  0.051135      6.000000
  0.062535  0.036104  0.063919      6.000000
  0.093802  0.054157  0.076703      6.000000
  0.125069  0.072209  0.089487      6.000000
 -0.187604 -0.108313 -0.038351      6.000000
 -0.156337 -0.090261 -0.025568      6.000000
 -0.125069 -0.072209 -0.012784      6.000000
 -0.093802 -0.054157 -0.000000      6.000000
 -0.062535 -0.036104  0.012784      6.000000
  0.000000  0.036104  0.063919      6.000000
  0.031267  0.054157  0.076703     12.000000
  0.062535  0.072209  0.089487     12.000000
  0.093802  0.090261  0.102270     12.000000
 -0.218872 -0.090261 -0.025568     12.000000
 -0.187604 -0.072209 -0.012784     12.000000
 -0.156337 -0.054157 -0.000000     12.000000
 -0.125069 -0.036104  0.012784     12.000000
 -0.093802 -0.018052  0.025568     12.000000
  0.000000  0.072209  0.089487      6.000000
  0.031267  0.090261  0.102270     12.000000
  0.062535  0.108313  0.115054     12.000000
 -0.250139 -0.072209 -0.012784     12.000000
 -0.218872 -0.054157 -0.000000     12.000000
 -0.187604 -0.036104  0.012784     12.000000
 -0.156337 -0.018052  0.025568     12.000000
 -0.125069  0.000000  0.038351     12.000000
  0.000000  0.108313  0.115054      6.000000
  0.031267  0.126366  0.127838     12.000000
 -0.281406 -0.054157 -0.000000     12.000000
 -0.250139 -0.036104  0.012784     12.000000
 -0.218872 -0.018052  0.025568     12.000000
 -0.187604 -0.000000  0.038351     12.000000
 -0.156337  0.018052  0.051135     12.000000
  0.000000  0.144418  0.140622      6.000000
 -0.312674 -0.036104  0.012784     12.000000
 -0.281406 -0.018052  0.025568     12.000000
 -0.250139  0.000000  0.038351     12.000000
 -0.218872  0.018052  0.051135     12.000000
 -0.187604  0.036104  0.063919     12.000000
  0.000000 -0.216627 -0.115054      6.000000
  0.031267 -0.198574 -0.102270     12.000000
  0.062535 -0.180522 -0.089487     12.000000
  0.093802 -0.162470 -0.076703     12.000000
  0.000000 -0.180522 -0.089487      6.000000
  0.031267 -0.162470 -0.076703     12.000000
  0.062535 -0.144418 -0.063919     12.000000
  0.000000 -0.144418 -0.063919      6.000000
  0.031267 -0.126366 -0.051135     12.000000
  0.000000 -0.108313 -0.038351      6.000000
  0.000000  0.000000  0.076703      2.000000
  0.031267  0.018052  0.089487      6.000000
  0.062535  0.036104  0.102270      6.000000
  0.093802  0.054157  0.115054      6.000000
 -0.218872 -0.126366 -0.012784      6.000000
 -0.187604 -0.108313 -0.000000      6.000000
 -0.156337 -0.090261  0.012784      6.000000
 -0.125069 -0.072209  0.025568      6.000000
  0.000000  0.036104  0.102270      6.000000
  0.031267  0.054157  0.115054     12.000000
  0.062535  0.072209  0.127838     12.000000
 -0.250139 -0.108313 -0.000000     12.000000
 -0.218872 -0.090261  0.012784     12.000000
 -0.187604 -0.072209  0.025568     12.000000
 -0.156337 -0.054157  0.038351     12.000000
  0.000000  0.072209  0.127838      6.000000
  0.031267  0.090261  0.140622     12.000000
 -0.281406 -0.090261  0.012784     12.000000
 -0.250139 -0.072209  0.025568     12.000000
 -0.218872 -0.054157  0.038351     12.000000
 -0.187604 -0.036104  0.051135     12.000000
  0.000000  0.108313  0.153406      6.000000
 -0.312674 -0.072209  0.025568     12.000000
 -0.281406 -0.054157  0.038351     12.000000
 -0.250139 -0.036104  0.051135     12.000000
 -0.218872 -0.018052  0.063919     12.000000
  0.000000 -0.252731 -0.102270      6.000000
  0.031267 -0.234679 -0.089487     12.000000
  0.062535 -0.216627 -0.076703     12.000000
  0.000000 -0.216627 -0.076703      6.000000
  0.031267 -0.198574 -0.063919     12.000000
  0.000000 -0.180522 -0.051135      6.000000
  0.000000  0.000000  0.115054      2.000000
  0.031267  0.018052  0.127838      6.000000
  0.062535  0.036104  0.140622      6.000000
 -0.250139 -0.144418  0.012784      6.000000
 -0.218872 -0.126366  0.025568      6.000000
 -0.187604 -0.108313  0.038351      6.000000
  0.000000  0.036104  0.140622      6.000000
  0.031267  0.054157  0.153406     12.000000
 -0.281406 -0.126366  0.025568     12.000000
 -0.250139 -0.108313  0.038351     12.000000
 -0.218872 -0.090261  0.051135     12.000000
  0.000000  0.072209  0.166189      6.000000
 -0.312674 -0.108313  0.038351     12.000000
 -0.281406 -0.090261  0.051135     12.000000
 -0.250139 -0.072209  0.063919     12.000000
  0.000000 -0.288836 -0.089487      6.000000
  0.031267 -0.270783 -0.076703     12.000000
  0.000000 -0.252731 -0.063919      6.000000
  0.000000  0.000000  0.153406      2.000000
  0.031267  0.018052  0.166189      6.000000
 -0.281406 -0.162470  0.038351      6.000000
 -0.250139 -0.144418  0.051135      6.000000
  0.000000  0.036104  0.178973      6.000000
 -0.312674 -0.144418  0.051135     12.000000
 -0.281406 -0.126366  0.063919     12.000000
  0.000000 -0.324940 -0.076703      6.000000
  0.000000  0.000000  0.191757      2.000000
 -0.312674 -0.180522  0.063919      6.000000
 


--------------------------------------------------------------------------------------------------------




 Dimension of arrays:
   k-points           NKPTS =    146   k-points in BZ     NKDIM =    146   number of bands    NBANDS=     16
   number of dos      NEDOS =    301   number of ions     NIONS =      2
   non local maximal  LDIM  =      6   non local SUM 2l+1 LMDIM =     18
   total plane-waves  NPLWV =  13824
   max r-space proj   IRMAX =  10744   max aug-charges    IRDMAX=  26018
   dimension x,y,z NGX =    24 NGY =   24 NGZ =   24
   dimension x,y,z NGXF=    48 NGYF=   48 NGZF=   48
   support grid    NGXF=    48 NGYF=   48 NGZF=   48
   ions per type =               1   1
   NGX,Y,Z   is equivalent  to a cutoff of  13.74, 13.74, 13.74 a.u.
   NGXF,Y,Z  is equivalent  to a cutoff of  27.47, 27.47, 27.47 a.u.

 SYSTEM =  unknown system                          
 POSCAR =  Ni O (COD #1526380)_3                   

 Startparameter for this run:
   NWRITE =      1    write-flag & timer
   PREC   = accura    normal or accurate (medium, high low for compatibility)
   ISTART =      0    job   : 0-new  1-cont  2-samecut
   ICHARG =      2    charge: 1-file 2-atom 10-const
   ISPIN  =      2    spin polarized calculation?
   LNONCOLLINEAR =      F non collinear calculations
   LSORBIT =      F    spin-orbit coupling
   INIWAV =      1    electr: 0-lowe 1-rand  2-diag
   LASPH  =      F    aspherical Exc in radial PAW
   METAGGA=      F    non-selfconsistent MetaGGA calc.

 Electronic Relaxation 1
   ENCUT  =  500.0 eV  36.75 Ry    6.06 a.u.   5.30  5.30  5.30*2*pi/ulx,y,z
   ENINI  =  500.0     initial cutoff
   ENAUG  =  605.4 eV  augmentation charge cutoff
   NELM   =     80;   NELMIN=  2; NELMDL= -5     # of ELM steps 
   EDIFF  = 0.1E-04   stopping-criterion for ELM
   LREAL  =      T    real-space projection
   NLSPLINE    = F    spline interpolate recip. space projectors
   LCOMPAT=      F    compatible to vasp.4.4
   GGA_COMPAT  = T    GGA compatible to vasp.4.4-vasp.4.6
   LMAXPAW     = -100 max onsite density
   LMAXMIX     =    2 max onsite mixed and CHGCAR
   VOSKOWN=      1    Vosko Wilk Nusair interpolation
   ROPT   =   -0.00025  -0.00025
 Ionic relaxation
   EDIFFG = 0.1E-03   stopping-criterion for IOM
   NSW    =      0    number of steps for IOM
   NBLOCK =      1;   KBLOCK =      1    inner block; outer block 
   IBRION =     -1    ionic relax: 0-MD 1-quasi-New 2-CG
   NFREE  =      0    steps in history (QN), initial steepest desc. (CG)
   ISIF   =      2    stress and relaxation
   IWAVPR =     10    prediction:  0-non 1-charg 2-wave 3-comb
   ISYM   =      2    0-nonsym 1-usesym 2-fastsym
   LCORR  =      T    Harris-Foulkes like correction to forces

   POTIM  = 0.5000    time-step for ionic-motion
   TEIN   =    0.0    initial temperature
   TEBEG  =    0.0;   TEEND  =   0.0 temperature during run
   SMASS  =  -3.00    Nose mass-parameter (am)
   estimated Nose-frequenzy (Omega)   =  0.10E-29 period in steps =****** mass=  -0.193E-27a.u.
   SCALEE = 1.0000    scale energy and forces
   NPACO  =    256;   APACO  = 16.0  distance and # of slots for P.C.
   PSTRESS=    0.0 pullay stress

  Mass of Ions in am
   POMASS =  58.69 16.00
  Ionic Valenz
   ZVAL   =  10.00  6.00
  Atomic Wigner-Seitz radii
   RWIGS  =   1.15  0.73
  virtual crystal weights 
   VCA    =   1.00  1.00
   NELECT =      16.0000    total number of electrons
   NUPDOWN=      -1.0000    fix difference up-down

 DOS related values:
   EMIN   =  10.00;   EMAX   =-10.00  energy-range for DOS
   EFERMI =   0.00
   ISMEAR =     0;   SIGMA  =   0.05  broadening in eV -4-tet -1-fermi 0-gaus

 Electronic relaxation 2 (details)
   IALGO  =     38    algorithm
   LDIAG  =      T    sub-space diagonalisation (order eigenvalues)
   LSUBROT=      F    optimize rotation matrix (better conditioning)
   TURBO    =      0    0=normal 1=particle mesh
   IRESTART =      0    0=no restart 2=restart with 2 vectors
   NREBOOT  =      0    no. of reboots
   NMIN     =      0    reboot dimension
   EREF     =   0.00    reference energy to select bands
   IMIX   =      4    mixing-type and parameters
     AMIX     =   0.40;   BMIX     =  1.00
     AMIX_MAG =   1.60;   BMIX_MAG =  1.00
     AMIN     =   0.10
     WC   =   100.;   INIMIX=   1;  MIXPRE=   1;  MAXMIX= -45

 Intra band minimization:
   WEIMIN = 0.0000     energy-eigenvalue tresh-hold
   EBREAK =  0.16E-06  absolut break condition
   DEPER  =   0.30     relativ break condition  

   TIME   =   0.40     timestep for ELM

  volume/ion in A,a.u.               =       8.68        58.55
  Fermi-wavevector in a.u.,A,eV,Ry     =   1.593377  3.011046 34.543166  2.538851
  Thomas-Fermi vector in A             =   2.691617
 
 Write flags
   LWAVE        =      F    write WAVECAR
   LDOWNSAMPLE  =      F    k-point downsampling of WAVECAR
   LCHARG       =      T    write CHGCAR
   LVTOT        =      F    write LOCPOT, total local potential
   LVHAR        =      F    write LOCPOT, Hartree potential only
   LELF         =      F    write electronic localiz. function (ELF)
   LORBIT       =      0    0 simple, 1 ext, 2 COOP (PROOUT), +10 PAW based schemes


 Dipole corrections
   LMONO  =      F    monopole corrections only (constant potential shift)
   LDIPOL =      F    correct potential (dipole corrections)
   IDIPOL =      0    1-x, 2-y, 3-z, 4-all directions 
   EPSILON=  1.0000000 bulk dielectric constant

 Exchange correlation treatment:
   GGA     =    PS    GGA type
   LEXCH   =    14    internal setting for exchange type
   VOSKOWN=      1    Vosko Wilk Nusair interpolation
   LHFCALC =     F    Hartree Fock is set to
   LHFONE  =     F    Hartree Fock one center treatment
   AEXX    =    0.0000 exact exchange contribution

 Linear response parameters
   LEPSILON=     F    determine dielectric tensor
   LRPA    =     F    only Hartree local field effects (RPA)
   LNABLA  =     F    use nabla operator in PAW spheres
   LVEL    =     F    velocity operator in full k-point grid
   LINTERFAST=   F  fast interpolation
   KINTER  =     0    interpolate to denser k-point grid
   CSHIFT  =0.1000    complex shift for real part using Kramers Kronig
   OMEGAMAX=  -1.0    maximum frequency
   DEG_THRESHOLD= 0.2000000E-02 threshold for treating states as degnerate
   RTIME   =   -0.100 relaxation time in fs
  (WPLASMAI=    0.000 imaginary part of plasma frequency in eV, 0.658/RTIME)
   DFIELD  = 0.0000000 0.0000000 0.0000000 field for delta impulse in time
 
 Orbital magnetization related:
   ORBITALMAG=     F  switch on orbital magnetization
   LCHIMAG   =     F  perturbation theory with respect to B field
   DQ        =  0.001000  dq finite difference perturbation B field
   LLRAUG    =     F  two centre corrections for induced B field



--------------------------------------------------------------------------------------------------------


 Static calculation
 charge density and potential will be updated during run
 spin polarized calculation
 Variant of blocked Davidson
 Davidson routine will perform the subspace rotation
 perform sub-space diagonalisation
    after iterative eigenvector-optimisation
 modified Broyden-mixing scheme, WC =      100.0
 initial mixing is a Kerker type mixing with AMIX =  0.4000 and BMIX =      1.0000
 Hartree-type preconditioning will be used
 using additional bands            8
 real space projection scheme for non local part
 use partial core corrections
 calculate Harris-corrections to forces 
   (improved forces if not selfconsistent)
 use gradient corrections 
 use of overlap-Matrix (Vanderbilt PP)
 Gauss-broadening in eV      SIGMA  =   0.05


--------------------------------------------------------------------------------------------------------


  energy-cutoff  :      500.00
  volume of cell :       17.35
      direct lattice vectors                 reciprocal lattice vectors
     1.453737390  0.839315670  2.370424290     0.343941075  0.198574472  0.140621802
    -1.453737390  0.839315670  2.370424290    -0.343941075  0.198574472  0.140621802
     0.000000000 -1.678631350  2.370424290     0.000000000 -0.397148944  0.140621801

  length of vectors
     2.904602298  2.904602298  2.904602300     0.421309595  0.421309595  0.421309595


 
 k-points in units of 2pi/SCALE and weight: Automatic mesh                          
   0.00000000  0.00000000  0.00000000       0.001
   0.03126737  0.01805222  0.01278380       0.005
   0.06253474  0.03610445  0.02556760       0.005
   0.09380211  0.05415667  0.03835140       0.005
   0.12506948  0.07220890  0.05113520       0.005
   0.15633685  0.09026112  0.06391900       0.005
   0.00000000  0.03610445  0.02556760       0.005
   0.03126737  0.05415667  0.03835140       0.009
   0.06253474  0.07220890  0.05113520       0.009
   0.09380211  0.09026112  0.06391900       0.009
   0.12506948  0.10831335  0.07670280       0.009
  -0.18760422 -0.07220890 -0.05113520       0.009
  -0.15633685 -0.05415667 -0.03835140       0.009
  -0.12506948 -0.03610445 -0.02556760       0.009
  -0.09380211 -0.01805222 -0.01278380       0.009
  -0.06253474  0.00000000  0.00000000       0.005
   0.00000000  0.07220890  0.05113520       0.005
   0.03126737  0.09026112  0.06391900       0.009
   0.06253474  0.10831335  0.07670280       0.009
   0.09380211  0.12636557  0.08948660       0.009
  -0.21887159 -0.05415667 -0.03835140       0.009
  -0.18760422 -0.03610445 -0.02556760       0.009
  -0.15633685 -0.01805222 -0.01278380       0.009
  -0.12506948  0.00000000  0.00000000       0.005
   0.00000000  0.10831335  0.07670280       0.005
   0.03126737  0.12636557  0.08948660       0.009
   0.06253474  0.14441780  0.10227040       0.009
  -0.25013896 -0.03610445 -0.02556760       0.009
  -0.21887159 -0.01805222 -0.01278380       0.009
  -0.18760422  0.00000000  0.00000000       0.005
   0.00000000  0.14441780  0.10227040       0.005
   0.03126737  0.16247002  0.11505420       0.009
  -0.28140633 -0.01805222 -0.01278380       0.009
  -0.25013896  0.00000000  0.00000000       0.005
   0.00000000  0.18052225  0.12783800       0.005
  -0.31267370  0.00000000  0.00000000       0.005
   0.00000000  0.00000000  0.03835140       0.002
   0.03126737  0.01805222  0.05113520       0.005
   0.06253474  0.03610445  0.06391900       0.005
   0.09380211  0.05415667  0.07670280       0.005
   0.12506948  0.07220890  0.08948660       0.005
  -0.18760422 -0.10831335 -0.03835140       0.005
  -0.15633685 -0.09026112 -0.02556760       0.005
  -0.12506948 -0.07220890 -0.01278380       0.005
  -0.09380211 -0.05415667 -0.00000000       0.005
  -0.06253474 -0.03610445  0.01278380       0.005
   0.00000000  0.03610445  0.06391900       0.005
   0.03126737  0.05415667  0.07670280       0.009
   0.06253474  0.07220890  0.08948660       0.009
   0.09380211  0.09026112  0.10227040       0.009
  -0.21887159 -0.09026112 -0.02556760       0.009
  -0.18760422 -0.07220890 -0.01278380       0.009
  -0.15633685 -0.05415667 -0.00000000       0.009
  -0.12506948 -0.03610445  0.01278380       0.009
  -0.09380211 -0.01805222  0.02556760       0.009
   0.00000000  0.07220890  0.08948660       0.005
   0.03126737  0.09026112  0.10227040       0.009
   0.06253474  0.10831335  0.11505420       0.009
  -0.25013896 -0.07220890 -0.01278380       0.009
  -0.21887159 -0.05415667 -0.00000000       0.009
  -0.18760422 -0.03610445  0.01278380       0.009
  -0.15633685 -0.01805222  0.02556760       0.009
  -0.12506948  0.00000000  0.03835140       0.009
   0.00000000  0.10831335  0.11505420       0.005
   0.03126737  0.12636557  0.12783800       0.009
  -0.28140633 -0.05415667 -0.00000000       0.009
  -0.25013896 -0.03610445  0.01278380       0.009
  -0.21887159 -0.01805222  0.02556760       0.009
  -0.18760422 -0.00000000  0.03835140       0.009
  -0.15633685  0.01805222  0.05113520       0.009
   0.00000000  0.14441780  0.14062180       0.005
  -0.31267370 -0.03610445  0.01278380       0.009
  -0.28140633 -0.01805222  0.02556760       0.009
  -0.25013896  0.00000000  0.03835140       0.009
  -0.21887159  0.01805222  0.05113520       0.009
  -0.18760422  0.03610445  0.06391900       0.009
   0.00000000 -0.21662670 -0.11505420       0.005
   0.03126737 -0.19857447 -0.10227040       0.009
   0.06253474 -0.18052225 -0.08948660       0.009
   0.09380211 -0.16247002 -0.07670280       0.009
   0.00000000 -0.18052225 -0.08948660       0.005
   0.03126737 -0.16247002 -0.07670280       0.009
   0.06253474 -0.14441780 -0.06391900       0.009
   0.00000000 -0.14441780 -0.06391900       0.005
   0.03126737 -0.12636557 -0.05113520       0.009
   0.00000000 -0.10831335 -0.03835140       0.005
   0.00000000  0.00000000  0.07670280       0.002
   0.03126737  0.01805222  0.08948660       0.005
   0.06253474  0.03610445  0.10227040       0.005
   0.09380211  0.05415667  0.11505420       0.005
  -0.21887159 -0.12636557 -0.01278380       0.005
  -0.18760422 -0.10831335 -0.00000000       0.005
  -0.15633685 -0.09026112  0.01278380       0.005
  -0.12506948 -0.07220890  0.02556760       0.005
   0.00000000  0.03610445  0.10227040       0.005
   0.03126737  0.05415667  0.11505420       0.009
   0.06253474  0.07220890  0.12783800       0.009
  -0.25013896 -0.10831335 -0.00000000       0.009
  -0.21887159 -0.09026112  0.01278380       0.009
  -0.18760422 -0.07220890  0.02556760       0.009
  -0.15633685 -0.05415667  0.03835140       0.009
   0.00000000  0.07220890  0.12783800       0.005
   0.03126737  0.09026112  0.14062180       0.009
  -0.28140633 -0.09026112  0.01278380       0.009
  -0.25013896 -0.07220890  0.02556760       0.009
  -0.21887159 -0.05415667  0.03835140       0.009
  -0.18760422 -0.03610445  0.05113520       0.009
   0.00000000  0.10831335  0.15340560       0.005
  -0.31267370 -0.07220890  0.02556760       0.009
  -0.28140633 -0.05415667  0.03835140       0.009
  -0.25013896 -0.03610445  0.05113520       0.009
  -0.21887159 -0.01805222  0.06391900       0.009
   0.00000000 -0.25273115 -0.10227040       0.005
   0.03126737 -0.23467892 -0.08948660       0.009
   0.06253474 -0.21662670 -0.07670280       0.009
   0.00000000 -0.21662670 -0.07670280       0.005
   0.03126737 -0.19857447 -0.06391900       0.009
   0.00000000 -0.18052225 -0.05113520       0.005
   0.00000000  0.00000000  0.11505420       0.002
   0.03126737  0.01805222  0.12783800       0.005
   0.06253474  0.03610445  0.14062180       0.005
  -0.25013896 -0.14441780  0.01278380       0.005
  -0.21887159 -0.12636557  0.02556760       0.005
  -0.18760422 -0.10831335  0.03835140       0.005
   0.00000000  0.03610445  0.14062180       0.005
   0.03126737  0.05415667  0.15340560       0.009
  -0.28140633 -0.12636557  0.02556760       0.009
  -0.25013896 -0.10831335  0.03835140       0.009
  -0.21887159 -0.09026112  0.05113520       0.009
   0.00000000  0.07220890  0.16618940       0.005
  -0.31267370 -0.10831335  0.03835140       0.009
  -0.28140633 -0.09026112  0.05113520       0.009
  -0.25013896 -0.07220890  0.06391900       0.009
   0.00000000 -0.28883560 -0.08948660       0.005
   0.03126737 -0.27078337 -0.07670280       0.009
   0.00000000 -0.25273115 -0.06391900       0.005
   0.00000000  0.00000000  0.15340560       0.002
   0.03126737  0.01805222  0.16618940       0.005
  -0.28140633 -0.16247002  0.03835140       0.005
  -0.25013896 -0.14441780  0.05113520       0.005
   0.00000000  0.03610445  0.17897320       0.005
  -0.31267370 -0.14441780  0.05113520       0.009
  -0.28140633 -0.12636557  0.06391900       0.009
   0.00000000 -0.32494005 -0.07670280       0.005
   0.00000000  0.00000000  0.19175700       0.002
  -0.31267370 -0.18052225  0.06391900       0.005
 
 k-points in reciprocal lattice and weights: Automatic mesh                          
   0.00000000  0.00000000  0.00000000       0.001
   0.09090909  0.00000000 -0.00000000       0.005
   0.18181818  0.00000000 -0.00000000       0.005
   0.27272727 -0.00000000  0.00000000       0.005
   0.36363636  0.00000000 -0.00000000       0.005
   0.45454545  0.00000000  0.00000000       0.005
   0.09090909  0.09090909 -0.00000000       0.005
   0.18181818  0.09090909  0.00000000       0.009
   0.27272727  0.09090909 -0.00000000       0.009
   0.36363636  0.09090909 -0.00000000       0.009
   0.45454545  0.09090909 -0.00000000       0.009
  -0.45454545  0.09090909  0.00000000       0.009
  -0.36363636  0.09090909 -0.00000000       0.009
  -0.27272727  0.09090909  0.00000000       0.009
  -0.18181818  0.09090909  0.00000000       0.009
  -0.09090909  0.09090909  0.00000000       0.005
   0.18181818  0.18181818 -0.00000000       0.005
   0.27272727  0.18181818  0.00000000       0.009
   0.36363636  0.18181818  0.00000000       0.009
   0.45454545  0.18181818 -0.00000000       0.009
  -0.45454545  0.18181818  0.00000000       0.009
  -0.36363636  0.18181818  0.00000000       0.009
  -0.27272727  0.18181818 -0.00000000       0.009
  -0.18181818  0.18181818  0.00000000       0.005
   0.27272727  0.27272727  0.00000000       0.005
   0.36363636  0.27272727  0.00000000       0.009
   0.45454545  0.27272727 -0.00000000       0.009
  -0.45454545  0.27272727  0.00000000       0.009
  -0.36363636  0.27272727  0.00000000       0.009
  -0.27272727  0.27272727  0.00000000       0.005
   0.36363636  0.36363636 -0.00000000       0.005
   0.45454545  0.36363636  0.00000000       0.009
  -0.45454545  0.36363636  0.00000000       0.009
  -0.36363636  0.36363636  0.00000000       0.005
   0.45454545  0.45454545 -0.00000000       0.005
  -0.45454545  0.45454545 -0.00000000       0.005
   0.09090909  0.09090909  0.09090909       0.002
   0.18181818  0.09090909  0.09090909       0.005
   0.27272727  0.09090909  0.09090909       0.005
   0.36363636  0.09090909  0.09090909       0.005
   0.45454545  0.09090909  0.09090909       0.005
  -0.45454545  0.09090909  0.09090909       0.005
  -0.36363636  0.09090909  0.09090909       0.005
  -0.27272727  0.09090909  0.09090909       0.005
  -0.18181818  0.09090909  0.09090909       0.005
  -0.09090909  0.09090909  0.09090909       0.005
   0.18181818  0.18181818  0.09090909       0.005
   0.27272727  0.18181818  0.09090909       0.009
   0.36363636  0.18181818  0.09090909       0.009
   0.45454545  0.18181818  0.09090909       0.009
  -0.45454545  0.18181818  0.09090909       0.009
  -0.36363636  0.18181818  0.09090909       0.009
  -0.27272727  0.18181818  0.09090909       0.009
  -0.18181818  0.18181818  0.09090909       0.009
  -0.09090909  0.18181818  0.09090909       0.009
   0.27272727  0.27272727  0.09090909       0.005
   0.36363636  0.27272727  0.09090909       0.009
   0.45454545  0.27272727  0.09090909       0.009
  -0.45454545  0.27272727  0.09090909       0.009
  -0.36363636  0.27272727  0.09090909       0.009
  -0.27272727  0.27272727  0.09090909       0.009
  -0.18181818  0.27272727  0.09090909       0.009
  -0.09090909  0.27272727  0.09090909       0.009
   0.36363636  0.36363636  0.09090909       0.005
   0.45454545  0.36363636  0.09090909       0.009
  -0.45454545  0.36363636  0.09090909       0.009
  -0.36363636  0.36363636  0.09090909       0.009
  -0.27272727  0.36363636  0.09090909       0.009
  -0.18181818  0.36363636  0.09090909       0.009
  -0.09090909  0.36363636  0.09090909       0.009
   0.45454545  0.45454545  0.09090909       0.005
  -0.45454545  0.45454545  0.09090909       0.009
  -0.36363636  0.45454545  0.09090909       0.009
  -0.27272727  0.45454545  0.09090909       0.009
  -0.18181818  0.45454545  0.09090909       0.009
  -0.09090909  0.45454545  0.09090909       0.009
  -0.45454545 -0.45454545  0.09090909       0.005
  -0.36363636 -0.45454545  0.09090909       0.009
  -0.27272727 -0.45454545  0.09090909       0.009
  -0.18181818 -0.45454545  0.09090909       0.009
  -0.36363636 -0.36363636  0.09090909       0.005
  -0.27272727 -0.36363636  0.09090909       0.009
  -0.18181818 -0.36363636  0.09090909       0.009
  -0.27272727 -0.27272727  0.09090909       0.005
  -0.18181818 -0.27272727  0.09090909       0.009
  -0.18181818 -0.18181818  0.09090909       0.005
   0.18181818  0.18181818  0.18181818       0.002
   0.27272727  0.18181818  0.18181818       0.005
   0.36363636  0.18181818  0.18181818       0.005
   0.45454545  0.18181818  0.18181818       0.005
  -0.45454545  0.18181818  0.18181818       0.005
  -0.36363636  0.18181818  0.18181818       0.005
  -0.27272727  0.18181818  0.18181818       0.005
  -0.18181818  0.18181818  0.18181818       0.005
   0.27272727  0.27272727  0.18181818       0.005
   0.36363636  0.27272727  0.18181818       0.009
   0.45454545  0.27272727  0.18181818       0.009
  -0.45454545  0.27272727  0.18181818       0.009
  -0.36363636  0.27272727  0.18181818       0.009
  -0.27272727  0.27272727  0.18181818       0.009
  -0.18181818  0.27272727  0.18181818       0.009
   0.36363636  0.36363636  0.18181818       0.005
   0.45454545  0.36363636  0.18181818       0.009
  -0.45454545  0.36363636  0.18181818       0.009
  -0.36363636  0.36363636  0.18181818       0.009
  -0.27272727  0.36363636  0.18181818       0.009
  -0.18181818  0.36363636  0.18181818       0.009
   0.45454545  0.45454545  0.18181818       0.005
  -0.45454545  0.45454545  0.18181818       0.009
  -0.36363636  0.45454545  0.18181818       0.009
  -0.27272727  0.45454545  0.18181818       0.009
  -0.18181818  0.45454545  0.18181818       0.009
  -0.45454545 -0.45454545  0.18181818       0.005
  -0.36363636 -0.45454545  0.18181818       0.009
  -0.27272727 -0.45454545  0.18181818       0.009
  -0.36363636 -0.36363636  0.18181818       0.005
  -0.27272727 -0.36363636  0.18181818       0.009
  -0.27272727 -0.27272727  0.18181818       0.005
   0.27272727  0.27272727  0.27272727       0.002
   0.36363636  0.27272727  0.27272727       0.005
   0.45454545  0.27272727  0.27272727       0.005
  -0.45454545  0.27272727  0.27272727       0.005
  -0.36363636  0.27272727  0.27272727       0.005
  -0.27272727  0.27272727  0.27272727       0.005
   0.36363636  0.36363636  0.27272727       0.005
   0.45454545  0.36363636  0.27272727       0.009
  -0.45454545  0.36363636  0.27272727       0.009
  -0.36363636  0.36363636  0.27272727       0.009
  -0.27272727  0.36363636  0.27272727       0.009
   0.45454545  0.45454545  0.27272727       0.005
  -0.45454545  0.45454545  0.27272727       0.009
  -0.36363636  0.45454545  0.27272727       0.009
  -0.27272727  0.45454545  0.27272727       0.009
  -0.45454545 -0.45454545  0.27272727       0.005
  -0.36363636 -0.45454545  0.27272727       0.009
  -0.36363636 -0.36363636  0.27272727       0.005
   0.36363636  0.36363636  0.36363636       0.002
   0.45454545  0.36363636  0.36363636       0.005
  -0.45454545  0.36363636  0.36363636       0.005
  -0.36363636  0.36363636  0.36363636       0.005
   0.45454545  0.45454545  0.36363636       0.005
  -0.45454545  0.45454545  0.36363636       0.009
  -0.36363636  0.45454545  0.36363636       0.009
  -0.45454545 -0.45454545  0.36363636       0.005
   0.45454545  0.45454545  0.45454545       0.002
  -0.45454545  0.45454545  0.45454545       0.005
 
 position of ions in fractional coordinates (direct lattice) 
   0.00000000  0.00000000  0.00000000
   0.50000000  0.50000000  0.50000000
 
 position of ions in cartesian coordinates  (Angst):
   0.00000000  0.00000000  0.00000000
   0.00000000 -0.00000001  3.55563643
 


--------------------------------------------------------------------------------------------------------


 k-point  1 :   0.0000 0.0000 0.0000  plane waves:     459
 k-point  2 :   0.0909 0.0000-0.0000  plane waves:     441
 k-point  3 :   0.1818 0.0000-0.0000  plane waves:     452
 k-point  4 :   0.2727-0.0000 0.0000  plane waves:     437
 k-point  5 :   0.3636 0.0000-0.0000  plane waves:     431
 k-point  6 :   0.4545 0.0000 0.0000  plane waves:     434
 k-point  7 :   0.0909 0.0909-0.0000  plane waves:     435
 k-point  8 :   0.1818 0.0909 0.0000  plane waves:     450
 k-point  9 :   0.2727 0.0909-0.0000  plane waves:     443
 k-point 10 :   0.3636 0.0909-0.0000  plane waves:     440
 k-point 11 :   0.4545 0.0909-0.0000  plane waves:     438
 k-point 12 :  -0.4545 0.0909 0.0000  plane waves:     444
 k-point 13 :  -0.3636 0.0909-0.0000  plane waves:     439
 k-point 14 :  -0.2727 0.0909 0.0000  plane waves:     447
 k-point 15 :  -0.1818 0.0909 0.0000  plane waves:     448
 k-point 16 :  -0.0909 0.0909 0.0000  plane waves:     445
 k-point 17 :   0.1818 0.1818-0.0000  plane waves:     443
 k-point 18 :   0.2727 0.1818 0.0000  plane waves:     440
 k-point 19 :   0.3636 0.1818 0.0000  plane waves:     444
 k-point 20 :   0.4545 0.1818-0.0000  plane waves:     443
 k-point 21 :  -0.4545 0.1818 0.0000  plane waves:     444
 k-point 22 :  -0.3636 0.1818 0.0000  plane waves:     439
 k-point 23 :  -0.2727 0.1818-0.0000  plane waves:     438
 k-point 24 :  -0.1818 0.1818 0.0000  plane waves:     441
 k-point 25 :   0.2727 0.2727 0.0000  plane waves:     444
 k-point 26 :   0.3636 0.2727 0.0000  plane waves:     439
 k-point 27 :   0.4545 0.2727-0.0000  plane waves:     438
 k-point 28 :  -0.4545 0.2727 0.0000  plane waves:     441
 k-point 29 :  -0.3636 0.2727 0.0000  plane waves:     445
 k-point 30 :  -0.2727 0.2727 0.0000  plane waves:     437
 k-point 31 :   0.3636 0.3636-0.0000  plane waves:     444
 k-point 32 :   0.4545 0.3636 0.0000  plane waves:     445
 k-point 33 :  -0.4545 0.3636 0.0000  plane waves:     439
 k-point 34 :  -0.3636 0.3636 0.0000  plane waves:     440
 k-point 35 :   0.4545 0.4545-0.0000  plane waves:     451
 k-point 36 :  -0.4545 0.4545-0.0000  plane waves:     446
 k-point 37 :   0.0909 0.0909 0.0909  plane waves:     441
 k-point 38 :   0.1818 0.0909 0.0909  plane waves:     445
 k-point 39 :   0.2727 0.0909 0.0909  plane waves:     447
 k-point 40 :   0.3636 0.0909 0.0909  plane waves:     447
 k-point 41 :   0.4545 0.0909 0.0909  plane waves:     439
 k-point 42 :  -0.4545 0.0909 0.0909  plane waves:     445
 k-point 43 :  -0.3636 0.0909 0.0909  plane waves:     438
 k-point 44 :  -0.2727 0.0909 0.0909  plane waves:     440
 k-point 45 :  -0.1818 0.0909 0.0909  plane waves:     441
 k-point 46 :  -0.0909 0.0909 0.0909  plane waves:     450
 k-point 47 :   0.1818 0.1818 0.0909  plane waves:     450
 k-point 48 :   0.2727 0.1818 0.0909  plane waves:     445
 k-point 49 :   0.3636 0.1818 0.0909  plane waves:     443
 k-point 50 :   0.4545 0.1818 0.0909  plane waves:     441
 k-point 51 :  -0.4545 0.1818 0.0909  plane waves:     438
 k-point 52 :  -0.3636 0.1818 0.0909  plane waves:     438
 k-point 53 :  -0.2727 0.1818 0.0909  plane waves:     441
 k-point 54 :  -0.1818 0.1818 0.0909  plane waves:     443
 k-point 55 :  -0.0909 0.1818 0.0909  plane waves:     445
 k-point 56 :   0.2727 0.2727 0.0909  plane waves:     440
 k-point 57 :   0.3636 0.2727 0.0909  plane waves:     441
 k-point 58 :   0.4545 0.2727 0.0909  plane waves:     437
 k-point 59 :  -0.4545 0.2727 0.0909  plane waves:     438
 k-point 60 :  -0.3636 0.2727 0.0909  plane waves:     436
 k-point 61 :  -0.2727 0.2727 0.0909  plane waves:     431
 k-point 62 :  -0.1818 0.2727 0.0909  plane waves:     438
 k-point 63 :  -0.0909 0.2727 0.0909  plane waves:     442
 k-point 64 :   0.3636 0.3636 0.0909  plane waves:     439
 k-point 65 :   0.4545 0.3636 0.0909  plane waves:     443
 k-point 66 :  -0.4545 0.3636 0.0909  plane waves:     442
 k-point 67 :  -0.3636 0.3636 0.0909  plane waves:     439
 k-point 68 :  -0.2727 0.3636 0.0909  plane waves:     440
 k-point 69 :  -0.1818 0.3636 0.0909  plane waves:     433
 k-point 70 :  -0.0909 0.3636 0.0909  plane waves:     440
 k-point 71 :   0.4545 0.4545 0.0909  plane waves:     445
 k-point 72 :  -0.4545 0.4545 0.0909  plane waves:     442
 k-point 73 :  -0.3636 0.4545 0.0909  plane waves:     441
 k-point 74 :  -0.2727 0.4545 0.0909  plane waves:     439
 k-point 75 :  -0.1818 0.4545 0.0909  plane waves:     434
 k-point 76 :  -0.0909 0.4545 0.0909  plane waves:     438
 k-point 77 :  -0.4545-0.4545 0.0909  plane waves:     446
 k-point 78 :  -0.3636-0.4545 0.0909  plane waves:     442
 k-point 79 :  -0.2727-0.4545 0.0909  plane waves:     442
 k-point 80 :  -0.1818-0.4545 0.0909  plane waves:     438
 k-point 81 :  -0.3636-0.3636 0.0909  plane waves:     445
 k-point 82 :  -0.2727-0.3636 0.0909  plane waves:     442
 k-point 83 :  -0.1818-0.3636 0.0909  plane waves:     437
 k-point 84 :  -0.2727-0.2727 0.0909  plane waves:     439
 k-point 85 :  -0.1818-0.2727 0.0909  plane waves:     441
 k-point 86 :  -0.1818-0.1818 0.0909  plane waves:     438
 k-point 87 :   0.1818 0.1818 0.1818  plane waves:     456
 k-point 88 :   0.2727 0.1818 0.1818  plane waves:     449
 k-point 89 :   0.3636 0.1818 0.1818  plane waves:     441
 k-point 90 :   0.4545 0.1818 0.1818  plane waves:     438
 k-point 91 :  -0.4545 0.1818 0.1818  plane waves:     439
 k-point 92 :  -0.3636 0.1818 0.1818  plane waves:     439
 k-point 93 :  -0.2727 0.1818 0.1818  plane waves:     444
 k-point 94 :  -0.1818 0.1818 0.1818  plane waves:     445
 k-point 95 :   0.2727 0.2727 0.1818  plane waves:     441
 k-point 96 :   0.3636 0.2727 0.1818  plane waves:     442
 k-point 97 :   0.4545 0.2727 0.1818  plane waves:     439
 k-point 98 :  -0.4545 0.2727 0.1818  plane waves:     431
 k-point 99 :  -0.3636 0.2727 0.1818  plane waves:     435
 k-point ** :  -0.2727 0.2727 0.1818  plane waves:     438
 k-point ** :  -0.1818 0.2727 0.1818  plane waves:     437
 k-point ** :   0.3636 0.3636 0.1818  plane waves:     444
 k-point ** :   0.4545 0.3636 0.1818  plane waves:     437
 k-point ** :  -0.4545 0.3636 0.1818  plane waves:     442
 k-point ** :  -0.3636 0.3636 0.1818  plane waves:     439
 k-point ** :  -0.2727 0.3636 0.1818  plane waves:     441
 k-point ** :  -0.1818 0.3636 0.1818  plane waves:     442
 k-point ** :   0.4545 0.4545 0.1818  plane waves:     438
 k-point ** :  -0.4545 0.4545 0.1818  plane waves:     442
 k-point ** :  -0.3636 0.4545 0.1818  plane waves:     439
 k-point ** :  -0.2727 0.4545 0.1818  plane waves:     439
 k-point ** :  -0.1818 0.4545 0.1818  plane waves:     441
 k-point ** :  -0.4545-0.4545 0.1818  plane waves:     440
 k-point ** :  -0.3636-0.4545 0.1818  plane waves:     441
 k-point ** :  -0.2727-0.4545 0.1818  plane waves:     439
 k-point ** :  -0.3636-0.3636 0.1818  plane waves:     440
 k-point ** :  -0.2727-0.3636 0.1818  plane waves:     442
 k-point ** :  -0.2727-0.2727 0.1818  plane waves:     438
 k-point ** :   0.2727 0.2727 0.2727  plane waves:     432
 k-point ** :   0.3636 0.2727 0.2727  plane waves:     447
 k-point ** :   0.4545 0.2727 0.2727  plane waves:     438
 k-point ** :  -0.4545 0.2727 0.2727  plane waves:     437
 k-point ** :  -0.3636 0.2727 0.2727  plane waves:     445
 k-point ** :  -0.2727 0.2727 0.2727  plane waves:     442
 k-point ** :   0.3636 0.3636 0.2727  plane waves:     440
 k-point ** :   0.4545 0.3636 0.2727  plane waves:     441
 k-point ** :  -0.4545 0.3636 0.2727  plane waves:     433
 k-point ** :  -0.3636 0.3636 0.2727  plane waves:     441
 k-point ** :  -0.2727 0.3636 0.2727  plane waves:     439
 k-point ** :   0.4545 0.4545 0.2727  plane waves:     444
 k-point ** :  -0.4545 0.4545 0.2727  plane waves:     438
 k-point ** :  -0.3636 0.4545 0.2727  plane waves:     441
 k-point ** :  -0.2727 0.4545 0.2727  plane waves:     439
 k-point ** :  -0.4545-0.4545 0.2727  plane waves:     442
 k-point ** :  -0.3636-0.4545 0.2727  plane waves:     439
 k-point ** :  -0.3636-0.3636 0.2727  plane waves:     440
 k-point ** :   0.3636 0.3636 0.3636  plane waves:     431
 k-point ** :   0.4545 0.3636 0.3636  plane waves:     439
 k-point ** :  -0.4545 0.3636 0.3636  plane waves:     439
 k-point ** :  -0.3636 0.3636 0.3636  plane waves:     445
 k-point ** :   0.4545 0.4545 0.3636  plane waves:     438
 k-point ** :  -0.4545 0.4545 0.3636  plane waves:     438
 k-point ** :  -0.3636 0.4545 0.3636  plane waves:     436
 k-point ** :  -0.4545-0.4545 0.3636  plane waves:     441
 k-point ** :   0.4545 0.4545 0.4545  plane waves:     434
 k-point ** :  -0.4545 0.4545 0.4545  plane waves:     444

 maximum and minimum number of plane-waves per node :       459      431

 maximum number of plane-waves:       459
 maximum index in each direction: 
   IXMAX=    5   IYMAX=    5   IZMAX=    5
   IXMIN=   -5   IYMIN=   -5   IZMIN=   -5

 The following grids will avoid any aliasing or wrap around errors in the Hartre
 e energy
  - symmetry arguments have not been applied
  - exchange correlation energies might require even more grid points
  - we recommend to set PREC=Normal or Accurate and rely on VASP defaults
 NGX is ok and might be reduce to    24
 NGY is ok and might be reduce to    24
 NGZ is ok and might be reduce to    24

 serial   3D FFT for wavefunctions
 parallel 3D FFT for charge:
    minimum data exchange during FFTs selected (reduces bandwidth)


 total amount of memory used by VASP MPI-rank0    36691. kBytes
=======================================================================

   base      :      30000. kBytes
   nonlr-proj:       2313. kBytes
   fftplans  :        304. kBytes
   grid      :       1695. kBytes
   one-center:         62. kBytes
   wavefun   :       2317. kBytes
 
     INWAV:  cpu time    0.0000: real time    0.0000
 Broyden mixing: mesh for mixing (old mesh)
   NGX = 11   NGY = 11   NGZ = 11
  (NGX  = 48   NGY  = 48   NGZ  = 48)
  gives a total of   1331 points

 initial charge density was supplied:
 charge density of overlapping atoms calculated
 number of electron      16.0000000 magnetization       2.5000000
 keeping initial charge density in first step


--------------------------------------------------------------------------------------------------------


 Maximum index for non-local projection operator        10425
 Maximum index for augmentation-charges         1621 (set IRDMAX)


--------------------------------------------------------------------------------------------------------


 First call to EWALD:  gamma=   0.685
 Maximum number of real-space cells 3x 3x 3
 Maximum number of reciprocal cells 3x 3x 3

    FEWALD:  cpu time    0.0013: real time    0.0014


--------------------------------------- Iteration      1(   1)  ---------------------------------------


    POTLOK:  cpu time    0.0232: real time    1.5308
    SETDIJ:  cpu time    0.0054: real time    0.0055
     EDDAV:  cpu time    1.3163: real time    1.3443
    --------------------------------------------
      LOOP:  cpu time    1.3460: real time    2.8816

 eigenvalue-minimisations  :  9360
 total energy-change (2. order) : 0.2313894E+02  (-0.8838919E+03)
 number of electron      16.0000000 magnetization       2.5000000
 augmentation part       16.0000000 magnetization       2.5000000

 Free energy of the ion-electron system (eV)
  ---------------------------------------------------
  alpha Z        PSCENC =        68.37418328
  Ewald energy   TEWEN  =     -1321.47613541
  -Hartree energ DENC   =      -317.24426106
  -exchange      EXHF   =         0.00000000
  -V(xc)+E(xc)   XCENC  =        61.20540201
  PAW double counting   =      1307.70298864    -1376.11810819
  entropy T*S    EENTRO =        -0.00259591
  eigenvalues    EBANDS =        92.97616380
  atomic energy  EATOM  =      1507.72129817
  Solvation  Ediel_sol  =         0.00000000
  ---------------------------------------------------
  free energy    TOTEN  =        23.13893535 eV

  energy without entropy =       23.14153125  energy(sigma->0) =       23.14023330


--------------------------------------------------------------------------------------------------------




--------------------------------------- Iteration      1(   2)  ---------------------------------------


     EDDAV:  cpu time    1.4393: real time    1.4427
    --------------------------------------------
      LOOP:  cpu time    1.4392: real time    1.4426

 eigenvalue-minimisations  : 10416
 total energy-change (2. order) :-0.3729832E+02  (-0.3684125E+02)
 number of electron      16.0000000 magnetization       2.5000000
 augmentation part       16.0000000 magnetization       2.5000000

 Free energy of the ion-electron system (eV)
  ---------------------------------------------------
  alpha Z        PSCENC =        68.37418328
  Ewald energy   TEWEN  =     -1321.47613541
  -Hartree energ DENC   =      -317.24426106
  -exchange      EXHF   =         0.00000000
  -V(xc)+E(xc)   XCENC  =        61.20540201
  PAW double counting   =      1307.70298864    -1376.11810819
  entropy T*S    EENTRO =        -0.00392086
  eigenvalues    EBANDS =        55.67916574
  atomic energy  EATOM  =      1507.72129817
  Solvation  Ediel_sol  =         0.00000000
  ---------------------------------------------------
  free energy    TOTEN  =       -14.15938766 eV

  energy without entropy =      -14.15546680  energy(sigma->0) =      -14.15742723


--------------------------------------------------------------------------------------------------------




--------------------------------------- Iteration      1(   3)  ---------------------------------------


     EDDAV:  cpu time    1.8311: real time    1.8354
    --------------------------------------------
      LOOP:  cpu time    1.8312: real time    1.8355

 eigenvalue-minimisations  : 13056
 total energy-change (2. order) :-0.4552351E+00  (-0.4548529E+00)
 number of electron      16.0000000 magnetization       2.5000000
 augmentation part       16.0000000 magnetization       2.5000000

 Free energy of the ion-electron system (eV)
  ---------------------------------------------------
  alpha Z        PSCENC =        68.37418328
  Ewald energy   TEWEN  =     -1321.47613541
  -Hartree energ DENC   =      -317.24426106
  -exchange      EXHF   =         0.00000000
  -V(xc)+E(xc)   XCENC  =        61.20540201
  PAW double counting   =      1307.70298864    -1376.11810819
  entropy T*S    EENTRO =        -0.00395235
  eigenvalues    EBANDS =        55.22396216
  atomic energy  EATOM  =      1507.72129817
  Solvation  Ediel_sol  =         0.00000000
  ---------------------------------------------------
  free energy    TOTEN  =       -14.61462273 eV

  energy without entropy =      -14.61067038  energy(sigma->0) =      -14.61264656


--------------------------------------------------------------------------------------------------------




--------------------------------------- Iteration      1(   4)  ---------------------------------------


     EDDAV:  cpu time    1.7354: real time    1.7395
    --------------------------------------------
      LOOP:  cpu time    1.7354: real time    1.7395

 eigenvalue-minimisations  : 12368
 total energy-change (2. order) :-0.1118435E-02  (-0.1118424E-02)
 number of electron      16.0000000 magnetization       2.5000000
 augmentation part       16.0000000 magnetization       2.5000000

 Free energy of the ion-electron system (eV)
  ---------------------------------------------------
  alpha Z        PSCENC =        68.37418328
  Ewald energy   TEWEN  =     -1321.47613541
  -Hartree energ DENC   =      -317.24426106
  -exchange      EXHF   =         0.00000000
  -V(xc)+E(xc)   XCENC  =        61.20540201
  PAW double counting   =      1307.70298864    -1376.11810819
  entropy T*S    EENTRO =        -0.00395205
  eigenvalues    EBANDS =        55.22284343
  atomic energy  EATOM  =      1507.72129817
  Solvation  Ediel_sol  =         0.00000000
  ---------------------------------------------------
  free energy    TOTEN  =       -14.61574117 eV

  energy without entropy =      -14.61178912  energy(sigma->0) =      -14.61376514


--------------------------------------------------------------------------------------------------------




--------------------------------------- Iteration      1(   5)  ---------------------------------------


     EDDAV:  cpu time    1.9689: real time    1.9736
    CHARGE:  cpu time    0.0435: real time    0.0436
    MIXING:  cpu time    0.0005: real time    0.0005
    --------------------------------------------
      LOOP:  cpu time    2.0119: real time    2.0167

 eigenvalue-minimisations  : 13936
 total energy-change (2. order) :-0.4548869E-05  (-0.4547992E-05)
 number of electron      15.9999988 magnetization       1.8567133
 augmentation part        6.4772795 magnetization       1.3862361

 Broyden mixing:
  rms(total) = 0.15318E+01    rms(broyden)= 0.15316E+01
  rms(prec ) = 0.43954E+01
  weight for this iteration     100.00

 Free energy of the ion-electron system (eV)
  ---------------------------------------------------
  alpha Z        PSCENC =        68.37418328
  Ewald energy   TEWEN  =     -1321.47613541
  -Hartree energ DENC   =      -317.24426106
  -exchange      EXHF   =         0.00000000
  -V(xc)+E(xc)   XCENC  =        61.20540201
  PAW double counting   =      1307.70298864    -1376.11810819
  entropy T*S    EENTRO =        -0.00395204
  eigenvalues    EBANDS =        55.22283888
  atomic energy  EATOM  =      1507.72129817
  Solvation  Ediel_sol  =         0.00000000
  ---------------------------------------------------
  free energy    TOTEN  =       -14.61574572 eV

  energy without entropy =      -14.61179367  energy(sigma->0) =      -14.61376969


--------------------------------------------------------------------------------------------------------




--------------------------------------- Iteration      1(   6)  ---------------------------------------


    POTLOK:  cpu time    0.0065: real time    0.0065
    SETDIJ:  cpu time    0.0042: real time    0.0042
     EDDAV:  cpu time    1.4581: real time    1.4616
    CHARGE:  cpu time    0.0425: real time    0.0426
    MIXING:  cpu time    0.0003: real time    0.0003
    --------------------------------------------
      LOOP:  cpu time    1.5117: real time    1.5153

 eigenvalue-minimisations  : 10464
 total energy-change (2. order) : 0.8576876E+00  (-0.4622445E+01)
 number of electron      15.9999989 magnetization       1.1526735
 augmentation part        7.3004948 magnetization       0.9234261

 Broyden mixing:
  rms(total) = 0.18559E+01    rms(broyden)= 0.18558E+01
  rms(prec ) = 0.40821E+01
  weight for this iteration     100.00

 eigenvalues of (default mixing * dielectric matrix)
  average eigenvalue GAMMA=   0.2947
  0.2947

 Free energy of the ion-electron system (eV)
  ---------------------------------------------------
  alpha Z        PSCENC =        68.37418328
  Ewald energy   TEWEN  =     -1321.47613541
  -Hartree energ DENC   =      -305.47014612
  -exchange      EXHF   =         0.00000000
  -V(xc)+E(xc)   XCENC  =        61.04186846
  PAW double counting   =      1401.20577777    -1464.35162926
  entropy T*S    EENTRO =        -0.00144080
  eigenvalues    EBANDS =        39.19816575
  atomic energy  EATOM  =      1507.72129817
  Solvation  Ediel_sol  =         0.00000000
  ---------------------------------------------------
  free energy    TOTEN  =       -13.75805816 eV

  energy without entropy =      -13.75661736  energy(sigma->0) =      -13.75733776


--------------------------------------------------------------------------------------------------------




--------------------------------------- Iteration      1(   7)  ---------------------------------------


    POTLOK:  cpu time    0.0065: real time    0.0065
    SETDIJ:  cpu time    0.0035: real time    0.0036
     EDDAV:  cpu time    1.3599: real time    1.3631
    CHARGE:  cpu time    0.0424: real time    0.0425
    MIXING:  cpu time    0.0003: real time    0.0003
    --------------------------------------------
      LOOP:  cpu time    1.4127: real time    1.4160

 eigenvalue-minimisations  :  9744
 total energy-change (2. order) : 0.1360949E+01  (-0.1733597E+01)
 number of electron      15.9999989 magnetization       1.0497874
 augmentation part        6.8115269 magnetization       0.7740972

 Broyden mixing:
  rms(total) = 0.59465E+00    rms(broyden)= 0.59458E+00
  rms(prec ) = 0.83225E+00
  weight for this iteration     100.00

 eigenvalues of (default mixing * dielectric matrix)
  average eigenvalue GAMMA=   0.7599
  0.9992  0.5206

 Free energy of the ion-electron system (eV)
  ---------------------------------------------------
  alpha Z        PSCENC =        68.37418328
  Ewald energy   TEWEN  =     -1321.47613541
  -Hartree energ DENC   =      -310.76036403
  -exchange      EXHF   =         0.00000000
  -V(xc)+E(xc)   XCENC  =        60.65515163
  PAW double counting   =      1460.10359817    -1528.49307976
  entropy T*S    EENTRO =        -0.00277061
  eigenvalues    EBANDS =        51.48100974
  atomic energy  EATOM  =      1507.72129817
  Solvation  Ediel_sol  =         0.00000000
  ---------------------------------------------------
  free energy    TOTEN  =       -12.39710881 eV

  energy without entropy =      -12.39433820  energy(sigma->0) =      -12.39572350


--------------------------------------------------------------------------------------------------------




--------------------------------------- Iteration      1(   8)  ---------------------------------------


    POTLOK:  cpu time    0.0065: real time    0.0065
    SETDIJ:  cpu time    0.0036: real time    0.0037
     EDDAV:  cpu time    1.3930: real time    1.3963
    CHARGE:  cpu time    0.0424: real time    0.0425
    MIXING:  cpu time    0.0003: real time    0.0003
    --------------------------------------------
      LOOP:  cpu time    1.4459: real time    1.4493

 eigenvalue-minimisations  :  9968
 total energy-change (2. order) : 0.2762152E-01  (-0.3489174E-01)
 number of electron      15.9999989 magnetization       1.0139740
 augmentation part        6.8733423 magnetization       0.7485603

 Broyden mixing:
  rms(total) = 0.30368E+00    rms(broyden)= 0.30368E+00
  rms(prec ) = 0.33039E+00
  weight for this iteration     100.00

 eigenvalues of (default mixing * dielectric matrix)
  average eigenvalue GAMMA=   0.9785
  1.8314  0.5935  0.5106

 Free energy of the ion-electron system (eV)
  ---------------------------------------------------
  alpha Z        PSCENC =        68.37418328
  Ewald energy   TEWEN  =     -1321.47613541
  -Hartree energ DENC   =      -308.02815991
  -exchange      EXHF   =         0.00000000
  -V(xc)+E(xc)   XCENC  =        60.51802223
  PAW double counting   =      1545.31985888    -1614.77665906
  entropy T*S    EENTRO =        -0.00215887
  eigenvalues    EBANDS =        49.98026341
  atomic energy  EATOM  =      1507.72129817
  Solvation  Ediel_sol  =         0.00000000
  ---------------------------------------------------
  free energy    TOTEN  =       -12.36948729 eV

  energy without entropy =      -12.36732842  energy(sigma->0) =      -12.36840785


--------------------------------------------------------------------------------------------------------




--------------------------------------- Iteration      1(   9)  ---------------------------------------


    POTLOK:  cpu time    0.0065: real time    0.0066
    SETDIJ:  cpu time    0.0037: real time    0.0037
     EDDAV:  cpu time    1.6181: real time    1.6219
    CHARGE:  cpu time    0.0427: real time    0.0428
    MIXING:  cpu time    0.0003: real time    0.0003
    --------------------------------------------
      LOOP:  cpu time    1.6713: real time    1.6752

 eigenvalue-minimisations  : 11488
 total energy-change (2. order) : 0.1881394E-02  (-0.7926159E-03)
 number of electron      15.9999989 magnetization       1.0367626
 augmentation part        6.8695474 magnetization       0.7759865

 Broyden mixing:
  rms(total) = 0.79881E-01    rms(broyden)= 0.79881E-01
  rms(prec ) = 0.95078E-01
  weight for this iteration     100.00

 eigenvalues of (default mixing * dielectric matrix)
  average eigenvalue GAMMA=   1.1587
  2.3667  1.1486  0.4697  0.6499

 Free energy of the ion-electron system (eV)
  ---------------------------------------------------
  alpha Z        PSCENC =        68.37418328
  Ewald energy   TEWEN  =     -1321.47613541
  -Hartree energ DENC   =      -307.40122154
  -exchange      EXHF   =         0.00000000
  -V(xc)+E(xc)   XCENC  =        60.49010293
  PAW double counting   =      1593.24097471    -1663.56872707
  entropy T*S    EENTRO =        -0.00233126
  eigenvalues    EBANDS =        50.25425028
  atomic energy  EATOM  =      1507.72129817
  Solvation  Ediel_sol  =         0.00000000
  ---------------------------------------------------
  free energy    TOTEN  =       -12.36760589 eV

  energy without entropy =      -12.36527463  energy(sigma->0) =      -12.36644026


--------------------------------------------------------------------------------------------------------




--------------------------------------- Iteration      1(  10)  ---------------------------------------


    POTLOK:  cpu time    0.0066: real time    0.0066
    SETDIJ:  cpu time    0.0037: real time    0.0037
     EDDAV:  cpu time    1.6629: real time    1.6668
    CHARGE:  cpu time    0.0425: real time    0.0426
    MIXING:  cpu time    0.0003: real time    0.0003
    --------------------------------------------
      LOOP:  cpu time    1.7160: real time    1.7201

 eigenvalue-minimisations  : 11952
 total energy-change (2. order) :-0.6407065E-04  (-0.5831807E-03)
 number of electron      15.9999989 magnetization       1.0478680
 augmentation part        6.8602930 magnetization       0.7846269

 Broyden mixing:
  rms(total) = 0.14901E-01    rms(broyden)= 0.14897E-01
  rms(prec ) = 0.35110E-01
  weight for this iteration     100.00

 eigenvalues of (default mixing * dielectric matrix)
  average eigenvalue GAMMA=   1.1086
  2.3993  1.1100  0.9417  0.4752  0.6169

 Free energy of the ion-electron system (eV)
  ---------------------------------------------------
  alpha Z        PSCENC =        68.37418328
  Ewald energy   TEWEN  =     -1321.47613541
  -Hartree energ DENC   =      -307.40259949
  -exchange      EXHF   =         0.00000000
  -V(xc)+E(xc)   XCENC  =        60.50507092
  PAW double counting   =      1608.85032032    -1679.49894368
  entropy T*S    EENTRO =        -0.00206064
  eigenvalues    EBANDS =        50.56119656
  atomic energy  EATOM  =      1507.72129817
  Solvation  Ediel_sol  =         0.00000000
  ---------------------------------------------------
  free energy    TOTEN  =       -12.36766996 eV

  energy without entropy =      -12.36560933  energy(sigma->0) =      -12.36663964


--------------------------------------------------------------------------------------------------------




--------------------------------------- Iteration      1(  11)  ---------------------------------------


    POTLOK:  cpu time    0.0065: real time    0.0065
    SETDIJ:  cpu time    0.0037: real time    0.0037
     EDDAV:  cpu time    1.6890: real time    1.6930
    CHARGE:  cpu time    0.0422: real time    0.0423
    MIXING:  cpu time    0.0004: real time    0.0004
    --------------------------------------------
      LOOP:  cpu time    1.7417: real time    1.7458

 eigenvalue-minimisations  : 12160
 total energy-change (2. order) :-0.4862859E-05  (-0.7614585E-04)
 number of electron      15.9999989 magnetization       1.0606393
 augmentation part        6.8628649 magnetization       0.7952892

 Broyden mixing:
  rms(total) = 0.63780E-02    rms(broyden)= 0.63776E-02
  rms(prec ) = 0.92668E-02
  weight for this iteration     100.00

 eigenvalues of (default mixing * dielectric matrix)
  average eigenvalue GAMMA=   1.1699
  2.4650  1.6096  0.4742  0.9636  0.8802  0.6266

 Free energy of the ion-electron system (eV)
  ---------------------------------------------------
  alpha Z        PSCENC =        68.37418328
  Ewald energy   TEWEN  =     -1321.47613541
  -Hartree energ DENC   =      -307.34080930
  -exchange      EXHF   =         0.00000000
  -V(xc)+E(xc)   XCENC  =        60.50709720
  PAW double counting   =      1612.81867104    -1683.48388142
  entropy T*S    EENTRO =        -0.00198625
  eigenvalues    EBANDS =        50.51388785
  atomic energy  EATOM  =      1507.72129817
  Solvation  Ediel_sol  =         0.00000000
  ---------------------------------------------------
  free energy    TOTEN  =       -12.36767482 eV

  energy without entropy =      -12.36568857  energy(sigma->0) =      -12.36668170


--------------------------------------------------------------------------------------------------------




--------------------------------------- Iteration      1(  12)  ---------------------------------------


    POTLOK:  cpu time    0.0065: real time    0.0065
    SETDIJ:  cpu time    0.0037: real time    0.0037
     EDDAV:  cpu time    1.5490: real time    1.5527
    CHARGE:  cpu time    0.0420: real time    0.0421
    MIXING:  cpu time    0.0004: real time    0.0004
    --------------------------------------------
      LOOP:  cpu time    1.6015: real time    1.6053

 eigenvalue-minimisations  : 11136
 total energy-change (2. order) :-0.3010650E-04  (-0.1217098E-04)
 number of electron      15.9999989 magnetization       1.0604544
 augmentation part        6.8631954 magnetization       0.7940967

 Broyden mixing:
  rms(total) = 0.20584E-02    rms(broyden)= 0.20575E-02
  rms(prec ) = 0.23874E-02
  weight for this iteration     100.00

 eigenvalues of (default mixing * dielectric matrix)
  average eigenvalue GAMMA=   1.1859
  2.5251  1.9734  1.0167  1.0167  0.4742  0.6289  0.6664

 Free energy of the ion-electron system (eV)
  ---------------------------------------------------
  alpha Z        PSCENC =        68.37418328
  Ewald energy   TEWEN  =     -1321.47613541
  -Hartree energ DENC   =      -307.34872321
  -exchange      EXHF   =         0.00000000
  -V(xc)+E(xc)   XCENC  =        60.51291508
  PAW double counting   =      1614.12866175    -1684.78631962
  entropy T*S    EENTRO =        -0.00196057
  eigenvalues    EBANDS =        50.50837559
  atomic energy  EATOM  =      1507.72129817
  Solvation  Ediel_sol  =         0.00000000
  ---------------------------------------------------
  free energy    TOTEN  =       -12.36770493 eV

  energy without entropy =      -12.36574436  energy(sigma->0) =      -12.36672464


--------------------------------------------------------------------------------------------------------




--------------------------------------- Iteration      1(  13)  ---------------------------------------


    POTLOK:  cpu time    0.0065: real time    0.0065
    SETDIJ:  cpu time    0.0037: real time    0.0037
     EDDAV:  cpu time    0.9369: real time    0.9391
    --------------------------------------------
      LOOP:  cpu time    0.9481: real time    0.9503

 eigenvalue-minimisations  :  5600
 total energy-change (2. order) :-0.1855274E-05  (-0.6865547E-06)
 number of electron      15.9999989 magnetization       1.0604544
 augmentation part        6.8631954 magnetization       0.7940967

 Free energy of the ion-electron system (eV)
  ---------------------------------------------------
  alpha Z        PSCENC =        68.37418328
  Ewald energy   TEWEN  =     -1321.47613541
  -Hartree energ DENC   =      -307.34575088
  -exchange      EXHF   =         0.00000000
  -V(xc)+E(xc)   XCENC  =        60.51273740
  PAW double counting   =      1614.29542669    -1684.94788896
  entropy T*S    EENTRO =        -0.00195737
[...]
      2       0.6455      1.00000
      3       3.2145      1.00000
      4       3.2145      1.00000
      5       7.4439      1.00000
      6       7.4439      1.00000
      7       7.7247      1.00000
      8       9.9276      0.00000
      9       9.9276      0.00000
     10      14.0199      0.00000
     11      19.4921      0.00000
     12      23.6550      0.00000
     13      23.6550      0.00000
     14      30.0302      0.00000
     15      33.0891      0.00000
     16      33.0891      0.00000

 k-point   138 :       0.4545    0.3636    0.3636
  band No.  band energies     occupation 
      1     -10.8012      1.00000
      2       0.4607      1.00000
      3       3.0668      1.00000
      4       3.0684      1.00000
      5       7.4304      1.00000
      6       7.5308      1.00000
      7       7.8574      1.00000
      8       9.5424      0.00000
      9      10.2586      0.00000
     10      14.5794      0.00000
     11      19.2546      0.00000
     12      22.4671      0.00000
     13      23.5424      0.00000
     14      31.3680      0.00000
     15      32.3210      0.00000
     16      33.9812      0.00000

 k-point   139 :      -0.4545    0.3636    0.3636
  band No.  band energies     occupation 
      1     -10.6394      1.00000
      2       0.5897      1.00000
      3       2.6848      1.00000
      4       3.0323      1.00000
      5       7.4817      1.00000
      6       7.5537      1.00000
      7       7.8767      1.00000
      8       9.0185      0.00000
      9      10.2052      0.00000
     10      15.8066      0.00000
     11      18.9059      0.00000
     12      20.7991      0.00000
     13      23.8036      0.00000
     14      32.1314      0.00000
     15      32.1784      0.00000
     16      34.0849      0.00000

 k-point   140 :      -0.3636    0.3636    0.3636
  band No.  band energies     occupation 
      1     -10.5186      1.00000
      2       1.0520      1.00000
      3       2.1743      1.00000
      4       3.1150      1.00000
      5       7.3394      1.00000
      6       7.5838      1.00000
      7       7.9180      1.00000
      8       8.6411      0.00000
      9       9.8010      0.00000
     10      17.2673      0.00000
     11      18.2885      0.00000
     12      19.6561      0.00000
     13      24.2869      0.00000
     14      29.9038      0.00000
     15      32.8120      0.00000
     16      36.7295      0.00000

 k-point   141 :       0.4545    0.4545    0.3636
  band No.  band energies     occupation 
      1     -10.7128      1.00000
      2       0.2658      1.00000
      3       2.9102      1.00000
      4       3.1051      1.00000
      5       7.3984      1.00000
      6       7.6270      1.00000
      7       7.9223      1.00000
      8       9.9063      0.00000
      9      10.0544      0.00000
     10      14.6508      0.00000
     11      19.1040      0.00000
     12      22.3527      0.00000
     13      23.3233      0.00000
     14      30.9838      0.00000
     15      32.9019      0.00000
     16      35.2475      0.00000

 k-point   142 :      -0.4545    0.4545    0.3636
  band No.  band energies     occupation 
      1     -10.6096      1.00000
      2       0.3890      1.00000
      3       2.7249      1.00000
      4       3.0445      1.00000
      5       7.4047      1.00000
      6       7.6193      1.00000
      7       7.9265      1.00000
      8       9.4423      0.00000
      9      10.0268      0.00000
     10      15.5389      0.00000
     11      18.8191      0.00000
     12      21.2717      0.00000
     13      23.4883      0.00000
     14      31.4261      0.00000
     15      32.9671      0.00000
     16      34.8625      0.00000

 k-point   143 :      -0.3636    0.4545    0.3636
  band No.  band energies     occupation 
      1     -10.5239      1.00000
      2       0.8410      1.00000
      3       2.3964      1.00000
      4       3.0519      1.00000
      5       7.3777      1.00000
      6       7.5449      1.00000
      7       7.9107      1.00000
      8       8.9240      0.00000
      9       9.6961      0.00000
     10      16.9033      0.00000
     11      18.3434      0.00000
     12      20.2056      0.00000
     13      23.7763      0.00000
     14      30.6445      0.00000
     15      32.3976      0.00000
     16      37.1942      0.00000

 k-point   144 :      -0.4545   -0.4545    0.3636
  band No.  band energies     occupation 
      1     -10.5667      1.00000
      2       0.4707      1.00000
      3       2.5921      1.00000
      4       3.0880      1.00000
      5       7.3417      1.00000
      6       7.6457      1.00000
      7       7.9286      1.00000
      8       9.3975      0.00000
      9       9.8462      0.00000
     10      15.9166      0.00000
     11      18.6338      0.00000
     12      20.8922      0.00000
     13      23.6988      0.00000
     14      30.5643      0.00000
     15      34.2771      0.00000
     16      34.8116      0.00000

 k-point   145 :       0.4545    0.4545    0.4545
  band No.  band energies     occupation 
      1     -10.6700      1.00000
      2      -0.0108      1.00000
      3       2.9806      1.00000
      4       2.9806      1.00000
      5       7.5908      1.00000
      6       7.5908      1.00000
      7       7.9657      1.00000
      8      10.2777      0.00000
      9      10.2777      0.00000
     10      14.1129      0.00000
     11      19.1561      0.00000
     12      22.9438      0.00000
     13      22.9438      0.00000
     14      30.4554      0.00000
     15      34.6831      0.00000
     16      34.6831      0.00000

 k-point   146 :      -0.4545    0.4545    0.4545
  band No.  band energies     occupation 
      1     -10.6160      1.00000
      2       0.0560      1.00000
      3       2.8671      1.00000
      4       2.9746      1.00000
      5       7.5668      1.00000
      6       7.5972      1.00000
      7       7.9671      1.00000
      8       9.9506      0.00000
      9      10.2518      0.00000
     10      14.6646      0.00000
     11      19.0114      0.00000
     12      22.1448      0.00000
     13      23.0913      0.00000
     14      31.5902      0.00000
     15      33.4920      0.00000
     16      34.2734      0.00000


--------------------------------------------------------------------------------------------------------


 soft charge-density along one line, spin component           1
         0         1         2         3         4         5         6         7         8         9
 total charge-density along one line
 
 soft charge-density along one line, spin component           2
         0         1         2         3         4         5         6         7         8         9
 total charge-density along one line
 
 pseudopotential strength for first ion, spin component:           1
 -1.344   0.000   0.000   0.218   0.000  -1.994   0.000  -0.000
  0.000  -1.497  -0.000   0.000   0.218   0.000  -2.140  -0.000
  0.000  -0.000  -1.189  -0.000  -0.000  -0.000  -0.000  -1.846
  0.218   0.000  -0.000  -1.497   0.000   0.208   0.000   0.000
  0.000   0.218  -0.000   0.000  -1.344   0.000   0.208  -0.000
 -1.994   0.000  -0.000   0.208   0.000  -2.573   0.000  -0.000
  0.000  -2.140  -0.000   0.000   0.208   0.000  -2.713  -0.000
 -0.000  -0.000  -1.846   0.000  -0.000  -0.000  -0.000  -2.432
  0.208   0.000   0.000  -2.140   0.000   0.199   0.000   0.000
  0.000   0.208  -0.000   0.000  -1.994   0.000   0.199  -0.000
 -0.000   0.000  -0.000  -0.000  -0.000   0.000   0.000  -0.000
 -0.000   0.000  -0.000  -0.000  -0.000  -0.000   0.000  -0.000
  0.000   0.000  -0.000   0.000  -0.000   0.000   0.000  -0.000
  0.000   0.000   0.000   0.000   0.000   0.000   0.000   0.000
  0.000   0.000  -0.000   0.000   0.000   0.000   0.000  -0.000
  0.000   0.000  -0.000   0.000  -0.000   0.000   0.000  -0.000
  0.000   0.000   0.000   0.000   0.000   0.000   0.000   0.000
  0.000   0.000  -0.000   0.000   0.000   0.000   0.000  -0.000
 pseudopotential strength for first ion, spin component:           2
 -0.623   0.000   0.000  -0.054   0.000  -1.307   0.000  -0.000
  0.000  -0.584  -0.000   0.000  -0.054   0.000  -1.269  -0.000
  0.000  -0.000  -0.660  -0.000  -0.000  -0.000  -0.000  -1.343
 -0.054   0.000  -0.000  -0.584   0.000  -0.052   0.000   0.000
  0.000  -0.054  -0.000   0.000  -0.623   0.000  -0.052  -0.000
 -1.307   0.000  -0.000  -0.052   0.000  -1.919   0.000  -0.000
  0.000  -1.269  -0.000   0.000  -0.052   0.000  -1.883  -0.000
 -0.000  -0.000  -1.343   0.000  -0.000  -0.000  -0.000  -1.954
 -0.052   0.000   0.000  -1.269   0.000  -0.051  -0.000  -0.000
  0.000  -0.052  -0.000   0.000  -1.307   0.000  -0.051  -0.000
 -0.000   0.000  -0.000  -0.000  -0.000   0.000   0.000  -0.000
 -0.000   0.000  -0.000  -0.000  -0.000  -0.000   0.000  -0.000
  0.000   0.000  -0.000   0.000  -0.000   0.000   0.000  -0.000
  0.000   0.000   0.000   0.000   0.000   0.000   0.000   0.000
  0.000   0.000  -0.000   0.000   0.000   0.000   0.000  -0.000
  0.000   0.000  -0.000   0.000  -0.000   0.000   0.000  -0.000
  0.000   0.000   0.000   0.000   0.000   0.000   0.000   0.000
  0.000   0.000  -0.000   0.000   0.000   0.000   0.000  -0.000
 total augmentation occupancy for first ion, spin component:           1
  5.174   0.000   0.000  -0.865  -0.000  -3.190   0.000   0.000   1.429   0.000   0.000   0.000   0.000   0.000   0.000   0.000
  0.000   5.783  -0.000   0.000  -0.865   0.000  -4.196   0.000   0.000   1.429  -0.000   0.000   0.000   0.000   0.000   0.000
  0.000  -0.000   4.559   0.000  -0.000   0.000   0.000  -2.175   0.000   0.000   0.002  -0.000   0.000   0.000   0.000   0.000
 -0.865   0.000   0.000   5.783   0.000   1.429   0.000  -0.000  -4.196   0.000   0.000   0.000   0.000   0.000   0.000   0.000
 -0.000  -0.865  -0.000   0.000   5.174   0.000   1.429   0.000   0.000  -3.190  -0.000   0.000   0.000   0.000   0.000   0.000
 -3.190   0.000   0.000   1.429   0.000   2.992   0.000  -0.000  -1.687   0.000  -0.000   0.000   0.000   0.000   0.000   0.000
  0.000  -4.196   0.000   0.000   1.429   0.000   4.181   0.000   0.000  -1.687   0.000  -0.000   0.000   0.000   0.000   0.000
  0.000   0.000  -2.175  -0.000   0.000   0.000   0.000   1.796   0.000  -0.000  -0.002   0.000   0.000   0.000   0.000   0.000
  1.429   0.000   0.000  -4.196   0.000  -1.687   0.000   0.000   4.181   0.000   0.000   0.000   0.000   0.000   0.000   0.000
  0.000   1.429   0.000   0.000  -3.190   0.000  -1.687  -0.000   0.000   2.992   0.000  -0.000   0.000   0.000   0.000   0.000
 -0.000  -0.000   0.002   0.000  -0.000   0.000   0.000  -0.002   0.000   0.000   2.287  -0.519   0.000   0.000   0.000   0.000
  0.000   0.000  -0.000   0.000   0.000   0.000  -0.000   0.000   0.000  -0.000  -0.519   0.140   0.000   0.000   0.000   0.000
  0.000   0.000   0.000   0.000   0.000   0.000   0.000   0.000   0.000   0.000   0.000   0.000   0.331  -0.000   0.000  -0.063
  0.000   0.000   0.000   0.000   0.000   0.000   0.000   0.000   0.000   0.000   0.000   0.000  -0.000   0.331   0.000   0.000
  0.000   0.000   0.000   0.000   0.000   0.000   0.000   0.000   0.000   0.000   0.000   0.000   0.000   0.000   0.331   0.000
  0.000   0.000   0.000   0.000   0.000   0.000   0.000   0.000   0.000   0.000   0.000   0.000  -0.063   0.000   0.000   0.014
  0.000   0.000   0.000   0.000   0.000   0.000   0.000   0.000   0.000   0.000   0.000   0.000   0.000  -0.063   0.000  -0.000
  0.000   0.000   0.000   0.000   0.000   0.000   0.000   0.000   0.000   0.000   0.000   0.000   0.000  -0.000  -0.063   0.000
 total augmentation occupancy for first ion, spin component:           2
  1.129   0.000   0.000  -1.133   0.000  -0.650  -0.000   0.000   0.662   0.000   0.000   0.000   0.000   0.000   0.000   0.000
  0.000   1.927   0.000   0.000  -1.133   0.000  -1.116  -0.000   0.000   0.662  -0.000  -0.000   0.000   0.000   0.000   0.000
 -0.000   0.000   0.327   0.000  -0.000   0.000  -0.000  -0.181  -0.000   0.000   0.000   0.000   0.000   0.000   0.000   0.000
 -1.133   0.000   0.000   1.927   0.000   0.662   0.000   0.000  -1.116   0.000   0.000   0.000   0.000   0.000   0.000   0.000
  0.000  -1.133  -0.000   0.000   1.129   0.000   0.662   0.000   0.000  -0.650  -0.000  -0.000   0.000   0.000   0.000   0.000
 -0.650   0.000  -0.000   0.662   0.000   0.325   0.000   0.000  -0.387   0.000   0.000  -0.000   0.000   0.000   0.000   0.000
  0.000  -1.116  -0.000   0.000   0.662   0.000   0.597   0.000   0.000  -0.387   0.000   0.000   0.000   0.000   0.000   0.000
  0.000  -0.000  -0.181   0.000   0.000   0.000   0.000   0.050   0.000  -0.000  -0.000  -0.000   0.000   0.000   0.000   0.000
  0.662   0.000   0.000  -1.116   0.000  -0.387   0.000   0.000   0.597   0.000   0.000   0.000   0.000   0.000   0.000   0.000
  0.000   0.662   0.000   0.000  -0.650   0.000  -0.387  -0.000   0.000   0.325   0.000   0.000   0.000   0.000   0.000   0.000
  0.000  -0.000   0.000   0.000  -0.000   0.000   0.000  -0.000  -0.000   0.000  -0.075   0.040   0.000   0.000   0.000   0.000
 -0.000  -0.000   0.000   0.000  -0.000  -0.000   0.000  -0.000   0.000   0.000   0.040  -0.011   0.000   0.000   0.000   0.000
  0.000   0.000   0.000   0.000   0.000   0.000   0.000   0.000   0.000   0.000   0.000   0.000   0.001  -0.000  -0.000   0.003
  0.000   0.000   0.000   0.000   0.000   0.000   0.000   0.000   0.000   0.000   0.000   0.000  -0.000   0.001   0.000  -0.000
  0.000   0.000   0.000   0.000   0.000   0.000   0.000   0.000   0.000   0.000   0.000   0.000   0.000   0.000   0.001  -0.000
  0.000   0.000   0.000   0.000   0.000   0.000   0.000   0.000   0.000   0.000   0.000   0.000   0.003  -0.000   0.000  -0.001
  0.000   0.000   0.000   0.000   0.000   0.000   0.000   0.000   0.000   0.000   0.000   0.000  -0.000   0.003   0.000   0.000
  0.000   0.000   0.000   0.000   0.000   0.000   0.000   0.000   0.000   0.000   0.000   0.000   0.000   0.000   0.003  -0.000


------------------------ aborting loop because EDIFF is reached ----------------------------------------


    CHARGE:  cpu time    0.0414: real time    0.0415
    FORLOC:  cpu time    0.0003: real time    0.0003
    FORNL :  cpu time    0.6140: real time    0.6154
    STRESS:  cpu time    1.8424: real time    1.8468
    FORCOR:  cpu time    0.0061: real time    0.0061
    FORHAR:  cpu time    0.0010: real time    0.0010
    MIXING:  cpu time    0.0004: real time    0.0004
    OFIELD:  cpu time    0.0000: real time    0.0000

  FORCE on cell =-STRESS in cart. coord.  units (eV):
  Direction    XX          YY          ZZ          XY          YZ          ZX
  --------------------------------------------------------------------------------------
  Alpha Z    68.37418    68.37418    68.37418
  Ewald    -440.38130  -440.38130  -440.71394     0.00000     0.00000    -0.00000
  Hartree   102.49849   102.49849   102.34657    -0.00000     0.00000     0.00000
  E(xc)     -83.86474   -83.86474   -83.86579     0.00000     0.00000     0.00000
  Local      -4.37942    -4.37942    -3.94712     0.00000    -0.00000    -0.00000
  n-local   -34.57422   -33.06343   -33.81990     0.37787     0.94309    -0.35496
  augment   183.19260   183.19260   183.21602     0.00000    -0.00000    -0.00000
  Kinetic   209.84495   206.90702   208.42272     1.32400    -1.82069    -1.77677
  Fock        0.00000     0.00000     0.00000     0.00000     0.00000     0.00000
  -------------------------------------------------------------------------------------
  Total       -0.0030256     -0.0030256      0.0127488      0.0000000     -0.0000000      0.0000000
  in kB       -0.2793409     -0.2793409      1.1770374      0.0000000     -0.0000000      0.0000000
  external PRESSURE =       0.2061185 kB  Pullay stress =       0.0000000 kB


 VOLUME and BASIS-vectors are now :
 -----------------------------------------------------------------------------
  energy-cutoff  :      500.00
  volume of cell :       17.35
      direct lattice vectors                 reciprocal lattice vectors
     1.453737390  0.839315670  2.370424290     0.343941075  0.198574472  0.140621802
    -1.453737390  0.839315670  2.370424290    -0.343941075  0.198574472  0.140621802
     0.000000000 -1.678631350  2.370424290     0.000000000 -0.397148944  0.140621801

  length of vectors
     2.904602298  2.904602298  2.904602300     0.421309595  0.421309595  0.421309595


 FORCES acting on ions
    electron-ion (+dipol)            ewald-force                    non-local-force                 convergence-correction
 -----------------------------------------------------------------------------------------------
   -.184E-14 0.800E-14 -.751E-13   0.442E-14 0.114E-15 -.106E-14   0.000E+00 0.000E+00 0.331E-23   -.901E-14 -.252E-14 0.337E-14
   -.142E-11 0.473E-13 -.595E-12   -.335E-14 -.247E-14 0.173E-14   0.000E+00 -.662E-23 0.000E+00   -.321E-14 -.746E-14 0.532E-14
 -----------------------------------------------------------------------------------------------
   -.142E-11 0.553E-13 -.670E-12   0.107E-14 -.236E-14 0.662E-15   0.000E+00 -.662E-23 0.331E-23   -.122E-13 -.998E-14 0.869E-14
 
 
 POSITION                                       TOTAL-FORCE (eV/Angst)
 -----------------------------------------------------------------------------------
      0.00000      0.00000      0.00000         0.000000      0.000000      0.000000
      0.00000     -0.00000      3.55564        -0.000000      0.000000     -0.000000
 -----------------------------------------------------------------------------------
    total drift:                               -0.000000      0.000000     -0.000000


--------------------------------------------------------------------------------------------------------



  FREE ENERGIE OF THE ION-ELECTRON SYSTEM (eV)
  ---------------------------------------------------
  free  energy   TOTEN  =       -12.3677067865 eV

  energy  without entropy=      -12.3657494205  energy(sigma->0) =      -12.36672810
 


--------------------------------------------------------------------------------------------------------


    POTLOK:  cpu time    0.0104: real time    0.0104


--------------------------------------------------------------------------------------------------------


     LOOP+:  cpu time   23.1142: real time   24.7492
    4ORBIT:  cpu time    0.0000: real time    0.0000

volume of typ            1:    36.7 %

volume of typ            2:     9.4 %
 
total charge     
 
# of ion       s       p       d       tot
------------------------------------------
    1        0.201   0.218   7.975   8.394
    2        1.259   2.772   0.007   4.039
--------------------------------------------------
tot           1.46    2.99    7.98   12.43
 
magnetization (x)
 
# of ion       s       p       d       tot
------------------------------------------
    1        0.007   0.007   0.876   0.890
    2        0.020   0.112   0.001   0.133
--------------------------------------------------
tot           0.03    0.12    0.88    1.02
 

 total amount of memory used by VASP MPI-rank0    36691. kBytes
=======================================================================

   base      :      30000. kBytes
   nonlr-proj:       2313. kBytes
   fftplans  :        304. kBytes
   grid      :       1695. kBytes
   one-center:         62. kBytes
   wavefun   :       2317. kBytes
 
  
  
 General timing and accounting informations for this job:
 ========================================================
  
                  Total CPU time used (sec):       24.678
                            User time (sec):       24.271
                          System time (sec):        0.407
                         Elapsed time (sec):       29.340
  
                   Maximum memory used (kb):       43860.
                   Average memory used (kb):           0.
  
                          Minor page faults:        25711
                          Major page faults:           52
                 Voluntary context switches:         1167
