 vasp.5.4.4.18Apr17-6-g9f103f2a35 (build May 12 2020 04:58:55) complex          
  
 MD_VERSION_INFO: Compiled 2020-05-12T11:58:55-UTC in devlin.sd.materialsdesign.
 com:/home/medea2/data/build/wwolf/vasp-gpu5.4.4/13047/x86_64/src/src/build/std 
 from svn 13047
 
 This VASP executable licensed from Materials Design, Inc.
 
 executed on                        Lin64 date 2023.03.16  14:18:02
 running on   16 total cores
 distrk:  each k-point on   16 cores,    1 groups
 distr:  one band on NCORES_PER_BAND=   1 cores,   16 groups


--------------------------------------------------------------------------------------------------------


 INCAR:
 POTCAR:    PAW_PBE Li_sv 10Sep2004               
 POTCAR:    PAW_PBE Ni 02Aug2007                  
 POTCAR:    PAW_PBE O 08Apr2002                   

 ----------------------------------------------------------------------------- 
|                                                                             |
|           W    W    AA    RRRRR   N    N  II  N    N   GGGG   !!!           |
|           W    W   A  A   R    R  NN   N  II  NN   N  G    G  !!!           |
|           W    W  A    A  R    R  N N  N  II  N N  N  G       !!!           |
|           W WW W  AAAAAA  RRRRR   N  N N  II  N  N N  G  GGG   !            |
|           WW  WW  A    A  R   R   N   NN  II  N   NN  G    G                |
|           W    W  A    A  R    R  N    N  II  N    N   GGGG   !!!           |
|                                                                             |
|      For optimal performance we recommend to set                            |
|        NCORE= 4 - approx SQRT( number of cores)                             |
|      NCORE specifies how many cores store one orbital (NPAR=cpu/NCORE).     |
|      This setting can  greatly improve the performance of VASP for DFT.     |
|      The default,   NCORE=1            might be grossly inefficient         |
|      on modern multi-core architectures or massively parallel machines.     |
|      Do your own testing !!!!                                               |
|      Unfortunately you need to use the default for GW and RPA calculations. |
|      (for HF NCORE is supported but not extensively tested yet)             |
|                                                                             |
 ----------------------------------------------------------------------------- 

 POTCAR:    PAW_PBE Li_sv 10Sep2004               
  local pseudopotential read in
  atomic valenz-charges read in
  non local Contribution for L=           0  read in
    real space projection operators read in
  non local Contribution for L=           0  read in
    real space projection operators read in
  non local Contribution for L=           1  read in
    real space projection operators read in
    PAW grid and wavefunctions read in
 
   number of l-projection  operators is LMAX  =           3
   number of lm-projection operators is LMMAX =           5
 
 POTCAR:    PAW_PBE Ni 02Aug2007                  
  local pseudopotential read in
  partial core-charges read in
  partial kinetic energy density read in
  atomic valenz-charges read in
  non local Contribution for L=           2  read in
    real space projection operators read in
  non local Contribution for L=           2  read in
    real space projection operators read in
  non local Contribution for L=           0  read in
    real space projection operators read in
  non local Contribution for L=           0  read in
    real space projection operators read in
  non local Contribution for L=           1  read in
    real space projection operators read in
  non local Contribution for L=           1  read in
    real space projection operators read in
    PAW grid and wavefunctions read in
 
   number of l-projection  operators is LMAX  =           6
   number of lm-projection operators is LMMAX =          18
 
 POTCAR:    PAW_PBE O 08Apr2002                   
  local pseudopotential read in
  partial core-charges read in
  partial kinetic energy density read in
  kinetic energy density of atom read in
  atomic valenz-charges read in
  non local Contribution for L=           0  read in
    real space projection operators read in
  non local Contribution for L=           0  read in
    real space projection operators read in
  non local Contribution for L=           1  read in
    real space projection operators read in
  non local Contribution for L=           1  read in
    real space projection operators read in
    PAW grid and wavefunctions read in
 
   number of l-projection  operators is LMAX  =           4
   number of lm-projection operators is LMMAX =           8
 
 Optimization of the real space projectors (new method)

 maximal supplied QI-value         = 22.11
 optimisation between [QCUT,QGAM] = [ 11.28, 22.77] = [ 35.61,145.23] Ry 
 Optimized for a Real-space Cutoff    1.10 Angstroem

   l    n(q)    QCUT    max X(q) W(low)/X(q) W(high)/X(q)  e(spline) 
   0      7    11.276    10.506    0.54E-04    0.58E-04    0.16E-07
   0      7    11.276     8.367    0.11E-03    0.14E-03    0.35E-07
   1      7    11.276     8.983    0.23E-03    0.43E-03    0.86E-07
 Optimization of the real space projectors (new method)

 maximal supplied QI-value         = 16.25
 optimisation between [QCUT,QGAM] = [ 11.38, 22.75] = [ 36.24,144.96] Ry 
 Optimized for a Real-space Cutoff    1.47 Angstroem

   l    n(q)    QCUT    max X(q) W(low)/X(q) W(high)/X(q)  e(spline) 
   2      9    11.376    60.317    0.17E-03    0.16E-04    0.16E-06
   2      9    11.376    55.921    0.17E-03    0.16E-04    0.17E-06
   0     10    11.376    51.690    0.45E-04    0.60E-04    0.21E-06
   0     10    11.376    30.015    0.37E-04    0.55E-04    0.19E-06
   1     10    11.376    18.849    0.83E-04    0.11E-03    0.92E-07
   1     10    11.376    14.624    0.69E-04    0.92E-04    0.82E-07
 Optimization of the real space projectors (new method)

 maximal supplied QI-value         = 24.76
 optimisation between [QCUT,QGAM] = [ 11.39, 22.77] = [ 36.31,145.25] Ry 
 Optimized for a Real-space Cutoff    1.10 Angstroem

   l    n(q)    QCUT    max X(q) W(low)/X(q) W(high)/X(q)  e(spline) 
   0      7    11.387    20.381    0.22E-03    0.48E-03    0.18E-06
   0      7    11.387    15.268    0.22E-03    0.52E-03    0.19E-06
   1      7    11.387     5.964    0.22E-03    0.73E-03    0.24E-06
   1      7    11.387     5.382    0.19E-03    0.60E-03    0.21E-06

 ----------------------------------------------------------------------------- 
|                                                                             |
|  ADVICE TO THIS USER RUNNING 'VASP/VAMP'   (HEAR YOUR MASTER'S VOICE ...):  |
|                                                                             |
|      You enforced a specific xc-type in the INCAR file,                     |
|      a different type was found on the POTCAR file                          |
|          I HOPE YOU KNOW, WHAT YOU ARE  DOING                               |
|                                                                             |
 ----------------------------------------------------------------------------- 

  PAW_PBE Li_sv 10Sep2004               :
 energy of atom  1       EATOM= -202.7858
 kinetic energy error for atom=    0.0143 (will be added to EATOM!!)
  PAW_PBE Ni 02Aug2007                  :
 energy of atom  2       EATOM=-1077.6739
 kinetic energy error for atom=    0.0030 (will be added to EATOM!!)
  PAW_PBE O 08Apr2002                   :
 energy of atom  3       EATOM= -432.3788
 kinetic energy error for atom=    0.0224 (will be added to EATOM!!)
 
 
 POSCAR: Li(NiO2)2_p4332.cif                     
  positions in direct lattice
  No initial velocities read in
 exchange correlation table for  LEXCH =       14
   RHO(1)=    0.500       N(1)  =     2000
   RHO(2)=  100.500       N(2)  =     4000
 


--------------------------------------------------------------------------------------------------------


 ion  position               nearest neighbor table
   1  0.750  0.750  0.750-  42 1.93  39 1.93  48 1.93  53 1.93
   2  0.250  0.750  0.250-  41 1.93  40 1.93  47 1.93  54 1.93
   3  0.250  0.250  0.750-  44 1.93  37 1.93  46 1.93  55 1.93
   4  0.750  0.250  0.250-  43 1.93  38 1.93  45 1.93  56 1.93
   5  0.500  0.500  0.500-  35 1.93  32 1.93  26 1.93  49 1.93
   6  0.000  1.000  0.500-  36 1.93  31 1.93  25 1.93  50 1.93
   7  0.500  0.000  1.000-  33 1.93  30 1.93  28 1.93  51 1.93
   8  1.000  0.500  0.000-  34 1.93  29 1.93  27 1.93  52 1.93
   9  0.125  0.625  0.625-  25 1.89  41 1.89  35 1.90  48 1.90  52 1.90  55 1.90  18 2.83  19 2.83
                            14 2.83  16 2.83  24 2.83  23 2.83
  10  0.625  0.875  0.375-  26 1.89  42 1.89  36 1.90  47 1.90  51 1.90  56 1.90  17 2.83  20 2.83
                            13 2.83  15 2.83  23 2.83  24 2.83
  11  0.875  0.125  0.875-  27 1.89  43 1.89  33 1.90  46 1.90  50 1.90  53 1.90  17 2.83  20 2.83
                            14 2.83  16 2.83  22 2.83  21 2.83
  12  0.375  0.375  0.125-  28 1.89  44 1.89  34 1.90  45 1.90  49 1.90  54 1.90  18 2.83  19 2.83
                            13 2.83  15 2.83  21 2.83  22 2.83
  13  0.625  0.625  0.125-  29 1.89  45 1.89  39 1.90  26 1.90  51 1.90  54 1.90  19 2.83  20 2.83
                            10 2.83  12 2.83  22 2.83  23 2.83
  14  0.125  0.875  0.875-  30 1.89  46 1.89  40 1.90  25 1.90  52 1.90  53 1.90  19 2.83  20 2.83
                             9 2.83  11 2.83  21 2.83  24 2.83
  15  0.375  0.125  0.375-  31 1.89  47 1.89  37 1.90  28 1.90  49 1.90  56 1.90  17 2.83  18 2.83
                            10 2.83  12 2.83  21 2.83  24 2.83
  16  0.875  0.375  0.625-  32 1.89  48 1.89  38 1.90  27 1.90  50 1.90  55 1.90  17 2.83  18 2.83
                             9 2.83  11 2.83  22 2.83  23 2.83
  17  0.625  0.125  0.625-  33 1.89  37 1.89  32 1.90  42 1.90  50 1.90  56 1.90  15 2.83  16 2.83
                            10 2.83  11 2.83  24 2.83  22 2.83
  18  0.125  0.375  0.375-  34 1.89  38 1.89  31 1.90  41 1.90  49 1.90  55 1.90  15 2.83  16 2.83
                             9 2.83  12 2.83  23 2.83  21 2.83
  19  0.375  0.625  0.875-  35 1.89  39 1.89  30 1.90  44 1.90  52 1.90  54 1.90  13 2.83  14 2.83
                             9 2.83  12 2.83  22 2.83  24 2.83
  20  0.875  0.875  0.125-  36 1.89  40 1.89  29 1.90  43 1.90  51 1.90  53 1.90  13 2.83  14 2.83
                            10 2.83  11 2.83  21 2.83  23 2.83
  21  0.125  0.125  0.125-  28 1.90  31 1.90  34 1.90  40 1.90  43 1.90  46 1.90  12 2.83  20 2.83
                            18 2.83  11 2.83  14 2.83  15 2.83
  22  0.625  0.375  0.875-  27 1.90  32 1.90  33 1.90  39 1.90  44 1.90  45 1.90  11 2.83  19 2.83
                            17 2.83  12 2.83  13 2.83  16 2.83
  23  0.875  0.625  0.375-  26 1.90  29 1.90  36 1.90  38 1.90  41 1.90  48 1.90  10 2.83  18 2.83
                             9 2.83  20 2.83  13 2.83  16 2.83
  24  0.375  0.875  0.625-  25 1.90  30 1.90  35 1.90  37 1.90  42 1.90  47 1.90   9 2.83  17 2.83
                            10 2.83  19 2.83  14 2.83  15 2.83
  25  0.139  0.860  0.639-   9 1.89  14 1.90  24 1.90   6 1.93
  26  0.639  0.640  0.361-  10 1.89  13 1.90  23 1.90   5 1.93
  27  0.861  0.360  0.861-  11 1.89  16 1.90  22 1.90   8 1.93
  28  0.361  0.140  0.139-  12 1.89  15 1.90  21 1.90   7 1.93
  29  0.860  0.639  0.139-  13 1.89  20 1.90  23 1.90   8 1.93
  30  0.360  0.861  0.861-  14 1.89  19 1.90  24 1.90   7 1.93
  31  0.140  0.139  0.361-  15 1.89  18 1.90  21 1.90   6 1.93
  32  0.640  0.361  0.639-  16 1.89  17 1.90  22 1.90   5 1.93
  33  0.639  0.139  0.860-  17 1.89  11 1.90  22 1.90   7 1.93
  34  0.139  0.361  0.140-  18 1.89  12 1.90  21 1.90   8 1.93
  35  0.361  0.639  0.640-  19 1.89   9 1.90  24 1.90   5 1.93
  36  0.861  0.861  0.360-  20 1.89  10 1.90  23 1.90   6 1.93
  37  0.390  0.111  0.611-  17 1.89  15 1.90  24 1.90   3 1.93
  38  0.890  0.389  0.389-  18 1.89  16 1.90  23 1.90   4 1.93
  39  0.610  0.611  0.889-  19 1.89  13 1.90  22 1.90   1 1.93
  40  0.110  0.889  0.111-  20 1.89  14 1.90  21 1.90   2 1.93
  41  0.111  0.611  0.390-   9 1.89  18 1.90  23 1.90   2 1.93
  42  0.611  0.889  0.610-  10 1.89  17 1.90  24 1.90   1 1.93
  43  0.889  0.111  0.110-  11 1.89  20 1.90  21 1.90   4 1.93
  44  0.389  0.389  0.890-  12 1.89  19 1.90  22 1.90   3 1.93
  45  0.611  0.390  0.111-  13 1.89  12 1.90  22 1.90   4 1.93
  46  0.111  0.110  0.889-  14 1.89  11 1.90  21 1.90   3 1.93
  47  0.389  0.890  0.389-  15 1.89  10 1.90  24 1.90   2 1.93
  48  0.889  0.610  0.611-  16 1.89   9 1.90  23 1.90   1 1.93
  49  0.361  0.361  0.361-  12 1.90  15 1.90  18 1.90   5 1.93
  50  0.861  0.139  0.639-  11 1.90  16 1.90  17 1.90   6 1.93
  51  0.639  0.861  0.139-  10 1.90  13 1.90  20 1.90   7 1.93
  52  0.139  0.639  0.861-   9 1.90  14 1.90  19 1.90   8 1.93
  53  0.889  0.889  0.889-  11 1.90  14 1.90  20 1.90   1 1.93
  54  0.389  0.611  0.111-  12 1.90  13 1.90  19 1.90   2 1.93
  55  0.111  0.389  0.611-   9 1.90  16 1.90  18 1.90   3 1.93
  56  0.611  0.111  0.389-  10 1.90  15 1.90  17 1.90   4 1.93
 
  LATTYP: Found a simple cubic cell.
 ALAT       =     8.0116379300
  
  Lattice vectors:
  
 A1 = (   8.0116379300,   0.0000000000,   0.0000000000)
 A2 = (   0.0000000000,   8.0116379300,   0.0000000000)
 A3 = (   0.0000000000,   0.0000000000,   8.0116379300)


Analysis of symmetry for initial positions (statically):
=====================================================================
 Subroutine PRICEL returns:
 Original cell was already a primitive cell.
 

 Routine SETGRP: Setting up the symmetry group for a 
 simple cubic supercell.


 Subroutine GETGRP returns: Found 24 space group operations
 (whereof  3 operations were pure point group operations)
 out of a pool of 48 trial point group operations.


The static configuration has the point symmetry C_3 .
 The point group associated with its full space group is O   .


Analysis of symmetry for dynamics (positions and initial velocities):
=====================================================================
 Subroutine PRICEL returns:
 Original cell was already a primitive cell.
 

 Routine SETGRP: Setting up the symmetry group for a 
 simple cubic supercell.


 Subroutine GETGRP returns: Found 24 space group operations
 (whereof  3 operations were pure point group operations)
 out of a pool of 48 trial point group operations.


The dynamic configuration has the point symmetry C_3 .
 The point group associated with its full space group is O   .


Analysis of structural, dynamic, and magnetic symmetry:
=====================================================================
 Subroutine PRICEL returns:
 Original cell was already a primitive cell.
 

 Routine SETGRP: Setting up the symmetry group for a 
 simple cubic supercell.


 Subroutine GETGRP returns: Found 24 space group operations
 (whereof  3 operations were pure point group operations)
 out of a pool of 48 trial point group operations.


The magnetic configuration has the point symmetry C_3 .
 The point group associated with its full space group is O   .


 Subroutine INISYM returns: Found 24 space group operations
 (whereof  3 operations are pure point group operations),
 and found     1 'primitive' translations

 
 
 KPOINTS: Automatic mesh                          

Automatic generation of k-mesh.
Space group operators:
 irot       det(A)        alpha          n_x          n_y          n_z        tau_x        tau_y        tau_z
    1     1.000000     0.000000     1.000000     0.000000     0.000000     0.000000     0.000000     0.000000
    2     1.000000   120.000000    -0.577350    -0.577350    -0.577350     0.000000     0.000000     0.000000
    3     1.000000   120.000000     0.577350     0.577350     0.577350     0.000000     0.000000     0.000000
    4     1.000000    90.000000     0.000000     0.000000    -1.000000     0.750000     0.250000     0.750000
    5     1.000000   180.000000     0.000000     0.707107     0.707107     0.750000     0.250000     0.750000
    6     1.000000    90.000000     0.000000     1.000000     0.000000     0.750000     0.250000     0.750000
    7     1.000000   180.000000     0.000000     0.000000     1.000000     0.500000     0.000000     0.500000
    8     1.000000   120.000000    -0.577350     0.577350     0.577350     0.500000     0.000000     0.500000
    9     1.000000   120.000000    -0.577350     0.577350    -0.577350     0.500000     0.000000     0.500000
   10     1.000000    90.000000     0.000000     0.000000     1.000000     0.750000     0.750000     0.250000
   11     1.000000    90.000000    -1.000000     0.000000     0.000000     0.750000     0.750000     0.250000
   12     1.000000   180.000000     0.707107     0.000000     0.707107     0.750000     0.750000     0.250000
   13     1.000000   120.000000     0.577350    -0.577350     0.577350     0.500000     0.500000     0.000000
   14     1.000000   120.000000    -0.577350    -0.577350     0.577350     0.500000     0.500000     0.000000
   15     1.000000   180.000000     1.000000     0.000000     0.000000     0.500000     0.500000     0.000000
   16     1.000000    90.000000     0.000000    -1.000000     0.000000     0.250000     0.750000     0.750000
   17     1.000000   180.000000     0.707107     0.707107     0.000000     0.250000     0.750000     0.750000
   18     1.000000    90.000000     1.000000     0.000000     0.000000     0.250000     0.750000     0.750000
   19     1.000000   120.000000     0.577350    -0.577350    -0.577350     0.000000     0.500000     0.500000
   20     1.000000   180.000000     0.000000     1.000000     0.000000     0.000000     0.500000     0.500000
   21     1.000000   120.000000     0.577350     0.577350    -0.577350     0.000000     0.500000     0.500000
   22     1.000000   180.000000     0.000000    -0.707107     0.707107     0.250000     0.250000     0.250000
   23     1.000000   180.000000     0.707107    -0.707107     0.000000     0.250000     0.250000     0.250000
   24     1.000000   180.000000     0.707107     0.000000    -0.707107     0.250000     0.250000     0.250000
 
 Subroutine IBZKPT returns following result:
 ===========================================
 
 Found     10 irreducible k-points:
 
 Following reciprocal coordinates:
            Coordinates               Weight
  0.000000  0.000000  0.000000      1.000000
  0.250000  0.000000  0.000000      6.000000
  0.500000  0.000000  0.000000      3.000000
  0.250000  0.250000  0.000000     12.000000
  0.500000  0.250000  0.000000     12.000000
  0.500000  0.500000  0.000000      3.000000
  0.250000  0.250000  0.250000      8.000000
  0.500000  0.250000  0.250000     12.000000
  0.500000  0.500000  0.250000      6.000000
  0.500000  0.500000  0.500000      1.000000
 
 Following cartesian coordinates:
            Coordinates               Weight
  0.000000  0.000000  0.000000      1.000000
  0.031205  0.000000  0.000000      6.000000
  0.062409  0.000000  0.000000      3.000000
  0.031205  0.031205  0.000000     12.000000
  0.062409  0.031205  0.000000     12.000000
  0.062409  0.062409  0.000000      3.000000
  0.031205  0.031205  0.031205      8.000000
  0.062409  0.031205  0.031205     12.000000
  0.062409  0.062409  0.031205      6.000000
  0.062409  0.062409  0.062409      1.000000
 


--------------------------------------------------------------------------------------------------------




 Dimension of arrays:
   k-points           NKPTS =     10   k-points in BZ     NKDIM =     10   number of bands    NBANDS=    256
   number of dos      NEDOS =    301   number of ions     NIONS =     56
   non local maximal  LDIM  =      6   non local SUM 2l+1 LMDIM =     18
   total plane-waves  NPLWV = 216000
   max r-space proj   IRMAX =   5689   max aug-charges    IRDMAX=  13813
   dimension x,y,z NGX =    60 NGY =   60 NGZ =   60
   dimension x,y,z NGXF=   120 NGYF=  120 NGZF=  120
   support grid    NGXF=   120 NGYF=  120 NGZF=  120
   ions per type =               8  16  32
   NGX,Y,Z   is equivalent  to a cutoff of  12.45, 12.45, 12.45 a.u.
   NGXF,Y,Z  is equivalent  to a cutoff of  24.90, 24.90, 24.90 a.u.

 SYSTEM =  unknown system                          
 POSCAR =  Li(NiO2)2_p4332.cif                     

 Startparameter for this run:
   NWRITE =      1    write-flag & timer
   PREC   = accura    normal or accurate (medium, high low for compatibility)
   ISTART =      0    job   : 0-new  1-cont  2-samecut
   ICHARG =      2    charge: 1-file 2-atom 10-const
   ISPIN  =      2    spin polarized calculation?
   LNONCOLLINEAR =      F non collinear calculations
   LSORBIT =      F    spin-orbit coupling
   INIWAV =      1    electr: 0-lowe 1-rand  2-diag
   LASPH  =      F    aspherical Exc in radial PAW
   METAGGA=      F    non-selfconsistent MetaGGA calc.

 Electronic Relaxation 1
   ENCUT  =  500.0 eV  36.75 Ry    6.06 a.u.  14.61 14.61 14.61*2*pi/ulx,y,z
   ENINI  =  500.0     initial cutoff
   ENAUG  =  628.9 eV  augmentation charge cutoff
   NELM   =     80;   NELMIN=  2; NELMDL= -5     # of ELM steps 
   EDIFF  = 0.1E-04   stopping-criterion for ELM
   LREAL  =      T    real-space projection
   NLSPLINE    = F    spline interpolate recip. space projectors
   LCOMPAT=      F    compatible to vasp.4.4
   GGA_COMPAT  = T    GGA compatible to vasp.4.4-vasp.4.6
   LMAXPAW     = -100 max onsite density
   LMAXMIX     =    2 max onsite mixed and CHGCAR
   VOSKOWN=      1    Vosko Wilk Nusair interpolation
   ROPT   =   -0.00025  -0.00025  -0.00025
 Ionic relaxation
   EDIFFG = 0.1E-03   stopping-criterion for IOM
   NSW    =      0    number of steps for IOM
   NBLOCK =      1;   KBLOCK =      1    inner block; outer block 
   IBRION =     -1    ionic relax: 0-MD 1-quasi-New 2-CG
   NFREE  =      0    steps in history (QN), initial steepest desc. (CG)
   ISIF   =      2    stress and relaxation
   IWAVPR =     10    prediction:  0-non 1-charg 2-wave 3-comb
   ISYM   =      2    0-nonsym 1-usesym 2-fastsym
   LCORR  =      T    Harris-Foulkes like correction to forces

   POTIM  = 0.5000    time-step for ionic-motion
   TEIN   =    0.0    initial temperature
   TEBEG  =    0.0;   TEEND  =   0.0 temperature during run
   SMASS  =  -3.00    Nose mass-parameter (am)
   estimated Nose-frequenzy (Omega)   =  0.10E-29 period in steps =****** mass=  -0.147E-26a.u.
   SCALEE = 1.0000    scale energy and forces
   NPACO  =    256;   APACO  = 16.0  distance and # of slots for P.C.
   PSTRESS=    0.0 pullay stress

  Mass of Ions in am
   POMASS =   7.01 58.69 16.00
  Ionic Valenz
   ZVAL   =   3.00 10.00  6.00
  Atomic Wigner-Seitz radii
   RWIGS  =   1.23  1.15  0.73
  virtual crystal weights 
   VCA    =   1.00  1.00  1.00
   NELECT =     376.0000    total number of electrons
   NUPDOWN=      -1.0000    fix difference up-down

 DOS related values:
   EMIN   =  10.00;   EMAX   =-10.00  energy-range for DOS
   EFERMI =   0.00
   ISMEAR =     0;   SIGMA  =   0.05  broadening in eV -4-tet -1-fermi 0-gaus

 Electronic relaxation 2 (details)
   IALGO  =     38    algorithm
   LDIAG  =      T    sub-space diagonalisation (order eigenvalues)
   LSUBROT=      F    optimize rotation matrix (better conditioning)
   TURBO    =      0    0=normal 1=particle mesh
   IRESTART =      0    0=no restart 2=restart with 2 vectors
   NREBOOT  =      0    no. of reboots
   NMIN     =      0    reboot dimension
   EREF     =   0.00    reference energy to select bands
   IMIX   =      4    mixing-type and parameters
     AMIX     =   0.40;   BMIX     =  1.00
     AMIX_MAG =   1.60;   BMIX_MAG =  1.00
     AMIN     =   0.10
     WC   =   100.;   INIMIX=   1;  MIXPRE=   1;  MAXMIX= -45

 Intra band minimization:
   WEIMIN = 0.0000     energy-eigenvalue tresh-hold
   EBREAK =  0.98E-08  absolut break condition
   DEPER  =   0.30     relativ break condition  

   TIME   =   0.40     timestep for ELM

  volume/ion in A,a.u.               =       9.18        61.97
  Fermi-wavevector in a.u.,A,eV,Ry     =   1.474855  2.787073 29.595375  2.175199
  Thomas-Fermi vector in A             =   2.589576
 
 Write flags
   LWAVE        =      F    write WAVECAR
   LDOWNSAMPLE  =      F    k-point downsampling of WAVECAR
   LCHARG       =      T    write CHGCAR
   LVTOT        =      F    write LOCPOT, total local potential
   LVHAR        =      F    write LOCPOT, Hartree potential only
   LELF         =      F    write electronic localiz. function (ELF)
   LORBIT       =      0    0 simple, 1 ext, 2 COOP (PROOUT), +10 PAW based schemes


 Dipole corrections
   LMONO  =      F    monopole corrections only (constant potential shift)
   LDIPOL =      F    correct potential (dipole corrections)
   IDIPOL =      0    1-x, 2-y, 3-z, 4-all directions 
   EPSILON=  1.0000000 bulk dielectric constant

 Exchange correlation treatment:
   GGA     =    PS    GGA type
   LEXCH   =    14    internal setting for exchange type
   VOSKOWN=      1    Vosko Wilk Nusair interpolation
   LHFCALC =     F    Hartree Fock is set to
   LHFONE  =     F    Hartree Fock one center treatment
   AEXX    =    0.0000 exact exchange contribution

 Linear response parameters
   LEPSILON=     F    determine dielectric tensor
   LRPA    =     F    only Hartree local field effects (RPA)
   LNABLA  =     F    use nabla operator in PAW spheres
   LVEL    =     F    velocity operator in full k-point grid
   LINTERFAST=   F  fast interpolation
   KINTER  =     0    interpolate to denser k-point grid
   CSHIFT  =0.1000    complex shift for real part using Kramers Kronig
   OMEGAMAX=  -1.0    maximum frequency
   DEG_THRESHOLD= 0.2000000E-02 threshold for treating states as degnerate
   RTIME   =   -0.100 relaxation time in fs
  (WPLASMAI=    0.000 imaginary part of plasma frequency in eV, 0.658/RTIME)
   DFIELD  = 0.0000000 0.0000000 0.0000000 field for delta impulse in time
 
 Orbital magnetization related:
   ORBITALMAG=     F  switch on orbital magnetization
   LCHIMAG   =     F  perturbation theory with respect to B field
   DQ        =  0.001000  dq finite difference perturbation B field
   LLRAUG    =     F  two centre corrections for induced B field



--------------------------------------------------------------------------------------------------------


 Static calculation
 charge density and potential will be updated during run
 spin polarized calculation
 Variant of blocked Davidson
 Davidson routine will perform the subspace rotation
 perform sub-space diagonalisation
    after iterative eigenvector-optimisation
 modified Broyden-mixing scheme, WC =      100.0
 initial mixing is a Kerker type mixing with AMIX =  0.4000 and BMIX =      1.0000
 Hartree-type preconditioning will be used
 using additional bands           68
 real space projection scheme for non local part
 use partial core corrections
 calculate Harris-corrections to forces 
   (improved forces if not selfconsistent)
 use gradient corrections 
 use of overlap-Matrix (Vanderbilt PP)
 Gauss-broadening in eV      SIGMA  =   0.05


--------------------------------------------------------------------------------------------------------


  energy-cutoff  :      500.00
  volume of cell :      514.24
      direct lattice vectors                 reciprocal lattice vectors
     8.011637930  0.000000000  0.000000000     0.124818421  0.000000000  0.000000000
     0.000000000  8.011637930  0.000000000     0.000000000  0.124818421  0.000000000
     0.000000000  0.000000000  8.011637930     0.000000000  0.000000000  0.124818421

  length of vectors
     8.011637930  8.011637930  8.011637930     0.124818421  0.124818421  0.124818421


 
 k-points in units of 2pi/SCALE and weight: Automatic mesh                          
   0.00000000  0.00000000  0.00000000       0.016
   0.03120461  0.00000000  0.00000000       0.094
   0.06240921  0.00000000  0.00000000       0.047
   0.03120461  0.03120461  0.00000000       0.188
   0.06240921  0.03120461  0.00000000       0.188
   0.06240921  0.06240921  0.00000000       0.047
   0.03120461  0.03120461  0.03120461       0.125
   0.06240921  0.03120461  0.03120461       0.188
   0.06240921  0.06240921  0.03120461       0.094
   0.06240921  0.06240921  0.06240921       0.016
 
 k-points in reciprocal lattice and weights: Automatic mesh                          
   0.00000000  0.00000000  0.00000000       0.016
   0.25000000  0.00000000  0.00000000       0.094
   0.50000000  0.00000000  0.00000000       0.047
   0.25000000  0.25000000  0.00000000       0.188
   0.50000000  0.25000000  0.00000000       0.188
   0.50000000  0.50000000  0.00000000       0.047
   0.25000000  0.25000000  0.25000000       0.125
   0.50000000  0.25000000  0.25000000       0.188
   0.50000000  0.50000000  0.25000000       0.094
   0.50000000  0.50000000  0.50000000       0.016
 
 position of ions in fractional coordinates (direct lattice) 
   0.74960491  0.74960491  0.74960491
   0.24960491  0.75039509  0.25039509
   0.25039509  0.24960491  0.75039509
   0.75039509  0.25039509  0.24960491
   0.50039509  0.50039509  0.50039509
   0.00039509  0.99960491  0.49960491
   0.49960491  0.00039509  0.99960491
   0.99960491  0.49960491  0.00039509
   0.12500000  0.62479084  0.62520916
   0.62500000  0.87520916  0.37479084
   0.87500000  0.12479084  0.87479084
   0.37500000  0.37520916  0.12520916
   0.62479084  0.62520916  0.12500000
   0.12479084  0.87479084  0.87500000
   0.37520916  0.12520916  0.37500000
   0.87520916  0.37479084  0.62500000
   0.62520916  0.12500000  0.62479084
   0.12520916  0.37500000  0.37520916
   0.37479084  0.62500000  0.87520916
   0.87479084  0.87500000  0.12479084
   0.12500000  0.12500000  0.12500000
   0.62500000  0.37500000  0.87500000
   0.87500000  0.62500000  0.37500000
   0.37500000  0.87500000  0.62500000
   0.13895397  0.86045986  0.63926994
   0.63895397  0.63954014  0.36073006
   0.86104603  0.36045986  0.86073006
   0.36104603  0.13954014  0.13926994
   0.86045986  0.63926994  0.13895397
   0.36045986  0.86073006  0.86104603
   0.13954014  0.13926994  0.36104603
   0.63954014  0.36073006  0.63895397
   0.63926994  0.13895397  0.86045986
   0.13926994  0.36104603  0.13954014
   0.36073006  0.63895397  0.63954014
   0.86073006  0.86104603  0.36045986
   0.38954014  0.11104603  0.61073006
   0.88954014  0.38895397  0.38926994
   0.61045986  0.61104603  0.88926994
   0.11045986  0.88895397  0.11073006
   0.11104603  0.61073006  0.38954014
   0.61104603  0.88926994  0.61045986
   0.88895397  0.11073006  0.11045986
   0.38895397  0.38926994  0.88954014
   0.61073006  0.38954014  0.11104603
   0.11073006  0.11045986  0.88895397
   0.38926994  0.88954014  0.38895397
   0.88926994  0.61045986  0.61104603
   0.36104312  0.36104312  0.36104312
   0.86104312  0.13895688  0.63895688
   0.63895688  0.86104312  0.13895688
   0.13895688  0.63895688  0.86104312
   0.88895688  0.88895688  0.88895688
   0.38895688  0.61104312  0.11104312
   0.11104312  0.38895688  0.61104312
   0.61104312  0.11104312  0.38895688
 
 position of ions in cartesian coordinates  (Angst):
   6.00556313  6.00556313  6.00556313
   1.99974416  6.01189377  2.00607480
   2.00607480  1.99974416  6.01189377
   6.01189377  2.00607480  1.99974416
   4.00898428  4.00898428  4.00898428
   0.00316532  8.00847261  4.00265365
   4.00265365  0.00316532  8.00847261
   8.00847261  4.00265365  0.00316532
   1.00145474  5.00559799  5.00894942
   5.00727371  7.01185890  3.00268851
   7.01018319  0.99977903  7.00850747
   3.00436422  3.00603994  1.00313046
   5.00559799  5.00894942  1.00145474
   0.99977903  7.00850747  7.01018319
   3.00603994  1.00313046  3.00436422
   7.01185890  3.00268851  5.00727371
   5.00894942  1.00145474  5.00559799
   1.00313046  3.00436422  3.00603994
   3.00268851  5.00727371  7.01185890
   7.00850747  7.01018319  0.99977903
   1.00145474  1.00145474  1.00145474
   5.00727371  3.00436422  7.01018319
   7.01018319  5.00727371  3.00436422
   3.00436422  7.01018319  5.00727371
   1.11324890  6.89369285  5.12159930
   5.11906786  5.12376404  2.89003863
   6.89838903  2.88787389  6.89585760
   2.89257007  1.11794508  1.11578033
   6.89369285  5.12159930  1.11324890
   2.88787389  6.89585760  6.89838903
   1.11794508  1.11578033  2.89257007
   5.12376404  2.89003863  5.11906786
   5.12159930  1.11324890  6.89369285
   1.11578033  2.89257007  1.11794508
   2.89003863  5.11906786  5.12376404
   6.89585760  6.89838903  2.88787389
   3.12085456  0.88966059  4.89294811
   7.12667353  3.11615838  3.11868982
   4.89078337  4.89547955  7.12450878
   0.88496440  7.12197734  0.88712915
   0.88966059  4.89294811  3.12085456
   4.89547955  7.12450878  4.89078337
   7.12197734  0.88712915  0.88496440
   3.11615838  3.11868982  7.12667353
   4.89294811  3.12085456  0.88966059
   0.88712915  0.88496440  7.12197734
   3.11868982  7.12667353  3.11615838
   7.12450878  4.89078337  4.89547955
   2.89254675  2.89254675  2.89254675
   6.89836572  1.11327221  5.11909118
   5.11909118  6.89836572  1.11327221
   1.11327221  5.11909118  6.89836572
   7.12200066  7.12200066  7.12200066
   3.11618169  4.89545624  0.88963727
   0.88963727  3.11618169  4.89545624
   4.89545624  0.88963727  3.11618169
 


--------------------------------------------------------------------------------------------------------


 k-point  1 :   0.0000 0.0000 0.0000  plane waves:   13133
 k-point  2 :   0.2500 0.0000 0.0000  plane waves:   13089
 k-point  3 :   0.5000 0.0000 0.0000  plane waves:   13062
 k-point  4 :   0.2500 0.2500 0.0000  plane waves:   13065
 k-point  5 :   0.5000 0.2500 0.0000  plane waves:   13058
 k-point  6 :   0.5000 0.5000 0.0000  plane waves:   13000
 k-point  7 :   0.2500 0.2500 0.2500  plane waves:   13052
 k-point  8 :   0.5000 0.2500 0.2500  plane waves:   13028
 k-point  9 :   0.5000 0.5000 0.2500  plane waves:   13060
 k-point 10 :   0.5000 0.5000 0.5000  plane waves:   13096

 maximum and minimum number of plane-waves per node :     13133    13000

 maximum number of plane-waves:     13133
 maximum index in each direction: 
   IXMAX=   14   IYMAX=   14   IZMAX=   14
   IXMIN=  -15   IYMIN=  -15   IZMIN=  -15

 The following grids will avoid any aliasing or wrap around errors in the Hartre
 e energy
  - symmetry arguments have not been applied
  - exchange correlation energies might require even more grid points
  - we recommend to set PREC=Normal or Accurate and rely on VASP defaults
 NGX is ok and might be reduce to    60
 NGY is ok and might be reduce to    60
 NGZ is ok and might be reduce to    60

 serial   3D FFT for wavefunctions
 parallel 3D FFT for charge:
    minimum data exchange during FFTs selected (reduces bandwidth)


 total amount of memory used by VASP MPI-rank0   159784. kBytes
=======================================================================

   base      :      30000. kBytes
   nonlr-proj:      25334. kBytes
   fftplans  :       4751. kBytes
   grid      :      27671. kBytes
   one-center:       1741. kBytes
   wavefun   :      70287. kBytes
 
     INWAV:  cpu time    0.0000: real time    0.0000
 Broyden mixing: mesh for mixing (old mesh)
   NGX = 29   NGY = 29   NGZ = 29
  (NGX  =120   NGY  =120   NGZ  =120)
  gives a total of  24389 points

 initial charge density was supplied:
 charge density of overlapping atoms calculated
 number of electron     376.0000000 magnetization      40.0000000
 keeping initial charge density in first step


--------------------------------------------------------------------------------------------------------


 Maximum index for non-local projection operator         5520
 Maximum index for augmentation-charges          938 (set IRDMAX)


--------------------------------------------------------------------------------------------------------


 First call to EWALD:  gamma=   0.221
 Maximum number of real-space cells 3x 3x 3
 Maximum number of reciprocal cells 3x 3x 3

    FEWALD:  cpu time    0.0024: real time    0.0024


--------------------------------------- Iteration      1(   1)  ---------------------------------------


    POTLOK:  cpu time    0.1233: real time    0.1259
    SETDIJ:  cpu time    0.0158: real time    0.0158
     EDDAV:  cpu time   18.7346: real time   18.7944
    --------------------------------------------
      LOOP:  cpu time   18.8754: real time   18.9379

 eigenvalue-minimisations  : 10240
 total energy-change (2. order) : 0.4841635E+04  (-0.1591769E+05)
 number of electron     376.0000000 magnetization      40.0000000
 augmentation part      376.0000000 magnetization      40.0000000

 Free energy of the ion-electron system (eV)
  ---------------------------------------------------
  alpha Z        PSCENC =      1183.38973918
  Ewald energy   TEWEN  =    -22878.49130062
  -Hartree energ DENC   =    -10601.48581906
  -exchange      EXHF   =         0.00000000
  -V(xc)+E(xc)   XCENC  =      1528.68900929
  PAW double counting   =     27101.85202496   -28339.33826434
  entropy T*S    EENTRO =        -0.00780216
  eigenvalues    EBANDS =      4225.21623991
  atomic energy  EATOM  =     32621.81107809
  Solvation  Ediel_sol  =         0.00000000
  ---------------------------------------------------
  free energy    TOTEN  =      4841.63490525 eV

  energy without entropy =     4841.64270741  energy(sigma->0) =     4841.63880633


--------------------------------------------------------------------------------------------------------




--------------------------------------- Iteration      1(   2)  ---------------------------------------


     EDDAV:  cpu time   17.4188: real time   17.4601
    --------------------------------------------
      LOOP:  cpu time   17.4179: real time   17.4592

 eigenvalue-minimisations  : 10384
 total energy-change (2. order) :-0.4299024E+04  (-0.3873142E+04)
 number of electron     376.0000000 magnetization      40.0000000
 augmentation part      376.0000000 magnetization      40.0000000

 Free energy of the ion-electron system (eV)
  ---------------------------------------------------
  alpha Z        PSCENC =      1183.38973918
  Ewald energy   TEWEN  =    -22878.49130062
  -Hartree energ DENC   =    -10601.48581906
  -exchange      EXHF   =         0.00000000
  -V(xc)+E(xc)   XCENC  =      1528.68900929
  PAW double counting   =     27101.85202496   -28339.33826434
  entropy T*S    EENTRO =        -0.02399520
  eigenvalues    EBANDS =       -73.79169347
  atomic energy  EATOM  =     32621.81107809
  Solvation  Ediel_sol  =         0.00000000
  ---------------------------------------------------
  free energy    TOTEN  =       542.61077883 eV

  energy without entropy =      542.63477403  energy(sigma->0) =      542.62277643


--------------------------------------------------------------------------------------------------------




--------------------------------------- Iteration      1(   3)  ---------------------------------------


     EDDAV:  cpu time   17.1711: real time   17.2118
    --------------------------------------------
      LOOP:  cpu time   17.1712: real time   17.2120

 eigenvalue-minimisations  : 10800
 total energy-change (2. order) :-0.9072759E+03  (-0.8290708E+03)
 number of electron     376.0000000 magnetization      40.0000000
 augmentation part      376.0000000 magnetization      40.0000000

 Free energy of the ion-electron system (eV)
  ---------------------------------------------------
  alpha Z        PSCENC =      1183.38973918
  Ewald energy   TEWEN  =    -22878.49130062
  -Hartree energ DENC   =    -10601.48581906
  -exchange      EXHF   =         0.00000000
  -V(xc)+E(xc)   XCENC  =      1528.68900929
  PAW double counting   =     27101.85202496   -28339.33826434
  entropy T*S    EENTRO =        -0.08295615
  eigenvalues    EBANDS =      -981.00860323
  atomic energy  EATOM  =     32621.81107809
  Solvation  Ediel_sol  =         0.00000000
  ---------------------------------------------------
  free energy    TOTEN  =      -364.66509187 eV

  energy without entropy =     -364.58213572  energy(sigma->0) =     -364.62361380


--------------------------------------------------------------------------------------------------------




--------------------------------------- Iteration      1(   4)  ---------------------------------------


     EDDAV:  cpu time   19.2833: real time   19.3290
    --------------------------------------------
      LOOP:  cpu time   19.2833: real time   19.3290

 eigenvalue-minimisations  : 12608
 total energy-change (2. order) :-0.9231719E+02  (-0.8996171E+02)
 number of electron     376.0000000 magnetization      40.0000000
 augmentation part      376.0000000 magnetization      40.0000000

 Free energy of the ion-electron system (eV)
  ---------------------------------------------------
  alpha Z        PSCENC =      1183.38973918
  Ewald energy   TEWEN  =    -22878.49130062
  -Hartree energ DENC   =    -10601.48581906
  -exchange      EXHF   =         0.00000000
  -V(xc)+E(xc)   XCENC  =      1528.68900929
  PAW double counting   =     27101.85202496   -28339.33826434
  entropy T*S    EENTRO =        -0.14892821
  eigenvalues    EBANDS =     -1073.25982318
  atomic energy  EATOM  =     32621.81107809
  Solvation  Ediel_sol  =         0.00000000
  ---------------------------------------------------
  free energy    TOTEN  =      -456.98228388 eV

  energy without entropy =     -456.83335567  energy(sigma->0) =     -456.90781978


--------------------------------------------------------------------------------------------------------




--------------------------------------- Iteration      1(   5)  ---------------------------------------


     EDDAV:  cpu time   27.2473: real time   27.3117
    CHARGE:  cpu time    0.6125: real time    0.6140
    MIXING:  cpu time    0.0024: real time    0.0025
    --------------------------------------------
      LOOP:  cpu time   27.8612: real time   27.9271

 eigenvalue-minimisations  : 18864
 total energy-change (2. order) :-0.6420168E+01  (-0.6372227E+01)
 number of electron     375.9999809 magnetization      46.9759574
 augmentation part      111.2255463 magnetization      34.1105946

 Broyden mixing:
  rms(total) = 0.11861E+02    rms(broyden)= 0.11860E+02
  rms(prec ) = 0.15236E+02
  weight for this iteration     100.00

 Free energy of the ion-electron system (eV)
  ---------------------------------------------------
  alpha Z        PSCENC =      1183.38973918
  Ewald energy   TEWEN  =    -22878.49130062
  -Hartree energ DENC   =    -10601.48581906
  -exchange      EXHF   =         0.00000000
  -V(xc)+E(xc)   XCENC  =      1528.68900929
  PAW double counting   =     27101.85202496   -28339.33826434
  entropy T*S    EENTRO =        -0.14915686
  eigenvalues    EBANDS =     -1079.67976207
  atomic energy  EATOM  =     32621.81107809
  Solvation  Ediel_sol  =         0.00000000
  ---------------------------------------------------
  free energy    TOTEN  =      -463.40245142 eV

  energy without entropy =     -463.25329456  energy(sigma->0) =     -463.32787299


--------------------------------------------------------------------------------------------------------




--------------------------------------- Iteration      1(   6)  ---------------------------------------


    POTLOK:  cpu time    0.1009: real time    0.1012
    SETDIJ:  cpu time    0.0165: real time    0.0165
     EDDAV:  cpu time   21.9291: real time   21.9810
    CHARGE:  cpu time    0.5963: real time    0.5977
    MIXING:  cpu time    0.0025: real time    0.0025
    --------------------------------------------
      LOOP:  cpu time   22.6453: real time   22.6989

 eigenvalue-minimisations  : 14912
 total energy-change (2. order) :-0.1650388E+02  (-0.9931356E+02)
 number of electron     375.9999487 magnetization      38.2630654
 augmentation part      144.3551749 magnetization      34.8521307

 Broyden mixing:
  rms(total) = 0.18653E+02    rms(broyden)= 0.18652E+02
  rms(prec ) = 0.21192E+02
  weight for this iteration     100.00

 eigenvalues of (default mixing * dielectric matrix)
  average eigenvalue GAMMA=   0.2689
  0.2689

 Free energy of the ion-electron system (eV)
  ---------------------------------------------------
  alpha Z        PSCENC =      1183.38973918
  Ewald energy   TEWEN  =    -22878.49130062
  -Hartree energ DENC   =    -10088.62837466
  -exchange      EXHF   =         0.00000000
  -V(xc)+E(xc)   XCENC  =      1549.62995212
  PAW double counting   =     29809.38407630   -30870.86165825
  entropy T*S    EENTRO =        -0.04531979
  eigenvalues    EBANDS =     -1806.09452813
  atomic energy  EATOM  =     32621.81107809
  Solvation  Ediel_sol  =         0.00000000
  ---------------------------------------------------
  free energy    TOTEN  =      -479.90633576 eV

  energy without entropy =     -479.86101597  energy(sigma->0) =     -479.88367587


--------------------------------------------------------------------------------------------------------




--------------------------------------- Iteration      1(   7)  ---------------------------------------


    POTLOK:  cpu time    0.0995: real time    0.0997
    SETDIJ:  cpu time    0.0163: real time    0.0163
     EDDAV:  cpu time   20.8344: real time   20.8837
    CHARGE:  cpu time    0.6019: real time    0.6033
    MIXING:  cpu time    0.0025: real time    0.0025
    --------------------------------------------
      LOOP:  cpu time   21.5545: real time   21.6055

 eigenvalue-minimisations  : 14000
 total energy-change (2. order) : 0.1398667E+03  (-0.2508408E+02)
 number of electron     375.9999697 magnetization      23.0324454
 augmentation part      127.5036505 magnetization      22.3844949

 Broyden mixing:
  rms(total) = 0.55832E+01    rms(broyden)= 0.55809E+01
  rms(prec ) = 0.60788E+01
  weight for this iteration     100.00

 eigenvalues of (default mixing * dielectric matrix)
  average eigenvalue GAMMA=   0.5598
  0.5598  0.5598

 Free energy of the ion-electron system (eV)
  ---------------------------------------------------
  alpha Z        PSCENC =      1183.38973918
  Ewald energy   TEWEN  =    -22878.49130062
  -Hartree energ DENC   =    -10335.54687154
  -exchange      EXHF   =         0.00000000
  -V(xc)+E(xc)   XCENC  =      1530.97852779
  PAW double counting   =     31294.00925856   -32510.54531491
  entropy T*S    EENTRO =        -0.04254937
  eigenvalues    EBANDS =     -1245.60220978
  atomic energy  EATOM  =     32621.81107809
  Solvation  Ediel_sol  =         0.00000000
  ---------------------------------------------------
  free energy    TOTEN  =      -340.03964260 eV

  energy without entropy =     -339.99709323  energy(sigma->0) =     -340.01836791


--------------------------------------------------------------------------------------------------------




--------------------------------------- Iteration      1(   8)  ---------------------------------------


    POTLOK:  cpu time    0.0997: real time    0.0999
    SETDIJ:  cpu time    0.0164: real time    0.0164
     EDDAV:  cpu time   21.5181: real time   21.5690
    CHARGE:  cpu time    0.5937: real time    0.5951
    MIXING:  cpu time    0.0026: real time    0.0026
    --------------------------------------------
      LOOP:  cpu time   22.2304: real time   22.2830

 eigenvalue-minimisations  : 14464
 total energy-change (2. order) :-0.2133100E+01  (-0.6596164E+01)
 number of electron     375.9999742 magnetization      12.3411770
 augmentation part      124.8514934 magnetization      10.0333202

 Broyden mixing:
  rms(total) = 0.25357E+01    rms(broyden)= 0.25349E+01
  rms(prec ) = 0.26112E+01
  weight for this iteration     100.00

 eigenvalues of (default mixing * dielectric matrix)
  average eigenvalue GAMMA=   0.7291
  0.4580  0.9755  0.7538

 Free energy of the ion-electron system (eV)
  ---------------------------------------------------
  alpha Z        PSCENC =      1183.38973918
  Ewald energy   TEWEN  =    -22878.49130062
  -Hartree energ DENC   =    -10284.05625962
  -exchange      EXHF   =         0.00000000
  -V(xc)+E(xc)   XCENC  =      1519.15990168
  PAW double counting   =     32585.42467949   -33832.40384702
  entropy T*S    EENTRO =        -0.05531009
  eigenvalues    EBANDS =     -1256.95142364
  atomic energy  EATOM  =     32621.81107809
  Solvation  Ediel_sol  =         0.00000000
  ---------------------------------------------------
  free energy    TOTEN  =      -342.17274254 eV

  energy without entropy =     -342.11743246  energy(sigma->0) =     -342.14508750


--------------------------------------------------------------------------------------------------------




--------------------------------------- Iteration      1(   9)  ---------------------------------------


    POTLOK:  cpu time    0.0996: real time    0.0999
    SETDIJ:  cpu time    0.0165: real time    0.0165
     EDDAV:  cpu time   22.6570: real time   22.7108
    CHARGE:  cpu time    0.6112: real time    0.6126
    MIXING:  cpu time    0.0028: real time    0.0028
    --------------------------------------------
      LOOP:  cpu time   23.3871: real time   23.4426

 eigenvalue-minimisations  : 15680
 total energy-change (2. order) :-0.1804315E+01  (-0.8379899E+00)
 number of electron     375.9999758 magnetization       8.3159764
 augmentation part      124.3125876 magnetization       5.5861276

 Broyden mixing:
  rms(total) = 0.14232E+01    rms(broyden)= 0.14228E+01
  rms(prec ) = 0.15497E+01
  weight for this iteration     100.00

 eigenvalues of (default mixing * dielectric matrix)
  average eigenvalue GAMMA=   0.7859
  1.4821  0.5891  0.5891  0.4835

 Free energy of the ion-electron system (eV)
  ---------------------------------------------------
  alpha Z        PSCENC =      1183.38973918
  Ewald energy   TEWEN  =    -22878.49130062
  -Hartree energ DENC   =    -10271.49163615
  -exchange      EXHF   =         0.00000000
  -V(xc)+E(xc)   XCENC  =      1515.71138362
  PAW double counting   =     33894.63418265   -35162.18885159
  entropy T*S    EENTRO =        -0.06019258
  eigenvalues    EBANDS =     -1247.29146021
  atomic energy  EATOM  =     32621.81107809
  Solvation  Ediel_sol  =         0.00000000
  ---------------------------------------------------
  free energy    TOTEN  =      -343.97705760 eV

  energy without entropy =     -343.91686503  energy(sigma->0) =     -343.94696132


--------------------------------------------------------------------------------------------------------




--------------------------------------- Iteration      1(  10)  ---------------------------------------


    POTLOK:  cpu time    0.1056: real time    0.1059
    SETDIJ:  cpu time    0.0162: real time    0.0162
     EDDAV:  cpu time   20.6838: real time   20.7328
    CHARGE:  cpu time    0.5917: real time    0.5932
    MIXING:  cpu time    0.0027: real time    0.0027
    --------------------------------------------
      LOOP:  cpu time   21.4001: real time   21.4508

 eigenvalue-minimisations  : 14048
 total energy-change (2. order) :-0.2369478E+01  (-0.4376162E+00)
 number of electron     375.9999764 magnetization       6.3537171
 augmentation part      124.0337174 magnetization       3.6511454

 Broyden mixing:
  rms(total) = 0.32677E+01    rms(broyden)= 0.32657E+01
  rms(prec ) = 0.40168E+01
  weight for this iteration     100.00

 eigenvalues of (default mixing * dielectric matrix)
  average eigenvalue GAMMA=   0.7299
  1.7623  0.6417  0.6417  0.4702  0.1338

 Free energy of the ion-electron system (eV)
  ---------------------------------------------------
  alpha Z        PSCENC =      1183.38973918
  Ewald energy   TEWEN  =    -22878.49130062
  -Hartree energ DENC   =    -10281.68872122
  -exchange      EXHF   =         0.00000000
  -V(xc)+E(xc)   XCENC  =      1515.89551210
  PAW double counting   =     34613.63387159   -35893.11640272
  entropy T*S    EENTRO =        -0.03230365
  eigenvalues    EBANDS =     -1227.74800805
  atomic energy  EATOM  =     32621.81107809
  Solvation  Ediel_sol  =         0.00000000
  ---------------------------------------------------
  free energy    TOTEN  =      -346.34653529 eV

  energy without entropy =     -346.31423165  energy(sigma->0) =     -346.33038347


--------------------------------------------------------------------------------------------------------




--------------------------------------- Iteration      1(  11)  ---------------------------------------


    POTLOK:  cpu time    0.1003: real time    0.1005
    SETDIJ:  cpu time    0.0164: real time    0.0164
     EDDAV:  cpu time   20.1508: real time   20.1985
    CHARGE:  cpu time    0.5758: real time    0.5772
    MIXING:  cpu time    0.0029: real time    0.0030
    --------------------------------------------
      LOOP:  cpu time   20.8461: real time   20.8955

 eigenvalue-minimisations  : 13728
 total energy-change (2. order) : 0.1886341E+01  (-0.1361918E+00)
 number of electron     375.9999759 magnetization       5.6491656
 augmentation part      124.2084075 magnetization       3.3217495

 Broyden mixing:
  rms(total) = 0.55729E+00    rms(broyden)= 0.55148E+00
  rms(prec ) = 0.60014E+00
  weight for this iteration     100.00

 eigenvalues of (default mixing * dielectric matrix)
  average eigenvalue GAMMA=   0.8344
  2.0680  0.8444  0.8444  0.5994  0.5218  0.1280

 Free energy of the ion-electron system (eV)
  ---------------------------------------------------
  alpha Z        PSCENC =      1183.38973918
  Ewald energy   TEWEN  =    -22878.49130062
  -Hartree energ DENC   =    -10287.46014238
  -exchange      EXHF   =         0.00000000
  -V(xc)+E(xc)   XCENC  =      1516.16687453
  PAW double counting   =     35004.44667615   -36290.30606438
  entropy T*S    EENTRO =        -0.06895336
  eigenvalues    EBANDS =     -1213.94810159
  atomic energy  EATOM  =     32621.81107809
  Solvation  Ediel_sol  =         0.00000000
  ---------------------------------------------------
  free energy    TOTEN  =      -344.46019438 eV

  energy without entropy =     -344.39124102  energy(sigma->0) =     -344.42571770


--------------------------------------------------------------------------------------------------------




--------------------------------------- Iteration      1(  12)  ---------------------------------------


    POTLOK:  cpu time    0.0969: real time    0.0972
    SETDIJ:  cpu time    0.0157: real time    0.0157
     EDDAV:  cpu time   19.8379: real time   19.8850
    CHARGE:  cpu time    0.6224: real time    0.6239
    MIXING:  cpu time    0.0029: real time    0.0029
    --------------------------------------------
      LOOP:  cpu time   20.5759: real time   20.6247

 eigenvalue-minimisations  : 13616
 total energy-change (2. order) :-0.7286152E-01  (-0.7067874E-01)
 number of electron     375.9999759 magnetization       6.0324630
 augmentation part      124.0424456 magnetization       3.8508385

 Broyden mixing:
  rms(total) = 0.61616E+00    rms(broyden)= 0.61607E+00
  rms(prec ) = 0.76117E+00
  weight for this iteration     100.00

 eigenvalues of (default mixing * dielectric matrix)
  average eigenvalue GAMMA=   0.8706
  2.1577  1.0355  1.0355  0.6259  0.6259  0.4878  0.1262

 Free energy of the ion-electron system (eV)
  ---------------------------------------------------
  alpha Z        PSCENC =      1183.38973918
  Ewald energy   TEWEN  =    -22878.49130062
  -Hartree energ DENC   =    -10305.24345358
  -exchange      EXHF   =         0.00000000
  -V(xc)+E(xc)   XCENC  =      1517.36118939
  PAW double counting   =     35452.69332097   -36746.16028992
  entropy T*S    EENTRO =        -0.06452389
  eigenvalues    EBANDS =     -1189.82881552
  atomic energy  EATOM  =     32621.81107809
  Solvation  Ediel_sol  =         0.00000000
  ---------------------------------------------------
  free energy    TOTEN  =      -344.53305591 eV

  energy without entropy =     -344.46853201  energy(sigma->0) =     -344.50079396


--------------------------------------------------------------------------------------------------------




--------------------------------------- Iteration      1(  13)  ---------------------------------------


    POTLOK:  cpu time    0.0976: real time    0.0978
    SETDIJ:  cpu time    0.0165: real time    0.0166
     EDDAV:  cpu time   20.3909: real time   20.4408
    CHARGE:  cpu time    0.5785: real time    0.5798
    MIXING:  cpu time    0.0031: real time    0.0031
    --------------------------------------------
      LOOP:  cpu time   21.0866: real time   21.1381

 eigenvalue-minimisations  : 13744
 total energy-change (2. order) : 0.3449934E-01  (-0.1810802E-01)
 number of electron     375.9999758 magnetization       6.4936758
 augmentation part      124.0753105 magnetization       4.2699718

 Broyden mixing:
  rms(total) = 0.18552E+00    rms(broyden)= 0.18455E+00
  rms(prec ) = 0.20245E+00
  weight for this iteration     100.00

 eigenvalues of (default mixing * dielectric matrix)
  average eigenvalue GAMMA=   0.8972
  2.2482  1.1719  1.1719  0.6860  0.6860  0.5084  0.5793  0.1262

 Free energy of the ion-electron system (eV)
  ---------------------------------------------------
  alpha Z        PSCENC =      1183.38973918
  Ewald energy   TEWEN  =    -22878.49130062
  -Hartree energ DENC   =    -10307.64431206
  -exchange      EXHF   =         0.00000000
  -V(xc)+E(xc)   XCENC  =      1517.63412297
  PAW double counting   =     35583.51118378   -36878.15528466
  entropy T*S    EENTRO =        -0.06836074
  eigenvalues    EBANDS =     -1186.48542250
  atomic energy  EATOM  =     32621.81107809
  Solvation  Ediel_sol  =         0.00000000
  ---------------------------------------------------
  free energy    TOTEN  =      -344.49855656 eV

  energy without entropy =     -344.43019582  energy(sigma->0) =     -344.46437619


--------------------------------------------------------------------------------------------------------




--------------------------------------- Iteration      1(  14)  ---------------------------------------


    POTLOK:  cpu time    0.0954: real time    0.0956
    SETDIJ:  cpu time    0.0156: real time    0.0157
     EDDAV:  cpu time   18.8536: real time   18.9010
    CHARGE:  cpu time    0.5972: real time    0.5986
    MIXING:  cpu time    0.0030: real time    0.0030
    --------------------------------------------
      LOOP:  cpu time   19.5649: real time   19.6140

 eigenvalue-minimisations  : 12832
 total energy-change (2. order) :-0.9679862E-02  (-0.3588364E-02)
 number of electron     375.9999756 magnetization       7.1345380
 augmentation part      124.1609685 magnetization       4.8440777

 Broyden mixing:
  rms(total) = 0.10523E+00    rms(broyden)= 0.10517E+00
  rms(prec ) = 0.10900E+00
  weight for this iteration     100.00

 eigenvalues of (default mixing * dielectric matrix)
  average eigenvalue GAMMA=   0.9054
  2.0934  1.3827  1.3827  0.7641  0.7641  0.6104  0.5401  0.4853  0.1262

 Free energy of the ion-electron system (eV)
  ---------------------------------------------------
  alpha Z        PSCENC =      1183.38973918
  Ewald energy   TEWEN  =    -22878.49130062
  -Hartree energ DENC   =    -10306.88443208
  -exchange      EXHF   =         0.00000000
  -V(xc)+E(xc)   XCENC  =      1517.69031117
  PAW double counting   =     35664.65537189   -36959.35051458
  entropy T*S    EENTRO =        -0.06788825
  eigenvalues    EBANDS =     -1187.26060122
  atomic energy  EATOM  =     32621.81107809
  Solvation  Ediel_sol  =         0.00000000
  ---------------------------------------------------
  free energy    TOTEN  =      -344.50823642 eV

  energy without entropy =     -344.44034818  energy(sigma->0) =     -344.47429230


--------------------------------------------------------------------------------------------------------




--------------------------------------- Iteration      1(  15)  ---------------------------------------


    POTLOK:  cpu time    0.0994: real time    0.0996
    SETDIJ:  cpu time    0.0157: real time    0.0158
     EDDAV:  cpu time   23.2513: real time   23.3067
    CHARGE:  cpu time    0.6868: real time    0.6885
    MIXING:  cpu time    0.0036: real time    0.0036
    --------------------------------------------
      LOOP:  cpu time   24.0569: real time   24.1141

 eigenvalue-minimisations  : 14144
 total energy-change (2. order) :-0.8503390E-02  (-0.1219645E-02)
 number of electron     375.9999757 magnetization       7.6466192
 augmentation part      124.1484855 magnetization       5.3046707

 Broyden mixing:
  rms(total) = 0.10260E+00    rms(broyden)= 0.10249E+00
  rms(prec ) = 0.11475E+00
  weight for this iteration     100.00

 eigenvalues of (default mixing * dielectric matrix)
  average eigenvalue GAMMA=   1.0042
  2.4018  1.9169  1.6101  0.8165  0.8165  0.6523  0.6523  0.5152  0.5344  0.1262

 Free energy of the ion-electron system (eV)
  ---------------------------------------------------
  alpha Z        PSCENC =      1183.38973918
  Ewald energy   TEWEN  =    -22878.49130062
  -Hartree energ DENC   =    -10306.88153760
  -exchange      EXHF   =         0.00000000
  -V(xc)+E(xc)   XCENC  =      1517.73534100
  PAW double counting   =     35688.82470886   -36983.27702139
  entropy T*S    EENTRO =        -0.06641071
  eigenvalues    EBANDS =     -1187.56133662
  atomic energy  EATOM  =     32621.81107809
  Solvation  Ediel_sol  =         0.00000000
  ---------------------------------------------------
  free energy    TOTEN  =      -344.51673981 eV

  energy without entropy =     -344.45032910  energy(sigma->0) =     -344.48353446


--------------------------------------------------------------------------------------------------------




--------------------------------------- Iteration      1(  16)  ---------------------------------------


    POTLOK:  cpu time    0.1012: real time    0.1015
    SETDIJ:  cpu time    0.0169: real time    0.0170
     EDDAV:  cpu time   21.4575: real time   21.5112
    CHARGE:  cpu time    0.6198: real time    0.6212
    MIXING:  cpu time    0.0053: real time    0.2584
    --------------------------------------------
      LOOP:  cpu time   22.2007: real time   22.5093

 eigenvalue-minimisations  : 13248
 total energy-change (2. order) :-0.2708248E-02  (-0.5042232E-03)
 number of electron     375.9999756 magnetization       7.7380079
 augmentation part      124.2079023 magnetization       5.3643830

 Broyden mixing:
  rms(total) = 0.39563E-01    rms(broyden)= 0.39507E-01
  rms(prec ) = 0.44325E-01
  weight for this iteration     100.00

 eigenvalues of (default mixing * dielectric matrix)
  average eigenvalue GAMMA=   0.9958
  2.4075  2.4075  1.2818  0.1262  0.8235  0.8235  0.7039  0.7039  0.7069  0.4847
  0.4847

 Free energy of the ion-electron system (eV)
  ---------------------------------------------------
  alpha Z        PSCENC =      1183.38973918
  Ewald energy   TEWEN  =    -22878.49130062
  -Hartree energ DENC   =    -10305.65494226
  -exchange      EXHF   =         0.00000000
  -V(xc)+E(xc)   XCENC  =      1517.70658417
  PAW double counting   =     35737.75466416   -37031.77423063
  entropy T*S    EENTRO =        -0.06447553
  eigenvalues    EBANDS =     -1189.19656462
  atomic energy  EATOM  =     32621.81107809
  Solvation  Ediel_sol  =         0.00000000
  ---------------------------------------------------
  free energy    TOTEN  =      -344.51944806 eV

  energy without entropy =     -344.45497253  energy(sigma->0) =     -344.48721029


--------------------------------------------------------------------------------------------------------




--------------------------------------- Iteration      1(  17)  ---------------------------------------


    POTLOK:  cpu time    0.1127: real time    0.1130
    SETDIJ:  cpu time    0.0167: real time    0.0167
     EDDAV:  cpu time   19.9819: real time   20.0292
    CHARGE:  cpu time    0.6013: real time    0.6027
    MIXING:  cpu time    0.0033: real time    0.0033
    --------------------------------------------
      LOOP:  cpu time   20.7157: real time   20.7648

 eigenvalue-minimisations  : 12608
 total energy-change (2. order) :-0.3128427E-03  (-0.1613580E-03)
 number of electron     375.9999756 magnetization       7.6518768
 augmentation part      124.1863173 magnetization       5.2772441

 Broyden mixing:
  rms(total) = 0.33835E-01    rms(broyden)= 0.33828E-01
  rms(prec ) = 0.38072E-01
  weight for this iteration     100.00

 eigenvalues of (default mixing * dielectric matrix)
  average eigenvalue GAMMA=   1.0183
  2.5424  1.8373  1.7728  1.0489  1.0489  0.7590  0.7590  0.6551  0.6551  0.5073
  0.5073  0.1262

 Free energy of the ion-electron system (eV)
  ---------------------------------------------------
  alpha Z        PSCENC =      1183.38973918
  Ewald energy   TEWEN  =    -22878.49130062
  -Hartree energ DENC   =    -10306.36621631
  -exchange      EXHF   =         0.00000000
  -V(xc)+E(xc)   XCENC  =      1517.74214390
  PAW double counting   =     35734.37739580   -37028.36171530
  entropy T*S    EENTRO =        -0.06417534
  eigenvalues    EBANDS =     -1188.55671031
  atomic energy  EATOM  =     32621.81107809
  Solvation  Ediel_sol  =         0.00000000
  ---------------------------------------------------
  free energy    TOTEN  =      -344.51976090 eV

  energy without entropy =     -344.45558556  energy(sigma->0) =     -344.48767323


--------------------------------------------------------------------------------------------------------




--------------------------------------- Iteration      1(  18)  ---------------------------------------


    POTLOK:  cpu time    0.0949: real time    0.0952
    SETDIJ:  cpu time    0.0161: real time    0.0162
     EDDAV:  cpu time   19.5069: real time   19.5530
    CHARGE:  cpu time    0.5578: real time    0.5591
    MIXING:  cpu time    0.0035: real time    0.0035
    --------------------------------------------
      LOOP:  cpu time   20.1793: real time   20.2270

 eigenvalue-minimisations  : 13728
 total energy-change (2. order) :-0.1594429E-04  (-0.5039013E-04)
 number of electron     375.9999756 magnetization       7.7279770
 augmentation part      124.1898201 magnetization       5.3510566

 Broyden mixing:
  rms(total) = 0.19530E-01    rms(broyden)= 0.19525E-01
  rms(prec ) = 0.22006E-01
  weight for this iteration     100.00

 eigenvalues of (default mixing * dielectric matrix)
  average eigenvalue GAMMA=   1.0720
  2.9327  2.2263  1.4335  1.4335  0.9806  0.9806  0.1262  0.8598  0.6726  0.6726
  0.6246  0.4965  0.4965

 Free energy of the ion-electron system (eV)
  ---------------------------------------------------
  alpha Z        PSCENC =      1183.38973918
  Ewald energy   TEWEN  =    -22878.49130062
  -Hartree energ DENC   =    -10306.43912695
  -exchange      EXHF   =         0.00000000
  -V(xc)+E(xc)   XCENC  =      1517.73151964
  PAW double counting   =     35737.13290368   -37031.08920164
  entropy T*S    EENTRO =        -0.06436939
  eigenvalues    EBANDS =     -1188.50101883
  atomic energy  EATOM  =     32621.81107809
  Solvation  Ediel_sol  =         0.00000000
  ---------------------------------------------------
  free energy    TOTEN  =      -344.51977685 eV

  energy without entropy =     -344.45540746  energy(sigma->0) =     -344.48759215


--------------------------------------------------------------------------------------------------------




--------------------------------------- Iteration      1(  19)  ---------------------------------------


    POTLOK:  cpu time    0.0951: real time    0.0953
    SETDIJ:  cpu time    0.0154: real time    0.0155
     EDDAV:  cpu time   15.5682: real time   15.6050
    CHARGE:  cpu time    0.5617: real time    0.5630
    MIXING:  cpu time    0.0039: real time    0.0039
    --------------------------------------------
      LOOP:  cpu time   16.2443: real time   16.2827

 eigenvalue-minimisations  : 10288
 total energy-change (2. order) :-0.2823094E-04  (-0.1522613E-04)
 number of electron     375.9999756 magnetization       7.7108290
 augmentation part      124.1830556 magnetization       5.3347178

 Broyden mixing:
  rms(total) = 0.76080E-02    rms(broyden)= 0.75738E-02
  rms(prec ) = 0.90462E-02
  weight for this iteration     100.00

 eigenvalues of (default mixing * dielectric matrix)
  average eigenvalue GAMMA=   1.0657
  2.4857  2.4857  1.7573  1.7573  0.9278  0.9278  0.1262  0.7595  0.7595  0.6730
  0.6730  0.4981  0.4981  0.5909

 Free energy of the ion-electron system (eV)
  ---------------------------------------------------
  alpha Z        PSCENC =      1183.38973918
  Ewald energy   TEWEN  =    -22878.49130062
  -Hartree energ DENC   =    -10306.72859767
  -exchange      EXHF   =         0.00000000
  -V(xc)+E(xc)   XCENC  =      1517.74969814
  PAW double counting   =     35737.60728982   -37031.52357316
  entropy T*S    EENTRO =        -0.06409622
  eigenvalues    EBANDS =     -1188.27004264
  atomic energy  EATOM  =     32621.81107809
  Solvation  Ediel_sol  =         0.00000000
  ---------------------------------------------------
  free energy    TOTEN  =      -344.51980508 eV

  energy without entropy =     -344.45570886  energy(sigma->0) =     -344.48775697


--------------------------------------------------------------------------------------------------------




--------------------------------------- Iteration      1(  20)  ---------------------------------------


    POTLOK:  cpu time    0.0962: real time    0.0964
    SETDIJ:  cpu time    0.0163: real time    0.0163
     EDDAV:  cpu time   16.4183: real time   16.4571
    CHARGE:  cpu time    0.6015: real time    0.6030
    MIXING:  cpu time    0.0038: real time    0.0038
    --------------------------------------------
      LOOP:  cpu time   17.1361: real time   17.1767

 eigenvalue-minimisations  : 10864
 total energy-change (2. order) :-0.1340875E-04  (-0.5950512E-05)
 number of electron     375.9999756 magnetization       7.7243973
 augmentation part      124.1815539 magnetization       5.3484115

 Broyden mixing:
  rms(total) = 0.38677E-02    rms(broyden)= 0.38647E-02
  rms(prec ) = 0.46110E-02
  weight for this iteration     100.00

 eigenvalues of (default mixing * dielectric matrix)
  average eigenvalue GAMMA=   1.0876
  2.6782  2.6782  1.8128  1.8128  0.9612  0.9612  0.8716  0.8716  0.1262  0.6746
  0.6746  0.5963  0.5963  0.4988  0.4988

 Free energy of the ion-electron system (eV)
  ---------------------------------------------------
  alpha Z        PSCENC =      1183.38973918
  Ewald energy   TEWEN  =    -22878.49130062
  -Hartree energ DENC   =    -10306.82344895
  -exchange      EXHF   =         0.00000000
  -V(xc)+E(xc)   XCENC  =      1517.75418699
  PAW double counting   =     35735.30966413   -37029.23073780
  entropy T*S    EENTRO =        -0.06413060
  eigenvalues    EBANDS =     -1188.17486890
  atomic energy  EATOM  =     32621.81107809
  Solvation  Ediel_sol  =         0.00000000
  ---------------------------------------------------
  free energy    TOTEN  =      -344.51981849 eV

  energy without entropy =     -344.45568789  energy(sigma->0) =     -344.48775319


--------------------------------------------------------------------------------------------------------




--------------------------------------- Iteration      1(  21)  ---------------------------------------


    POTLOK:  cpu time    0.0946: real time    0.0948
    SETDIJ:  cpu time    0.0160: real time    0.0160
     EDDAV:  cpu time   11.8374: real time   11.8655
    --------------------------------------------
      LOOP:  cpu time   11.9488: real time   11.9771

 eigenvalue-minimisations  :  6784
 total energy-change (2. order) : 0.2186767E-05  (-0.6772350E-06)
 number of electron     375.9999756 magnetization       7.7243973
 augmentation part      124.1815539 magnetization       5.3484115

 Free energy of the ion-electron system (eV)
  ---------------------------------------------------
  alpha Z        PSCENC =      1183.38973918
  Ewald energy   TEWEN  =    -22878.49130062
  -Hartree energ DENC   =    -10306.86858345
  -exchange      EXHF   =         0.00000000
  -V(xc)+E(xc)   XCENC  =      1517.75826789
  PAW double counting   =     35734.49658325   -37028.40393621
  entropy T*S    EENTRO =        -0.06408805
  eigenvalues    EBANDS =     -1188.14757639
  atomic energy  EATOM  =     32621.81107809
  Solvation  Ediel_sol  =         0.00000000
  ---------------------------------------------------
  free energy    TOTEN  =      -344.51981630 eV

  energy without entropy =     -344.45572825  energy(sigma->0) =     -344.48777227


--------------------------------------------------------------------------------------------------------




 average (electrostatic) potential at core
  the test charge radii are     0.7079  0.9791  0.7215
  (the norm of the test charge is              1.0000)
       1 -57.4678       2 -57.4678       3 -57.4678       4 -57.4678       5 -57.4678
       6 -57.4678       7 -57.4678       8 -57.4678       9 -87.6159      10 -87.6159
      11 -87.6159      12 -87.6159      13 -87.6159      14 -87.6159      15 -87.6159
      16 -87.6159      17 -87.6159      18 -87.6159      19 -87.6159      20 -87.6159
      21 -87.5847      22 -87.5847      23 -87.5847      24 -87.5847      25 -70.8978
      26 -70.8978      27 -70.8978      28 -70.8978      29 -70.8978      30 -70.8978
      31 -70.8978      32 -70.8978      33 -70.8978      34 -70.8978      35 -70.8978
      36 -70.8978      37 -70.8978      38 -70.8978      39 -70.8978      40 -70.8978
      41 -70.8978      42 -70.8978      43 -70.8978      44 -70.8978      45 -70.8978
      46 -70.8978      47 -70.8978      48 -70.8978      49 -70.9035      50 -70.9035
      51 -70.9035      52 -70.9035      53 -70.9035      54 -70.9035      55 -70.9035
      56 -70.9035
 
 
 
 E-fermi :   5.0399     XC(G=0): -11.4994     alpha+bet :-12.5599


 spin component 1

 k-point     1 :       0.0000    0.0000    0.0000
  band No.  band energies     occupation 
      1     -38.1682      1.00000
      2     -38.1665      1.00000
      3     -38.1665      1.00000
      4     -38.1665      1.00000
      5     -38.1665      1.00000
      6     -38.1665      1.00000
      7     -38.1665      1.00000
      8     -38.1649      1.00000
      9     -15.4865      1.00000
     10     -14.7784      1.00000
     11     -14.7784      1.00000
     12     -14.7784      1.00000
     13     -14.7720      1.00000
     14     -14.7720      1.00000
     15     -14.7720      1.00000
     16     -13.9829      1.00000
     17     -13.6672      1.00000
     18     -13.6672      1.00000
     19     -13.6667      1.00000
     20     -13.6667      1.00000
     21     -13.6667      1.00000
     22     -13.6656      1.00000
     23     -13.5564      1.00000
     24     -13.5564      1.00000
     25     -13.5564      1.00000
     26     -13.5492      1.00000
     27     -13.5492      1.00000
     28     -13.5492      1.00000
     29     -13.5487      1.00000
     30     -13.5487      1.00000
     31     -13.5487      1.00000
     32     -13.4712      1.00000
     33     -13.4712      1.00000
     34     -13.4712      1.00000
     35     -13.3850      1.00000
     36     -13.3833      1.00000
     37     -13.3833      1.00000
     38     -13.3833      1.00000
     39     -13.3824      1.00000
     40     -13.3824      1.00000
     41      -2.7837      1.00000
     42      -2.6279      1.00000
     43      -2.6279      1.00000
     44      -2.6279      1.00000
     45      -1.9864      1.00000
     46      -1.9864      1.00000
     47      -1.9864      1.00000
     48      -1.9855      1.00000
     49      -1.9855      1.00000
     50      -1.9855      1.00000
     51      -1.6324      1.00000
     52      -1.6323      1.00000
     53      -1.6323      1.00000
     54      -1.6323      1.00000
     55      -1.6322      1.00000
     56      -1.6322      1.00000
     57      -1.4768      1.00000
     58      -1.4768      1.00000
     59      -1.4768      1.00000
     60      -1.4742      1.00000
     61      -1.4742      1.00000
     62      -1.4742      1.00000
     63      -1.4162      1.00000
     64      -1.4162      1.00000
     65      -1.2537      1.00000
     66      -1.2537      1.00000
     67      -1.1901      1.00000
     68      -1.1901      1.00000
     69      -1.1901      1.00000
     70      -1.1889      1.00000
     71      -1.1889      1.00000
     72      -1.1889      1.00000
     73      -0.8631      1.00000
     74      -0.7811      1.00000
     75      -0.7811      1.00000
     76      -0.7811      1.00000
     77      -0.7775      1.00000
     78      -0.7775      1.00000
     79      -0.7775      1.00000
     80      -0.7158      1.00000
     81      -0.7158      1.00000
     82      -0.7158      1.00000
     83      -0.4550      1.00000
     84      -0.4541      1.00000
     85      -0.4541      1.00000
     86      -0.4541      1.00000
     87      -0.4538      1.00000
     88      -0.4538      1.00000
     89      -0.4421      1.00000
     90      -0.4333      1.00000
     91      -0.4333      1.00000
     92      -0.4333      1.00000
     93      -0.4291      1.00000
     94      -0.4291      1.00000
     95      -0.2245      1.00000
     96      -0.2245      1.00000
     97      -0.2245      1.00000
     98      -0.2177      1.00000
     99      -0.2177      1.00000
    100      -0.2177      1.00000
    101       0.1628      1.00000
    102       0.1692      1.00000
    103       0.1692      1.00000
    104       0.1692      1.00000
    105       0.1724      1.00000
    106       0.1724      1.00000
    107       0.2324      1.00000
    108       0.2324      1.00000
    109       0.2324      1.00000
    110       1.1270      1.00000
    111       1.1270      1.00000
    112       1.1270      1.00000
    113       1.1955      1.00000
    114       1.1955      1.00000
    115       1.1984      1.00000
    116       1.1984      1.00000
    117       1.1984      1.00000
    118       1.2040      1.00000
    119       1.4489      1.00000
    120       1.4489      1.00000
    121       1.4489      1.00000
    122       1.4499      1.00000
    123       1.4499      1.00000
    124       1.4499      1.00000
    125       1.5884      1.00000
    126       1.5884      1.00000
    127       1.5884      1.00000
    128       1.7225      1.00000
    129       1.7225      1.00000
    130       2.1940      1.00000
    131       2.1948      1.00000
    132       2.1948      1.00000
    133       2.1948      1.00000
    134       2.1952      1.00000
    135       2.1952      1.00000
    136       2.3396      1.00000
    137       2.3396      1.00000
    138       2.3396      1.00000
    139       2.5738      1.00000
    140       2.5738      1.00000
    141       2.5738      1.00000
    142       2.5769      1.00000
    143       2.5769      1.00000
    144       2.5769      1.00000
    145       2.5898      1.00000
    146       2.5898      1.00000
    147       2.5898      1.00000
    148       2.6852      1.00000
    149       2.6867      1.00000
    150       2.6867      1.00000
    151       2.6867      1.00000
    152       2.6877      1.00000
    153       2.6877      1.00000
    154       2.7781      1.00000
    155       2.7781      1.00000
    156       2.7781      1.00000
    157       2.7782      1.00000
    158       2.7782      1.00000
    159       2.7782      1.00000
    160       2.7878      1.00000
    161       2.7878      1.00000
    162       2.7878      1.00000
    163       3.0200      1.00000
    164       3.0200      1.00000
    165       3.0200      1.00000
    166       3.2975      1.00000
    167       3.2985      1.00000
    168       3.2985      1.00000
    169       3.2992      1.00000
    170       3.2992      1.00000
    171       3.2992      1.00000
    172       3.3092      1.00000
    173       3.4228      1.00000
    174       3.4228      1.00000
    175       3.4228      1.00000
    176       3.4257      1.00000
    177       3.4257      1.00000
    178       3.4257      1.00000
[...]

  length of vectors
     8.011637930  8.011637930  8.011637930     0.124818421  0.124818421  0.124818421


 FORCES acting on ions
    electron-ion (+dipol)            ewald-force                    non-local-force                 convergence-correction
 -----------------------------------------------------------------------------------------------
   0.536E-02 0.536E-02 0.536E-02   0.102E-02 0.102E-02 0.102E-02   0.470E-02 0.470E-02 0.470E-02   0.409E-03 0.409E-03 0.409E-03
   0.536E-02 -.536E-02 -.536E-02   0.102E-02 -.102E-02 -.102E-02   0.470E-02 -.470E-02 -.470E-02   0.409E-03 -.409E-03 -.409E-03
   -.536E-02 0.536E-02 -.536E-02   -.102E-02 0.102E-02 -.102E-02   -.470E-02 0.470E-02 -.470E-02   -.409E-03 0.409E-03 -.409E-03
   -.536E-02 -.536E-02 0.536E-02   -.102E-02 -.102E-02 0.102E-02   -.470E-02 -.470E-02 0.470E-02   -.409E-03 -.409E-03 0.409E-03
   -.536E-02 -.536E-02 -.536E-02   -.102E-02 -.102E-02 -.102E-02   -.470E-02 -.470E-02 -.470E-02   -.409E-03 -.409E-03 -.409E-03
   -.536E-02 0.536E-02 0.536E-02   -.102E-02 0.102E-02 0.102E-02   -.470E-02 0.470E-02 0.470E-02   -.409E-03 0.409E-03 0.409E-03
   0.536E-02 -.536E-02 0.536E-02   0.102E-02 -.102E-02 0.102E-02   0.470E-02 -.470E-02 0.470E-02   0.409E-03 -.409E-03 0.409E-03
   0.536E-02 0.536E-02 -.536E-02   0.102E-02 0.102E-02 -.102E-02   0.470E-02 0.470E-02 -.470E-02   0.409E-03 0.409E-03 -.409E-03
   0.235E-06 -.679E-01 0.679E-01   0.142E-12 0.728E-01 -.728E-01   0.000E+00 -.126E-01 0.126E-01   -.864E-13 -.296E-02 0.296E-02
   0.235E-06 0.679E-01 -.679E-01   0.179E-12 -.728E-01 0.728E-01   -.102E-19 0.126E-01 -.126E-01   -.142E-12 0.296E-02 -.296E-02
   -.106E-06 -.679E-01 -.679E-01   0.128E-12 0.728E-01 0.728E-01   0.339E-20 -.126E-01 -.126E-01   0.127E-12 -.296E-02 -.296E-02
   -.106E-06 0.679E-01 0.679E-01   0.782E-13 -.728E-01 -.728E-01   0.678E-20 0.126E-01 0.126E-01   0.349E-12 0.296E-02 0.296E-02
   -.679E-01 0.679E-01 -.123E-10   0.728E-01 -.728E-01 0.284E-13   -.126E-01 0.126E-01 0.000E+00   -.296E-02 0.296E-02 0.225E-12
   -.679E-01 -.679E-01 -.126E-05   0.728E-01 0.728E-01 0.189E-13   -.126E-01 -.126E-01 -.106E-20   -.296E-02 -.296E-02 -.162E-14
   0.679E-01 0.679E-01 0.126E-05   -.728E-01 -.728E-01 0.178E-14   0.126E-01 0.126E-01 0.678E-20   0.296E-02 0.296E-02 0.292E-12
   0.679E-01 -.679E-01 -.486E-11   -.728E-01 0.728E-01 -.817E-13   0.126E-01 -.126E-01 -.847E-21   0.296E-02 -.296E-02 -.562E-12
   0.679E-01 -.235E-06 -.679E-01   -.728E-01 0.444E-13 0.728E-01   0.126E-01 0.000E+00 -.126E-01   0.296E-02 -.215E-12 -.296E-02
   0.679E-01 0.106E-06 0.679E-01   -.728E-01 0.107E-13 -.728E-01   0.126E-01 0.339E-20 0.126E-01   0.296E-02 0.582E-13 0.296E-02
   -.679E-01 -.235E-06 0.679E-01   0.728E-01 -.755E-14 -.728E-01   -.126E-01 0.339E-20 0.126E-01   -.296E-02 -.276E-12 0.296E-02
   -.679E-01 0.106E-06 -.679E-01   0.728E-01 0.107E-12 0.728E-01   -.126E-01 0.000E+00 -.126E-01   -.296E-02 0.462E-12 -.296E-02
   -.219E-07 0.219E-07 0.606E-11   0.613E-13 0.422E-14 0.639E-13   -.678E-20 0.000E+00 0.000E+00   -.191E-12 -.258E-12 0.699E-13
   -.219E-07 -.219E-07 -.473E-11   0.126E-12 -.178E-13 -.271E-13   -.339E-20 0.678E-20 0.119E-19   -.329E-12 0.214E-13 -.132E-12
   0.219E-07 0.219E-07 -.148E-10   0.604E-13 -.977E-14 -.115E-13   0.102E-19 0.000E+00 0.508E-20   -.506E-14 0.177E-13 0.283E-12
   0.219E-07 -.219E-07 -.109E-10   0.995E-13 0.284E-13 0.142E-13   0.212E-20 -.106E-19 -.169E-20   0.428E-12 0.384E-12 -.632E-12
   0.174E+03 -.175E+03 0.176E+03   -.183E+03 0.185E+03 -.185E+03   0.930E+01 -.938E+01 0.937E+01   -.651E-02 -.296E-02 0.403E-02
   0.174E+03 0.175E+03 -.176E+03   -.183E+03 -.185E+03 0.185E+03   0.930E+01 0.938E+01 -.937E+01   -.651E-02 0.296E-02 -.403E-02
   -.174E+03 -.175E+03 -.176E+03   0.183E+03 0.185E+03 0.185E+03   -.930E+01 -.938E+01 -.937E+01   0.651E-02 -.296E-02 -.403E-02
   -.174E+03 0.175E+03 0.176E+03   0.183E+03 -.185E+03 -.185E+03   -.930E+01 0.938E+01 0.937E+01   0.651E-02 0.296E-02 0.403E-02
   -.175E+03 0.176E+03 0.174E+03   0.185E+03 -.185E+03 -.183E+03   -.938E+01 0.937E+01 0.930E+01   -.296E-02 0.403E-02 -.651E-02
   -.175E+03 -.176E+03 -.174E+03   0.185E+03 0.185E+03 0.183E+03   -.938E+01 -.937E+01 -.930E+01   -.296E-02 -.403E-02 0.651E-02
   0.175E+03 0.176E+03 -.174E+03   -.185E+03 -.185E+03 0.183E+03   0.938E+01 0.937E+01 -.930E+01   0.296E-02 0.403E-02 0.651E-02
   0.175E+03 -.176E+03 0.174E+03   -.185E+03 0.185E+03 -.183E+03   0.938E+01 -.937E+01 0.930E+01   0.296E-02 -.403E-02 -.651E-02
   0.176E+03 0.174E+03 -.175E+03   -.185E+03 -.183E+03 0.185E+03   0.937E+01 0.930E+01 -.938E+01   0.403E-02 -.651E-02 -.296E-02
   0.176E+03 -.174E+03 0.175E+03   -.185E+03 0.183E+03 -.185E+03   0.937E+01 -.930E+01 0.938E+01   0.403E-02 0.651E-02 0.296E-02
   -.176E+03 0.174E+03 0.175E+03   0.185E+03 -.183E+03 -.185E+03   -.937E+01 0.930E+01 0.938E+01   -.403E-02 -.651E-02 0.296E-02
   -.176E+03 -.174E+03 -.175E+03   0.185E+03 0.183E+03 0.185E+03   -.937E+01 -.930E+01 -.938E+01   -.403E-02 0.651E-02 -.296E-02
   0.175E+03 -.174E+03 -.176E+03   -.185E+03 0.183E+03 0.185E+03   0.938E+01 -.930E+01 -.937E+01   0.296E-02 0.651E-02 -.403E-02
   0.175E+03 0.174E+03 0.176E+03   -.185E+03 -.183E+03 -.185E+03   0.938E+01 0.930E+01 0.937E+01   0.296E-02 -.651E-02 0.403E-02
   -.175E+03 -.174E+03 0.176E+03   0.185E+03 0.183E+03 -.185E+03   -.938E+01 -.930E+01 0.937E+01   -.296E-02 0.651E-02 0.403E-02
   -.175E+03 0.174E+03 -.176E+03   0.185E+03 -.183E+03 0.185E+03   -.938E+01 0.930E+01 -.937E+01   -.296E-02 -.651E-02 -.403E-02
   -.174E+03 -.176E+03 0.175E+03   0.183E+03 0.185E+03 -.185E+03   -.930E+01 -.937E+01 0.938E+01   0.651E-02 -.403E-02 0.296E-02
   -.174E+03 0.176E+03 -.175E+03   0.183E+03 -.185E+03 0.185E+03   -.930E+01 0.937E+01 -.938E+01   0.651E-02 0.403E-02 -.296E-02
   0.174E+03 -.176E+03 -.175E+03   -.183E+03 0.185E+03 0.185E+03   0.930E+01 -.937E+01 -.938E+01   -.651E-02 -.403E-02 -.296E-02
   0.174E+03 0.176E+03 0.175E+03   -.183E+03 -.185E+03 -.185E+03   0.930E+01 0.937E+01 0.938E+01   -.651E-02 0.403E-02 0.296E-02
   -.176E+03 0.175E+03 -.174E+03   0.185E+03 -.185E+03 0.183E+03   -.937E+01 0.938E+01 -.930E+01   -.403E-02 0.296E-02 0.651E-02
   -.176E+03 -.175E+03 0.174E+03   0.185E+03 0.185E+03 -.183E+03   -.937E+01 -.938E+01 0.930E+01   -.403E-02 -.296E-02 -.651E-02
   0.176E+03 0.175E+03 0.174E+03   -.185E+03 -.185E+03 -.183E+03   0.937E+01 0.938E+01 0.930E+01   0.403E-02 0.296E-02 -.651E-02
   0.176E+03 -.175E+03 -.174E+03   -.185E+03 0.185E+03 0.183E+03   0.937E+01 -.938E+01 -.930E+01   0.403E-02 -.296E-02 0.651E-02
   -.175E+03 -.175E+03 -.175E+03   0.185E+03 0.185E+03 0.185E+03   -.943E+01 -.943E+01 -.943E+01   -.286E-02 -.286E-02 -.286E-02
   -.175E+03 0.175E+03 0.175E+03   0.185E+03 -.185E+03 -.185E+03   -.943E+01 0.943E+01 0.943E+01   -.286E-02 0.286E-02 0.286E-02
   0.175E+03 -.175E+03 0.175E+03   -.185E+03 0.185E+03 -.185E+03   0.943E+01 -.943E+01 0.943E+01   0.286E-02 -.286E-02 0.286E-02
   0.175E+03 0.175E+03 -.175E+03   -.185E+03 -.185E+03 0.185E+03   0.943E+01 0.943E+01 -.943E+01   0.286E-02 0.286E-02 -.286E-02
   0.175E+03 0.175E+03 0.175E+03   -.185E+03 -.185E+03 -.185E+03   0.943E+01 0.943E+01 0.943E+01   0.286E-02 0.286E-02 0.286E-02
   0.175E+03 -.175E+03 -.175E+03   -.185E+03 0.185E+03 0.185E+03   0.943E+01 -.943E+01 -.943E+01   0.286E-02 -.286E-02 -.286E-02
   -.175E+03 0.175E+03 -.175E+03   0.185E+03 -.185E+03 0.185E+03   -.943E+01 0.943E+01 -.943E+01   -.286E-02 0.286E-02 -.286E-02
   -.175E+03 -.175E+03 0.175E+03   0.185E+03 0.185E+03 -.185E+03   -.943E+01 -.943E+01 0.943E+01   -.286E-02 -.286E-02 0.286E-02
 -----------------------------------------------------------------------------------------------
   -.271E-07 0.271E-07 -.180E-10   0.199E-12 -.568E-13 0.341E-12   -.160E-13 -.160E-13 0.178E-14   0.380E-12 0.367E-12 -.107E-11
 
 
 POSITION                                       TOTAL-FORCE (eV/Angst)
 -----------------------------------------------------------------------------------
      6.00556      6.00556      6.00556         0.011486      0.011486      0.011486
      1.99974      6.01189      2.00607         0.011486     -0.011486     -0.011486
      2.00607      1.99974      6.01189        -0.011486      0.011486     -0.011486
      6.01189      2.00607      1.99974        -0.011486     -0.011486      0.011486
      4.00898      4.00898      4.00898        -0.011486     -0.011486     -0.011486
      0.00317      8.00847      4.00265        -0.011486      0.011486      0.011486
      4.00265      0.00317      8.00847         0.011486     -0.011486      0.011486
      8.00847      4.00265      0.00317         0.011486      0.011486     -0.011486
      1.00145      5.00560      5.00895        -0.000000     -0.010709      0.010709
      5.00727      7.01186      3.00269        -0.000000      0.010709     -0.010709
      7.01018      0.99978      7.00851        -0.000000     -0.010709     -0.010709
      3.00436      3.00604      1.00313        -0.000000      0.010709      0.010709
      5.00560      5.00895      1.00145        -0.010709      0.010709     -0.000000
      0.99978      7.00851      7.01018        -0.010709     -0.010709     -0.000000
      3.00604      1.00313      3.00436         0.010709      0.010709     -0.000000
      7.01186      3.00269      5.00727         0.010709     -0.010709     -0.000000
      5.00895      1.00145      5.00560         0.010709      0.000000     -0.010709
      1.00313      3.00436      3.00604         0.010709      0.000000      0.010709
      3.00269      5.00727      7.01186        -0.010709      0.000000      0.010709
      7.00851      7.01018      0.99978        -0.010709      0.000000     -0.010709
      1.00145      1.00145      1.00145        -0.000000      0.000000     -0.000000
      5.00727      3.00436      7.01018        -0.000000      0.000000     -0.000000
      7.01018      5.00727      3.00436        -0.000000      0.000000     -0.000000
      3.00436      7.01018      5.00727        -0.000000      0.000000     -0.000000
      1.11325      6.89369      5.12160         0.007645      0.011885     -0.006387
      5.11907      5.12376      2.89004         0.007645     -0.011885      0.006387
      6.89839      2.88787      6.89586        -0.007645      0.011885      0.006387
      2.89257      1.11795      1.11578        -0.007645     -0.011885     -0.006387
      6.89369      5.12160      1.11325         0.011885     -0.006387      0.007645
      2.88787      6.89586      6.89839         0.011885      0.006387     -0.007645
      1.11795      1.11578      2.89257        -0.011885     -0.006387     -0.007645
      5.12376      2.89004      5.11907        -0.011885      0.006387      0.007645
      5.12160      1.11325      6.89369        -0.006387      0.007645      0.011885
      1.11578      2.89257      1.11795        -0.006387     -0.007645     -0.011885
      2.89004      5.11907      5.12376         0.006387      0.007645     -0.011885
      6.89586      6.89839      2.88787         0.006387     -0.007645      0.011885
      3.12085      0.88966      4.89295        -0.011885     -0.007645      0.006387
      7.12667      3.11616      3.11869        -0.011885      0.007645     -0.006387
      4.89078      4.89548      7.12451         0.011885     -0.007645     -0.006387
      0.88496      7.12198      0.88713         0.011885      0.007645      0.006387
      0.88966      4.89295      3.12085        -0.007645      0.006387     -0.011885
      4.89548      7.12451      4.89078        -0.007645     -0.006387      0.011885
      7.12198      0.88713      0.88496         0.007645      0.006387      0.011885
      3.11616      3.11869      7.12667         0.007645     -0.006387     -0.011885
      4.89295      3.12085      0.88966         0.006387     -0.011885     -0.007645
      0.88713      0.88496      7.12198         0.006387      0.011885      0.007645
      3.11869      7.12667      3.11616        -0.006387     -0.011885      0.007645
      7.12451      4.89078      4.89548        -0.006387      0.011885     -0.007645
      2.89255      2.89255      2.89255         0.003937      0.003937      0.003937
      6.89837      1.11327      5.11909         0.003937     -0.003937     -0.003937
      5.11909      6.89837      1.11327        -0.003937      0.003937     -0.003937
      1.11327      5.11909      6.89837        -0.003937     -0.003937      0.003937
      7.12200      7.12200      7.12200        -0.003937     -0.003937     -0.003937
      3.11618      4.89546      0.88964        -0.003937      0.003937      0.003937
      0.88964      3.11618      4.89546         0.003937     -0.003937      0.003937
      4.89546      0.88964      3.11618         0.003937      0.003937     -0.003937
 -----------------------------------------------------------------------------------
    total drift:                               -0.000000      0.000000     -0.000000


--------------------------------------------------------------------------------------------------------



  FREE ENERGIE OF THE ION-ELECTRON SYSTEM (eV)
  ---------------------------------------------------
  free  energy   TOTEN  =      -344.5198163002 eV

  energy  without entropy=     -344.4557282477  energy(sigma->0) =     -344.48777227
 


--------------------------------------------------------------------------------------------------------


    POTLOK:  cpu time    0.1105: real time    0.1108


--------------------------------------------------------------------------------------------------------


     LOOP+:  cpu time  448.0371: real time  449.5351
    4ORBIT:  cpu time    0.0000: real time    0.0000

volume of typ            1:    12.1 %

volume of typ            2:    19.8 %

volume of typ            3:    10.1 %
 
total charge     
 
# of ion       s       p       d       tot
------------------------------------------
    1        2.110   0.326   0.120   2.556
    2        2.110   0.326   0.120   2.556
    3        2.110   0.326   0.120   2.556
    4        2.110   0.326   0.120   2.556
    5        2.110   0.326   0.120   2.556
    6        2.110   0.326   0.120   2.556
    7        2.110   0.326   0.120   2.556
    8        2.110   0.326   0.120   2.556
    9        0.283   0.378   7.809   8.470
   10        0.283   0.379   7.832   8.495
   11        0.283   0.379   7.841   8.503
   12        0.283   0.379   7.827   8.489
   13        0.283   0.378   7.808   8.470
   14        0.283   0.379   7.832   8.494
   15        0.283   0.379   7.841   8.503
   16        0.283   0.379   7.827   8.489
   17        0.283   0.378   7.808   8.470
   18        0.283   0.379   7.832   8.494
   19        0.283   0.379   7.840   8.503
   20        0.283   0.379   7.827   8.489
   21        0.282   0.375   7.808   8.465
   22        0.282   0.375   7.833   8.491
   23        0.282   0.376   7.843   8.500
   24        0.282   0.376   7.828   8.486
   25        1.267   2.768   0.006   4.041
   26        1.267   2.771   0.006   4.044
   27        1.267   2.779   0.007   4.052
   28        1.267   2.773   0.006   4.046
   29        1.267   2.773   0.006   4.047
   30        1.267   2.779   0.007   4.053
   31        1.267   2.771   0.006   4.044
   32        1.267   2.768   0.006   4.041
   33        1.267   2.771   0.006   4.044
   34        1.267   2.768   0.006   4.041
   35        1.267   2.773   0.006   4.046
   36        1.267   2.779   0.007   4.052
   37        1.267   2.773   0.006   4.046
   38        1.267   2.779   0.007   4.053
   39        1.267   2.771   0.006   4.044
   40        1.267   2.768   0.006   4.041
   41        1.267   2.771   0.006   4.044
   42        1.267   2.768   0.006   4.041
   43        1.267   2.773   0.006   4.046
   44        1.267   2.779   0.007   4.052
   45        1.267   2.768   0.006   4.041
   46        1.267   2.771   0.006   4.044
   47        1.267   2.779   0.007   4.053
   48        1.267   2.773   0.006   4.047
   49        1.267   2.778   0.007   4.052
   50        1.267   2.772   0.006   4.046
   51        1.267   2.768   0.006   4.041
   52        1.267   2.770   0.006   4.043
   53        1.267   2.778   0.007   4.052
   54        1.267   2.772   0.006   4.046
   55        1.267   2.768   0.006   4.041
   56        1.267   2.770   0.006   4.043
--------------------------------------------------
tot          61.94   97.38  126.41  285.73
 
magnetization (x)
 
# of ion       s       p       d       tot
------------------------------------------
    1        0.004   0.008   0.001   0.013
    2        0.004   0.008   0.001   0.013
    3        0.004   0.008   0.001   0.013
    4        0.004   0.008   0.001   0.013
    5        0.004   0.008   0.001   0.013
    6        0.004   0.008   0.001   0.013
    7        0.004   0.008   0.001   0.013
    8        0.004   0.008   0.001   0.013
    9       -0.001  -0.000   0.314   0.313
   10       -0.001  -0.000   0.340   0.339
   11       -0.001   0.000   0.350   0.350
   12       -0.001   0.000   0.335   0.335
   13       -0.001  -0.000   0.313   0.312
   14       -0.001  -0.000   0.340   0.339
   15       -0.001   0.000   0.350   0.350
   16       -0.001   0.000   0.335   0.335
   17       -0.001  -0.000   0.313   0.312
   18       -0.001  -0.000   0.340   0.339
   19       -0.001   0.000   0.350   0.349
   20       -0.001   0.000   0.335   0.335
   21       -0.001  -0.000   0.334   0.333
   22       -0.000  -0.000   0.362   0.361
   23       -0.000   0.000   0.373   0.372
   24       -0.000   0.000   0.357   0.357
   25        0.007   0.037   0.000   0.044
   26        0.007   0.039   0.000   0.046
   27        0.007   0.047   0.000   0.054
   28        0.007   0.042   0.000   0.049
   29        0.007   0.042   0.000   0.049
   30        0.007   0.047   0.000   0.055
   31        0.007   0.040   0.000   0.047
   32        0.007   0.038   0.000   0.044
   33        0.007   0.040   0.000   0.047
   34        0.007   0.037   0.000   0.044
   35        0.007   0.042   0.000   0.049
   36        0.007   0.047   0.000   0.054
   37        0.007   0.042   0.000   0.049
   38        0.007   0.047   0.000   0.054
   39        0.007   0.040   0.000   0.047
   40        0.007   0.037   0.000   0.044
   41        0.007   0.039   0.000   0.046
   42        0.007   0.037   0.000   0.044
   43        0.007   0.042   0.000   0.049
   44        0.007   0.047   0.000   0.054
   45        0.007   0.037   0.000   0.044
   46        0.007   0.040   0.000   0.047
   47        0.007   0.047   0.000   0.055
   48        0.007   0.042   0.000   0.049
   49        0.007   0.045   0.000   0.053
   50        0.007   0.040   0.000   0.047
   51        0.007   0.036   0.000   0.043
   52        0.007   0.038   0.000   0.045
   53        0.007   0.045   0.000   0.053
   54        0.007   0.040   0.000   0.047
   55        0.007   0.036   0.000   0.043
   56        0.007   0.038   0.000   0.045
--------------------------------------------------
tot           0.25    1.37    5.46    7.08
 

 total amount of memory used by VASP MPI-rank0   159784. kBytes
=======================================================================

   base      :      30000. kBytes
   nonlr-proj:      25334. kBytes
   fftplans  :       4751. kBytes
   grid      :      27671. kBytes
   one-center:       1741. kBytes
   wavefun   :      70287. kBytes
 
  
  
 General timing and accounting informations for this job:
 ========================================================
  
                  Total CPU time used (sec):      463.875
                            User time (sec):      461.594
                          System time (sec):        2.282
                         Elapsed time (sec):      469.267
  
                   Maximum memory used (kb):      217412.
                   Average memory used (kb):           0.
  
                          Minor page faults:        38046
                          Major page faults:           51
                 Voluntary context switches:         1224
